/*--------------------------------*- C++ -*----------------------------------*\
| =========                 |                                                 |
| \\      /  F ield         | OpenFOAM: The Open Source CFD Toolbox           |
|  \\    /   O peration     | Version:  2306                                  |
|   \\  /    A nd           | Website:  www.openfoam.com                      |
|    \\/     M anipulation  |                                                 |
\*---------------------------------------------------------------------------*/
FoamFile
{
    version     2.0;
    format      ascii;
    arch        "LSB;label=32;scalar=64";
    class       volScalarField;
    location    "5";
    object      p;
}
// * * * * * * * * * * * * * * * * * * * * * * * * * * * * * * * * * * * * * //

dimensions      [0 2 -2 0 0 0 0];

internalField   nonuniform List<scalar> 
256
(
0.00820953
0.00398556
7.46866e-12
-0.00422295
0.00311096
0.0024264
0.00156128
0.00087693
0.00216933
0.00206635
0.00192177
0.00181883
0.00201426
0.00200242
0.00198578
0.00197402
0.00199857
0.00199595
0.00199225
0.00198963
0.00199439
0.00199414
0.00199378
0.00199352
0.00199405
0.00199402
0.00199398
0.00199395
0.00199416
0.00199418
0.0019942
0.00199423
0.00820965
0.00398562
2.76263e-07
-0.00422289
0.00311094
0.0024264
0.0015613
0.000877007
0.00216928
0.00206633
0.00192178
0.00181889
0.00201412
0.00200235
0.00198581
0.00197412
0.0019985
0.00199592
0.00199227
0.00198968
0.0019944
0.00199415
0.0019938
0.00199353
0.00199407
0.00199404
0.00199398
0.00199395
0.00199416
0.00199417
0.0019942
0.00199421
0.0082098
0.00398589
5.20087e-07
-0.00422263
0.00311086
0.00242637
0.00156134
0.000877111
0.00216924
0.00206631
0.00192181
0.00181896
0.00201399
0.0020023
0.00198586
0.00197424
0.00199843
0.00199588
0.00199228
0.00198972
0.0019944
0.00199415
0.00199379
0.00199354
0.00199409
0.00199405
0.00199398
0.00199394
0.00199416
0.00199417
0.00199418
0.00199419
0.00820983
0.00398602
7.07518e-07
-0.00422246
0.00311079
0.00242631
0.00156135
0.000877178
0.00216922
0.00206632
0.00192185
0.00181902
0.00201396
0.00200231
0.00198591
0.00197429
0.0019984
0.00199586
0.00199227
0.00198973
0.00199439
0.00199414
0.00199379
0.00199354
0.0019941
0.00199405
0.00199398
0.00199394
0.00199415
0.00199416
0.00199417
0.00199418
0.00820983
0.00398603
7.80057e-07
-0.00422242
0.00311075
0.00242629
0.00156136
0.000877187
0.00216922
0.00206635
0.00192189
0.00181904
0.00201401
0.00200235
0.00198592
0.00197426
0.00199842
0.00199587
0.00199227
0.00198971
0.00199439
0.00199414
0.00199379
0.00199355
0.00199409
0.00199404
0.00199398
0.00199395
0.00199415
0.00199416
0.00199417
0.00199418
0.00820978
0.00398602
7.10133e-07
-0.00422242
0.00311077
0.00242633
0.00156138
0.000877147
0.00216926
0.00206639
0.00192191
0.00181901
0.00201412
0.00200241
0.0019859
0.00197418
0.00199846
0.00199588
0.00199225
0.00198968
0.00199438
0.00199413
0.00199378
0.00199355
0.00199408
0.00199403
0.00199398
0.00199395
0.00199416
0.00199416
0.00199418
0.00199419
0.00820972
0.00398584
5.53402e-07
-0.00422259
0.00311085
0.00242638
0.00156134
0.000877065
0.00216931
0.00206641
0.00192187
0.00181893
0.00201424
0.00200246
0.00198585
0.00197407
0.00199853
0.0019959
0.00199223
0.00198964
0.00199438
0.00199411
0.00199377
0.00199354
0.00199406
0.00199402
0.00199397
0.00199395
0.00199416
0.00199417
0.00199419
0.00199421
0.0082096
0.00398558
2.77537e-07
-0.00422283
0.00311094
0.00242639
0.00156128
0.000876972
0.00216934
0.00206639
0.0019218
0.00181885
0.00201431
0.00200247
0.0019858
0.00197399
0.00199858
0.00199593
0.00199222
0.00198962
0.00199439
0.00199412
0.00199376
0.00199353
0.00199405
0.00199401
0.00199397
0.00199395
0.00199416
0.00199418
0.0019942
0.00199423
)
;

boundaryField
{
    movingWall
    {
        type            zeroGradient;
    }
    CPLReceiveMD
    {
        type            zeroGradient;
    }
    streamwiseIn
    {
        type            cyclic;
    }
    streamwiseOut
    {
        type            cyclic;
    }
    front
    {
        type            cyclic;
    }
    back
    {
        type            cyclic;
    }
    procBoundary0to1
    {
        type            processor;
        value           nonuniform List<scalar> 
64
(
-0.00422205
0.000877
0.00181882
0.00197408
0.00198965
0.00199353
0.00199396
0.00199424
-0.00422202
0.000877109
0.00181891
0.0019742
0.00198968
0.00199353
0.00199395
0.00199422
-0.00422183
0.00087724
0.00181899
0.0019743
0.00198971
0.00199354
0.00199395
0.0019942
-0.00422175
0.000877312
0.00181902
0.00197433
0.00198972
0.00199355
0.00199395
0.00199419
-0.00422175
0.000877309
0.001819
0.00197429
0.00198971
0.00199356
0.00199396
0.00199419
-0.00422178
0.000877238
0.00181894
0.00197419
0.0019897
0.00199357
0.00199396
0.0019942
-0.00422184
0.000877111
0.00181885
0.00197409
0.00198967
0.00199357
0.00199397
0.00199422
-0.00422199
0.000877007
0.0018188
0.00197404
0.00198964
0.00199355
0.00199396
0.00199424
)
;
    }
    procBoundary0to1throughstreamwiseIn
    {
        type            processorCyclic;
        value           nonuniform List<scalar> 
64
(
0.00821039
0.003111
0.00216938
0.00201428
0.00199857
0.0019944
0.00199406
0.00199416
0.00821045
0.00311101
0.00216937
0.00201414
0.00199849
0.0019944
0.00199408
0.00199416
0.00821053
0.00311099
0.00216933
0.00201401
0.00199841
0.0019944
0.00199409
0.00199416
0.00821058
0.00311094
0.0021693
0.00201395
0.00199839
0.0019944
0.0019941
0.00199415
0.00821054
0.00311089
0.00216926
0.00201398
0.00199841
0.0019944
0.0019941
0.00199415
0.00821048
0.00311088
0.00216927
0.00201408
0.00199847
0.0019944
0.00199409
0.00199416
0.00821043
0.00311092
0.00216931
0.00201421
0.00199855
0.00199441
0.00199408
0.00199416
0.00821038
0.00311097
0.00216936
0.00201431
0.00199859
0.00199441
0.00199406
0.00199416
)
;
    }
}


// ************************************************************************* //
