/*--------------------------------*- C++ -*----------------------------------*\
| =========                 |                                                 |
| \\      /  F ield         | OpenFOAM: The Open Source CFD Toolbox           |
|  \\    /   O peration     | Version:  2306                                  |
|   \\  /    A nd           | Website:  www.openfoam.com                      |
|    \\/     M anipulation  |                                                 |
\*---------------------------------------------------------------------------*/
FoamFile
{
    version     2.0;
    format      ascii;
    arch        "LSB;label=32;scalar=64";
    class       surfaceScalarField;
    location    "5";
    object      phi;
}
// * * * * * * * * * * * * * * * * * * * * * * * * * * * * * * * * * * * * * //

dimensions      [0 3 -1 0 0 0 0];

oriented        oriented;

internalField   nonuniform List<scalar> 
640
(
-0.0968141
0.000467269
-0.0668252
-0.096984
0.000169922
-0.0667794
-0.0968132
-0.000170823
-0.0667966
-0.000467705
-0.0668564
-0.0119849
0.000226561
-0.00750988
-0.0119011
8.61647e-05
-0.00711376
-0.0119855
-8.64442e-05
-0.00711577
-0.000226705
-0.00751442
-0.00087995
2.7376e-05
-0.000475694
-0.000804093
1.03079e-05
-0.000427418
-0.000880175
-1.03655e-05
-0.000427557
-2.74026e-05
-0.000476032
0.00010825
1.03601e-05
-2.31193e-05
0.000114435
4.1236e-06
-1.99571e-05
0.000108206
-4.13607e-06
-1.99624e-05
-1.03648e-05
-2.31322e-05
0.0030785
1.65125e-06
-9.80632e-07
0.00308196
6.61058e-07
-8.39588e-07
0.00307849
-6.61906e-07
-8.4124e-07
-1.65157e-06
-9.85131e-07
0.0471383
5.33574e-07
-3.80342e-08
0.0471388
2.17796e-07
-3.39704e-08
0.0471383
-2.20301e-07
-3.31149e-08
-5.34251e-07
-3.84842e-08
0.549273
9.59736e-08
-2.48776e-09
0.549273
3.79827e-08
-3.9023e-09
0.549273
-4.00585e-08
-1.83116e-10
-9.5205e-08
-3.18255e-10
4.38974
5.38464e-10
4.38974
-4.23763e-09
4.38974
9.00831e-10
2.95556e-09
-0.0968141
0.00046726
-0.0668252
-0.096984
0.000169932
-0.0667794
-0.0968132
-0.000170829
-0.0667966
-0.000467702
-0.0668563
-0.0119849
0.000226554
-0.00750988
-0.0119011
8.61698e-05
-0.00711377
-0.0119855
-8.64493e-05
-0.00711578
-0.000226703
-0.00751442
-0.000879951
2.7378e-05
-0.000475693
-0.000804094
1.03088e-05
-0.000427414
-0.000880178
-1.03656e-05
-0.000427556
-2.74046e-05
-0.000476029
0.000108252
1.03583e-05
-2.31213e-05
0.000114439
4.12216e-06
-1.99567e-05
0.000108209
-4.13622e-06
-1.99618e-05
-1.03634e-05
-2.31332e-05
0.0030785
1.65166e-06
-9.81188e-07
0.00308196
6.61072e-07
-8.40495e-07
0.00307849
-6.61667e-07
-8.41773e-07
-1.65128e-06
-9.84019e-07
0.0471383
5.34241e-07
-3.78439e-08
0.0471388
2.18133e-07
-3.3861e-08
0.0471383
-2.20031e-07
-3.2652e-08
-5.346e-07
-3.66936e-08
0.549273
9.63015e-08
-2.5553e-09
0.549274
3.80047e-08
-5.03673e-09
0.549273
-4.04846e-08
-1.08161e-09
-9.58077e-08
1.79117e-09
4.38974
3.55826e-10
4.38974
-4.96248e-09
4.38974
-1.08515e-09
6.60334e-09
-0.0968141
0.000467271
-0.0668252
-0.096984
0.000169928
-0.0667793
-0.0968132
-0.000170822
-0.0667966
-0.000467703
-0.0668563
-0.0119849
0.000226555
-0.00750987
-0.0119011
8.61628e-05
-0.00711377
-0.0119855
-8.64472e-05
-0.00711578
-0.000226703
-0.00751442
-0.000879953
2.73811e-05
-0.000475694
-0.000804098
1.03096e-05
-0.000427415
-0.00088018
-1.03666e-05
-0.000427555
-2.74062e-05
-0.000476028
0.000108254
1.03564e-05
-2.31179e-05
0.000114441
4.1218e-06
-1.99557e-05
0.00010821
-4.13549e-06
-1.99621e-05
-1.03626e-05
-2.31331e-05
0.0030785
1.65145e-06
-9.83629e-07
0.00308196
6.60645e-07
-8.41606e-07
0.00307849
-6.6195e-07
-8.42056e-07
-1.65146e-06
-9.83912e-07
0.0471383
5.34464e-07
-3.89624e-08
0.0471388
2.1803e-07
-3.38563e-08
0.0471383
-2.19844e-07
-3.2985e-08
-5.34152e-07
-3.71441e-08
0.549273
9.61939e-08
-2.15492e-09
0.549274
3.76582e-08
-4.21623e-09
0.549273
-4.07599e-08
-2.23253e-09
-9.55319e-08
1.64874e-09
4.38974
1.42694e-09
4.38974
-3.11454e-09
4.38974
-3.31626e-09
5.7775e-09
-0.0968141
0.000467271
-0.0668252
-0.096984
0.000169936
-0.0667794
-0.0968132
-0.000170823
-0.0667966
-0.000467701
-0.0668563
-0.0119849
0.000226552
-0.00750987
-0.0119011
8.61634e-05
-0.00711377
-0.0119855
-8.64501e-05
-0.00711578
-0.000226703
-0.00751442
-0.000879954
2.73818e-05
-0.000475698
-0.000804099
1.03108e-05
-0.000427417
-0.000880183
-1.03666e-05
-0.000427555
-2.7407e-05
-0.000476028
0.000108254
1.03563e-05
-2.31137e-05
0.000114441
4.12206e-06
-1.99537e-05
0.000108209
-4.13483e-06
-1.99627e-05
-1.03621e-05
-2.31354e-05
0.0030785
1.65134e-06
-9.84363e-07
0.00308196
6.60251e-07
-8.42264e-07
0.00307849
-6.62324e-07
-8.42045e-07
-1.65159e-06
-9.83899e-07
0.0471383
5.34222e-07
-3.87503e-08
0.0471388
2.17669e-07
-3.37365e-08
0.0471383
-2.1995e-07
-3.35684e-08
-5.33671e-07
-3.83237e-08
0.549273
9.61391e-08
-6.68053e-10
0.549274
3.71735e-08
-2.05292e-09
0.549273
-4.1203e-08
-2.23775e-09
-9.52915e-08
-8.72573e-10
4.38974
1.82225e-09
4.38974
-1.1828e-09
4.38974
-6.80932e-10
1.28369e-10
-0.0968141
0.000467273
-0.0668252
-0.096984
0.000169936
-0.0667794
-0.0968132
-0.00017082
-0.0667966
-0.0004677
-0.0668563
-0.0119849
0.000226552
-0.00750987
-0.0119011
8.61617e-05
-0.00711376
-0.0119855
-8.64513e-05
-0.00711577
-0.000226703
-0.00751442
-0.000879953
2.73811e-05
-0.000475701
-0.000804099
1.03105e-05
-0.00042742
-0.000880182
-1.03662e-05
-0.000427557
-2.74058e-05
-0.000476028
0.000108253
1.03574e-05
-2.31108e-05
0.00011444
4.12291e-06
-1.99526e-05
0.000108208
-4.13483e-06
-1.99629e-05
-1.03629e-05
-2.31368e-05
0.0030785
1.6514e-06
-9.84447e-07
0.00308196
6.60058e-07
-8.42498e-07
0.00307849
-6.62562e-07
-8.41946e-07
-1.65174e-06
-9.84035e-07
0.0471383
5.34071e-07
-3.84129e-08
0.0471388
2.17445e-07
-3.35018e-08
0.0471383
-2.19855e-07
-3.42098e-08
-5.33281e-07
-3.95926e-08
0.549273
9.62406e-08
2.65822e-10
0.549274
3.70279e-08
8.88251e-10
0.549273
-4.11637e-08
-2.0268e-09
-9.50413e-08
-3.58103e-09
4.38974
4.5805e-10
4.38974
2.24724e-09
4.38974
1.39737e-09
-4.50649e-09
-0.0968141
0.000467271
-0.0668252
-0.096984
0.000169935
-0.0667794
-0.0968132
-0.000170821
-0.0667966
-0.000467701
-0.0668563
-0.0119849
0.000226552
-0.00750986
-0.0119011
8.61615e-05
-0.00711376
-0.0119855
-8.64507e-05
-0.00711577
-0.000226705
-0.00751441
-0.00087995
2.73791e-05
-0.000475702
-0.000804096
1.03094e-05
-0.000427421
-0.00088018
-1.03655e-05
-0.000427558
-2.7404e-05
-0.000476027
0.000108253
1.03594e-05
-2.31123e-05
0.000114438
4.12385e-06
-1.99526e-05
0.000108207
-4.13532e-06
-1.99622e-05
-1.0364e-05
-2.31368e-05
0.0030785
1.6514e-06
-9.84079e-07
0.00308196
6.59925e-07
-8.42083e-07
0.00307849
-6.62812e-07
-8.41544e-07
-1.65189e-06
-9.82899e-07
0.0471383
5.3391e-07
-3.81223e-08
0.0471388
2.17307e-07
-3.32677e-08
0.0471383
-2.19792e-07
-3.45867e-08
-5.33404e-07
-3.94087e-08
0.549273
9.61585e-08
4.76445e-10
0.549274
3.69863e-08
2.79582e-09
0.549273
-4.0889e-08
-1.37124e-09
-9.53585e-08
-4.35061e-09
4.38974
-1.02855e-09
4.38974
5.55695e-09
4.38974
4.05964e-10
-5.9309e-09
-0.0968141
0.00046727
-0.0668252
-0.096984
0.00016993
-0.0667793
-0.0968132
-0.000170822
-0.0667966
-0.000467701
-0.0668564
-0.0119849
0.000226555
-0.00750986
-0.0119011
8.6163e-05
-0.00711376
-0.0119855
-8.64509e-05
-0.00711577
-0.000226705
-0.00751441
-0.000879949
2.73765e-05
-0.000475701
-0.000804093
1.03078e-05
-0.000427422
-0.000880177
-1.03653e-05
-0.00042756
-2.74027e-05
-0.000476029
0.000108251
1.03607e-05
-2.31143e-05
0.000114436
4.12466e-06
-1.99544e-05
0.000108207
-4.13542e-06
-1.99622e-05
-1.03651e-05
-2.31336e-05
0.0030785
1.65138e-06
-9.84242e-07
0.00308196
6.60098e-07
-8.41218e-07
0.00307849
-6.62881e-07
-8.40938e-07
-1.65186e-06
-9.83141e-07
0.0471383
5.33802e-07
-3.93206e-08
0.0471388
2.17647e-07
-3.36845e-08
0.0471383
-2.20103e-07
-3.45646e-08
-5.3349e-07
-3.95315e-08
0.549273
9.6249e-08
-7.80652e-10
0.549274
3.76992e-08
2.22022e-09
0.549273
-4.07215e-08
-6.71484e-10
-9.52287e-08
-3.91128e-09
4.38974
-2.23262e-09
4.38974
4.6893e-09
4.38974
8.38854e-10
-4.35094e-09
-0.0968141
0.000467261
-0.096984
0.000169932
-0.0968132
-0.000170828
-0.000467703
-0.0119849
0.000226554
-0.0119011
8.6169e-05
-0.0119855
-8.64499e-05
-0.000226706
-0.000879949
2.73747e-05
-0.000804092
1.03074e-05
-0.000880177
-1.03648e-05
-2.74029e-05
0.000108249
1.03612e-05
0.000114434
4.12456e-06
0.000108206
-4.13582e-06
-1.03651e-05
0.0030785
1.65173e-06
0.00308196
6.60485e-07
0.00307849
-6.62465e-07
-1.65127e-06
0.0471383
5.33291e-07
0.0471388
2.17703e-07
0.0471383
-2.20032e-07
-5.33955e-07
0.549273
9.58695e-08
0.549273
3.80032e-08
0.549273
-3.9844e-08
-9.5222e-08
4.38974
4.38974
4.38974
)
;

boundaryField
{
    movingWall
    {
        type            calculated;
        value           uniform 0;
    }
    CPLReceiveMD
    {
        type            calculated;
        value           uniform 0;
    }
    streamwiseIn
    {
        type            cyclic;
        value           nonuniform List<scalar> 0();
    }
    streamwiseOut
    {
        type            cyclic;
        value           nonuniform List<scalar> 0();
    }
    front
    {
        type            cyclic;
        value           nonuniform List<scalar> 
32
(
-0.0668252
-0.00750987
-0.000475699
-2.31171e-05
-9.82449e-07
-3.86298e-08
-1.78086e-09
-1.27834e-09
-0.0667794
-0.00711376
-0.000427418
-1.99565e-05
-8.40102e-07
-3.39579e-08
-6.54765e-10
2.61382e-10
-0.0667966
-0.00711577
-0.00042756
-1.99625e-05
-8.40713e-07
-3.4159e-08
-2.4662e-10
1.69693e-09
-0.0668563
-0.00751441
-0.000476032
-2.31331e-05
-9.83997e-07
-3.90157e-08
-1.99492e-09
-1.27267e-09
)
;
    }
    back
    {
        type            cyclic;
        value           nonuniform List<scalar> 
32
(
0.0668252
0.00750987
0.000475699
2.31171e-05
9.82449e-07
3.86298e-08
1.78086e-09
1.27834e-09
0.0667794
0.00711376
0.000427418
1.99565e-05
8.40102e-07
3.39579e-08
6.54765e-10
-2.61382e-10
0.0667966
0.00711577
0.00042756
1.99625e-05
8.40713e-07
3.4159e-08
2.4662e-10
-1.69693e-09
0.0668563
0.00751441
0.000476032
2.31331e-05
9.83997e-07
3.90157e-08
1.99492e-09
1.27267e-09
)
;
    }
    procBoundary0to1
    {
        type            processor;
        value           nonuniform List<scalar> 
64
(
-0.0963455
-0.0122265
-0.00107948
9.11676e-05
0.00306977
0.0471372
0.549273
4.38974
-0.0963455
-0.0122265
-0.00107948
9.11685e-05
0.00306977
0.0471372
0.549273
4.38974
-0.0963455
-0.0122265
-0.00107948
9.11664e-05
0.00306978
0.0471372
0.549273
4.38974
-0.0963455
-0.0122265
-0.00107948
9.11667e-05
0.00306978
0.0471372
0.549273
4.38974
-0.0963455
-0.0122265
-0.00107948
9.1167e-05
0.00306978
0.0471372
0.549273
4.38974
-0.0963455
-0.0122265
-0.00107948
9.11674e-05
0.00306978
0.0471372
0.549273
4.38974
-0.0963455
-0.0122265
-0.00107948
9.11657e-05
0.00306978
0.0471372
0.549273
4.38974
-0.0963455
-0.0122265
-0.00107948
9.11668e-05
0.00306977
0.0471372
0.549273
4.38974
)
;
    }
    procBoundary0to1throughstreamwiseIn
    {
        type            processorCyclic;
        value           nonuniform List<scalar> 
64
(
0.0963468
0.0122256
0.00107913
-9.12319e-05
-0.00306979
-0.0471372
-0.549273
-4.38974
0.0963468
0.0122256
0.00107913
-9.12306e-05
-0.00306979
-0.0471372
-0.549273
-4.38974
0.0963468
0.0122256
0.00107913
-9.1233e-05
-0.00306979
-0.0471372
-0.549273
-4.38974
0.0963468
0.0122256
0.00107913
-9.12327e-05
-0.00306979
-0.0471372
-0.549273
-4.38974
0.0963468
0.0122256
0.00107913
-9.12324e-05
-0.00306979
-0.0471372
-0.549273
-4.38974
0.0963468
0.0122256
0.00107912
-9.12316e-05
-0.00306979
-0.0471372
-0.549273
-4.38974
0.0963468
0.0122256
0.00107913
-9.12334e-05
-0.00306979
-0.0471372
-0.549273
-4.38974
0.0963468
0.0122256
0.00107913
-9.12316e-05
-0.00306979
-0.0471372
-0.549273
-4.38974
)
;
    }
}


// ************************************************************************* //
