/*--------------------------------*- C++ -*----------------------------------*\
| =========                 |                                                 |
| \\      /  F ield         | OpenFOAM: The Open Source CFD Toolbox           |
|  \\    /   O peration     | Version:  2306                                  |
|   \\  /    A nd           | Website:  www.openfoam.com                      |
|    \\/     M anipulation  |                                                 |
\*---------------------------------------------------------------------------*/
FoamFile
{
    version     2.0;
    format      ascii;
    arch        "LSB;label=32;scalar=64";
    class       surfaceScalarField;
    location    "5";
    object      phi_0;
}
// * * * * * * * * * * * * * * * * * * * * * * * * * * * * * * * * * * * * * //

dimensions      [0 3 -1 0 0 0 0];

oriented        oriented;

internalField   nonuniform List<scalar> 
640
(
-0.0944267
0.000243141
-0.0679558
-0.0945317
0.000104941
-0.0675891
-0.0944259
-0.000105761
-0.0676074
-0.000243598
-0.067991
-0.0117999
0.000198919
-0.00722795
-0.0117684
7.34697e-05
-0.00681394
-0.0118005
-7.3748e-05
-0.00681595
-0.000199066
-0.00723251
-0.000852083
2.38681e-05
-0.000440771
-0.000787331
8.72005e-06
-0.000392973
-0.000852313
-8.76034e-06
-0.000393109
-2.38865e-05
-0.000441092
9.60042e-05
9.90995e-06
-2.08663e-05
0.000100802
3.92222e-06
-1.7861e-05
9.59745e-05
-3.93214e-06
-1.78676e-05
-9.91287e-06
-2.08825e-05
0.00286584
1.63632e-06
-8.72939e-07
0.00286911
6.54214e-07
-7.43752e-07
0.00286583
-6.56442e-07
-7.43657e-07
-1.63739e-06
-8.73287e-07
0.0447493
5.34646e-07
-3.4016e-08
0.0447498
2.18202e-07
-3.05642e-08
0.0447493
-2.20884e-07
-2.93913e-08
-5.36075e-07
-3.36816e-08
0.531684
9.73326e-08
-2.47688e-09
0.531685
3.8834e-08
-4.28852e-09
0.531684
-4.09293e-08
-1.8561e-10
-9.64738e-08
-6.65463e-10
4.33015
1.37785e-09
4.33015
-3.85534e-09
4.33015
1.02904e-09
3.23878e-09
-0.0944267
0.000243143
-0.0679558
-0.0945317
0.000104936
-0.0675891
-0.0944259
-0.000105752
-0.0676074
-0.000243604
-0.067991
-0.0117999
0.000198921
-0.00722796
-0.0117684
7.34686e-05
-0.00681394
-0.0118005
-7.37407e-05
-0.00681595
-0.000199069
-0.00723251
-0.000852084
2.38682e-05
-0.000440772
-0.000787332
8.72026e-06
-0.000392976
-0.000852312
-8.7598e-06
-0.000393111
-2.38863e-05
-0.000441094
9.6004e-05
9.90934e-06
-2.0866e-05
0.000100802
3.92215e-06
-1.78606e-05
9.59738e-05
-3.93194e-06
-1.78675e-05
-9.91343e-06
-2.0883e-05
0.00286584
1.63648e-06
-8.73843e-07
0.00286911
6.5427e-07
-7.43599e-07
0.00286583
-6.55937e-07
-7.43377e-07
-1.63687e-06
-8.74052e-07
0.0447494
5.3514e-07
-3.48529e-08
0.0447498
2.18187e-07
-3.07974e-08
0.0447494
-2.20499e-07
-2.94901e-08
-5.35447e-07
-3.36608e-08
0.531684
9.74541e-08
-3.4509e-09
0.531685
3.84089e-08
-5.70642e-09
0.531684
-4.12729e-08
-1.52035e-09
-9.67326e-08
1.02726e-09
4.33015
1.05701e-09
4.33015
-4.3464e-09
4.33015
-5.20085e-10
6.90268e-09
-0.0944267
0.000243142
-0.0679558
-0.0945317
0.00010494
-0.0675891
-0.0944259
-0.000105756
-0.0676074
-0.000243599
-0.067991
-0.0117999
0.000198924
-0.00722796
-0.0117684
7.34736e-05
-0.00681394
-0.0118005
-7.37401e-05
-0.00681595
-0.000199064
-0.00723251
-0.000852084
2.3868e-05
-0.000440772
-0.000787332
8.7203e-06
-0.000392975
-0.000852313
-8.75978e-06
-0.000393111
-2.38858e-05
-0.000441095
9.60037e-05
9.90929e-06
-2.08648e-05
0.000100801
3.92209e-06
-1.786e-05
9.59734e-05
-3.93208e-06
-1.78672e-05
-9.91353e-06
-2.08828e-05
0.00286584
1.6366e-06
-8.73135e-07
0.00286911
6.54417e-07
-7.43643e-07
0.00286583
-6.55486e-07
-7.43611e-07
-1.63627e-06
-8.73216e-07
0.0447494
5.34992e-07
-3.41987e-08
0.0447498
2.18011e-07
-3.04236e-08
0.0447494
-2.20143e-07
-2.97152e-08
-5.34729e-07
-3.2918e-08
0.531684
9.66203e-08
-2.5434e-09
0.531685
3.74633e-08
-4.70495e-09
0.531684
-4.17619e-08
-2.52305e-09
-9.6653e-08
1.7159e-09
4.33015
1.97422e-09
4.33015
-2.76143e-09
4.33015
-3.02987e-09
6.32268e-09
-0.0944267
0.000243141
-0.0679558
-0.0945317
0.000104939
-0.0675891
-0.0944259
-0.000105754
-0.0676074
-0.000243602
-0.067991
-0.0117999
0.000198925
-0.00722796
-0.0117684
7.34749e-05
-0.00681394
-0.0118005
-7.37371e-05
-0.00681595
-0.000199064
-0.00723251
-0.000852085
2.38676e-05
-0.00044077
-0.000787332
8.71966e-06
-0.000392973
-0.000852311
-8.76016e-06
-0.000393109
-2.38858e-05
-0.000441093
9.60041e-05
9.90934e-06
-2.08644e-05
0.000100802
3.92207e-06
-1.78598e-05
9.59735e-05
-3.9322e-06
-1.7867e-05
-9.9138e-06
-2.08824e-05
0.00286584
1.63679e-06
-8.73491e-07
0.00286911
6.54557e-07
-7.43941e-07
0.00286583
-6.55241e-07
-7.44139e-07
-1.63586e-06
-8.73913e-07
0.0447494
5.34935e-07
-3.33972e-08
0.0447498
2.17874e-07
-2.9703e-08
0.0447494
-2.20093e-07
-2.97718e-08
-5.34218e-07
-3.34915e-08
0.531685
9.6209e-08
-4.54764e-10
0.531685
3.67031e-08
-2.02744e-09
0.531685
-4.2341e-08
-2.07451e-09
-9.65892e-08
-2.87571e-10
4.33015
1.83764e-09
4.33015
-1.22464e-09
4.33015
-7.33876e-10
2.20384e-10
-0.0944267
0.000243142
-0.0679558
-0.0945317
0.000104939
-0.0675891
-0.0944259
-0.000105755
-0.0676074
-0.000243601
-0.067991
-0.0117999
0.000198925
-0.00722796
-0.0117684
7.34751e-05
-0.00681395
-0.0118005
-7.37371e-05
-0.00681595
-0.000199063
-0.00723251
-0.000852085
2.38673e-05
-0.000440768
-0.000787332
8.71934e-06
-0.00039297
-0.000852311
-8.7601e-06
-0.000393106
-2.38858e-05
-0.000441092
9.60042e-05
9.90959e-06
-2.08643e-05
0.000100801
3.92215e-06
-1.78599e-05
9.59733e-05
-3.93221e-06
-1.78668e-05
-9.91386e-06
-2.0882e-05
0.00286584
1.63694e-06
-8.74039e-07
0.00286911
6.54618e-07
-7.44307e-07
0.00286583
-6.5518e-07
-7.44814e-07
-1.63579e-06
-8.74919e-07
0.0447494
5.35032e-07
-3.28509e-08
0.0447498
2.17816e-07
-2.89961e-08
0.0447494
-2.20039e-07
-2.98687e-08
-5.34077e-07
-3.41979e-08
0.531685
9.6327e-08
1.01524e-09
0.531685
3.65781e-08
1.40528e-09
0.531685
-4.23066e-08
-1.52729e-09
-9.63731e-08
-2.62021e-09
4.33015
-8.24779e-11
4.33015
1.82695e-09
4.33015
1.05587e-09
-4.86655e-09
-0.0944267
0.000243142
-0.0679558
-0.0945317
0.00010494
-0.0675891
-0.0944259
-0.000105753
-0.0676074
-0.000243602
-0.067991
-0.0117999
0.000198924
-0.00722796
-0.0117684
7.34743e-05
-0.00681395
-0.0118005
-7.37371e-05
-0.00681595
-0.000199064
-0.00723252
-0.000852086
2.38672e-05
-0.000440765
-0.000787332
8.71939e-06
-0.000392969
-0.000852312
-8.76005e-06
-0.000393104
-2.38859e-05
-0.00044109
9.6004e-05
9.90976e-06
-2.08647e-05
0.000100801
3.92224e-06
-1.78598e-05
9.59732e-05
-3.93218e-06
-1.78667e-05
-9.91376e-06
-2.08822e-05
0.00286584
1.63683e-06
-8.75107e-07
0.00286911
6.54516e-07
-7.44521e-07
0.00286583
-6.55424e-07
-7.45218e-07
-1.63614e-06
-8.76477e-07
0.0447494
5.35092e-07
-3.36553e-08
0.0447498
2.17808e-07
-2.8589e-08
0.0447494
-2.20071e-07
-2.99279e-08
-5.34501e-07
-3.5009e-08
0.531684
9.66392e-08
5.89232e-10
0.531685
3.68392e-08
3.6667e-09
0.531684
-4.18898e-08
-8.01663e-10
-9.65796e-08
-3.63449e-09
4.33015
-1.97295e-09
4.33015
4.87089e-09
4.33015
1.73268e-10
-6.6457e-09
-0.0944267
0.000243144
-0.0679558
-0.0945317
0.000104941
-0.0675891
-0.0944259
-0.000105756
-0.0676074
-0.000243599
-0.067991
-0.0117999
0.000198923
-0.00722796
-0.0117684
7.3473e-05
-0.00681395
-0.0118005
-7.37401e-05
-0.00681595
-0.000199063
-0.00723252
-0.000852085
2.38678e-05
-0.000440766
-0.000787332
8.71986e-06
-0.000392968
-0.000852313
-8.76018e-06
-0.000393104
-2.38859e-05
-0.000441089
9.60039e-05
9.91001e-06
-2.08647e-05
0.000100801
3.9224e-06
-1.78599e-05
9.59735e-05
-3.932e-06
-1.7867e-05
-9.91337e-06
-2.08821e-05
0.00286584
1.63663e-06
-8.73787e-07
0.00286911
6.54405e-07
-7.44301e-07
0.00286583
-6.55922e-07
-7.44916e-07
-1.63675e-06
-8.7506e-07
0.0447494
5.35131e-07
-3.38371e-08
0.0447498
2.18097e-07
-2.89586e-08
0.0447494
-2.20622e-07
-2.9838e-08
-5.35117e-07
-3.40907e-08
0.531684
9.72107e-08
-4.07095e-10
0.531685
3.79158e-08
2.93503e-09
0.531684
-4.17092e-08
-3.44982e-10
-9.64937e-08
-2.95213e-09
4.33015
-2.94119e-09
4.33015
4.06161e-09
4.33015
6.3041e-10
-4.61878e-09
-0.0944267
0.000243144
-0.0945317
0.000104937
-0.0944259
-0.000105752
-0.000243604
-0.0117999
0.00019892
-0.0117684
7.34681e-05
-0.0118005
-7.37401e-05
-0.000199069
-0.000852084
2.38681e-05
-0.000787332
8.7199e-06
-0.000852312
-8.76021e-06
-2.38866e-05
9.60044e-05
9.90971e-06
0.000100802
3.9226e-06
9.59743e-05
-3.93176e-06
-9.91354e-06
0.00286584
1.63652e-06
0.00286911
6.54323e-07
0.00286583
-6.56268e-07
-1.6372e-06
0.0447493
5.35126e-07
0.0447498
2.18104e-07
0.0447493
-2.20841e-07
-5.35456e-07
0.531684
9.74825e-08
0.531685
3.84797e-08
0.531684
-4.1023e-08
-9.63519e-08
4.33015
4.33015
4.33015
)
;

boundaryField
{
    movingWall
    {
        type            calculated;
        value           uniform 0;
    }
    CPLReceiveMD
    {
        type            calculated;
        value           uniform 0;
    }
    streamwiseIn
    {
        type            cyclic;
        value           nonuniform List<scalar> 0();
    }
    streamwiseOut
    {
        type            cyclic;
        value           nonuniform List<scalar> 0();
    }
    front
    {
        type            cyclic;
        value           nonuniform List<scalar> 
32
(
-0.0679558
-0.00722796
-0.000440768
-2.08655e-05
-8.73433e-07
-3.4123e-08
-1.61475e-09
-1.20363e-09
-0.0675891
-0.00681394
-0.000392971
-1.78604e-05
-7.43764e-07
-2.94241e-08
-2.29848e-10
2.1614e-10
-0.0676074
-0.00681595
-0.000393104
-1.78674e-05
-7.44282e-07
-2.94039e-08
1.14288e-10
1.71561e-09
-0.067991
-0.00723251
-0.000441091
-2.08819e-05
-8.7433e-07
-3.40327e-08
-2.00801e-09
-1.26866e-09
)
;
    }
    back
    {
        type            cyclic;
        value           nonuniform List<scalar> 
32
(
0.0679558
0.00722796
0.000440768
2.08655e-05
8.73433e-07
3.4123e-08
1.61475e-09
1.20363e-09
0.0675891
0.00681394
0.000392971
1.78604e-05
7.43764e-07
2.94241e-08
2.29848e-10
-2.1614e-10
0.0676074
0.00681595
0.000393104
1.78674e-05
7.44282e-07
2.94039e-08
-1.14288e-10
-1.71561e-09
0.067991
0.00723251
0.000441091
2.08819e-05
8.7433e-07
3.40327e-08
2.00801e-09
1.26866e-09
)
;
    }
    procBoundary0to1
    {
        type            processor;
        value           nonuniform List<scalar> 
64
(
-0.0941823
-0.011845
-0.00102749
8.20013e-05
0.00285755
0.0447482
0.531684
4.33015
-0.0941823
-0.011845
-0.00102749
8.20014e-05
0.00285756
0.0447483
0.531684
4.33015
-0.0941823
-0.011845
-0.00102749
8.20009e-05
0.00285756
0.0447483
0.531684
4.33015
-0.0941823
-0.011845
-0.00102749
8.2001e-05
0.00285756
0.0447483
0.531684
4.33015
-0.0941823
-0.011845
-0.00102749
8.2001e-05
0.00285756
0.0447483
0.531684
4.33015
-0.0941823
-0.011845
-0.00102749
8.20012e-05
0.00285756
0.0447483
0.531684
4.33015
-0.0941823
-0.011845
-0.00102749
8.20009e-05
0.00285755
0.0447483
0.531684
4.33015
-0.0941823
-0.011845
-0.00102749
8.20013e-05
0.00285755
0.0447482
0.531684
4.33015
)
;
    }
    procBoundary0to1throughstreamwiseIn
    {
        type            processorCyclic;
        value           nonuniform List<scalar> 
64
(
0.0941836
0.0118441
0.00102714
-8.20453e-05
-0.00285757
-0.0447482
-0.531684
-4.33015
0.0941836
0.0118441
0.00102714
-8.20455e-05
-0.00285757
-0.0447483
-0.531684
-4.33015
0.0941836
0.0118441
0.00102714
-8.20462e-05
-0.00285757
-0.0447483
-0.531684
-4.33015
0.0941836
0.0118441
0.00102714
-8.20463e-05
-0.00285757
-0.0447483
-0.531684
-4.33015
0.0941836
0.0118441
0.00102714
-8.20464e-05
-0.00285757
-0.0447483
-0.531684
-4.33015
0.0941836
0.0118441
0.00102714
-8.20461e-05
-0.00285757
-0.0447483
-0.531684
-4.33015
0.0941836
0.0118441
0.00102714
-8.2046e-05
-0.00285757
-0.0447483
-0.531684
-4.33015
0.0941836
0.0118441
0.00102714
-8.20456e-05
-0.00285757
-0.0447482
-0.531684
-4.33015
)
;
    }
}


// ************************************************************************* //
