/*--------------------------------*- C++ -*----------------------------------*\
| =========                 |                                                 |
| \\      /  F ield         | OpenFOAM: The Open Source CFD Toolbox           |
|  \\    /   O peration     | Version:  2306                                  |
|   \\  /    A nd           | Website:  www.openfoam.com                      |
|    \\/     M anipulation  |                                                 |
\*---------------------------------------------------------------------------*/
FoamFile
{
    version     2.0;
    format      ascii;
    arch        "LSB;label=32;scalar=64";
    class       volVectorField;
    location    "5";
    object      U;
}
// * * * * * * * * * * * * * * * * * * * * * * * * * * * * * * * * * * * * * //

dimensions      [0 1 -1 0 0 0 0];

internalField   nonuniform List<vector> 
256
(
(-0.008168 9.45384e-05 -0.00561496)
(-0.00814464 3.57965e-05 -0.00561111)
(-0.00814479 -3.61277e-05 -0.00561256)
(-0.00816777 -9.4704e-05 -0.00561758)
(-0.00101842 9.82585e-05 -0.000631014)
(-0.000999656 3.7054e-05 -0.000597731)
(-0.00099969 -3.71452e-05 -0.0005979)
(-0.00101847 -9.83102e-05 -0.000631396)
(-8.12001e-05 8.42229e-06 -3.99705e-05)
(-6.80821e-05 3.038e-06 -3.59135e-05)
(-6.80926e-05 -3.05977e-06 -3.59253e-05)
(-8.12245e-05 -8.4317e-06 -3.99983e-05)
(8.52538e-06 4.96739e-06 -1.94295e-06)
(9.66669e-06 1.98578e-06 -1.67725e-06)
(9.66533e-06 -1.99016e-06 -1.6773e-06)
(8.52085e-06 -4.96925e-06 -1.94321e-06)
(0.000258341 4.18751e-07 -8.27724e-08)
(0.000258903 1.63985e-07 -7.06004e-08)
(0.000258902 -1.66743e-07 -7.04044e-08)
(0.00025834 -4.21243e-07 -8.24295e-08)
(0.00396074 2.35829e-07 -3.31188e-09)
(0.00396081 9.67956e-08 -2.79046e-09)
(0.00396081 -9.64694e-08 -2.65054e-09)
(0.00396074 -2.35089e-07 -3.1872e-09)
(0.0461525 3.05099e-08 -1.3185e-10)
(0.0461525 1.23223e-08 -1.2723e-10)
(0.0461525 -1.25377e-08 7.11543e-11)
(0.0461525 -3.00429e-08 -1.43036e-10)
(0.368846 1.03047e-08 7.87692e-11)
(0.368846 4.12195e-09 -1.67762e-10)
(0.368846 -4.53846e-09 3.05834e-11)
(0.368846 -1.05527e-08 2.41372e-11)
(-0.00816801 9.45358e-05 -0.00561496)
(-0.00814464 3.57985e-05 -0.00561111)
(-0.00814478 -3.61298e-05 -0.00561256)
(-0.00816778 -9.47033e-05 -0.00561758)
(-0.00101842 9.8256e-05 -0.000631015)
(-0.000999657 3.70565e-05 -0.000597731)
(-0.000999689 -3.71473e-05 -0.0005979)
(-0.00101847 -9.83096e-05 -0.000631395)
(-8.11999e-05 8.42201e-06 -3.99698e-05)
(-6.80822e-05 3.03779e-06 -3.59135e-05)
(-6.80926e-05 -3.05949e-06 -3.59251e-05)
(-8.12247e-05 -8.43186e-06 -3.9998e-05)
(8.52544e-06 4.96728e-06 -1.94356e-06)
(9.66773e-06 1.98573e-06 -1.67709e-06)
(9.66578e-06 -1.9902e-06 -1.67697e-06)
(8.52132e-06 -4.96912e-06 -1.94324e-06)
(0.000258342 4.1912e-07 -8.2745e-08)
(0.000258903 1.64055e-07 -7.07767e-08)
(0.000258903 -1.66772e-07 -7.05366e-08)
(0.00025834 -4.21219e-07 -8.21837e-08)
(0.00396074 2.35866e-07 -3.2336e-09)
(0.00396081 9.67837e-08 -2.98427e-09)
(0.00396081 -9.64699e-08 -2.75661e-09)
(0.00396074 -2.35199e-07 -2.94532e-09)
(0.0461525 3.05696e-08 -1.35202e-10)
(0.0461525 1.23362e-08 -4.61712e-10)
(0.0461525 -1.24967e-08 -3.19525e-11)
(0.0461525 -3.00977e-08 9.12879e-11)
(0.368846 1.03777e-08 1.14158e-10)
(0.368846 4.14775e-09 -4.04195e-10)
(0.368846 -4.48432e-09 7.46397e-11)
(0.368846 -1.05216e-08 4.51389e-10)
(-0.008168 9.45369e-05 -0.00561496)
(-0.00814464 3.57963e-05 -0.0056111)
(-0.00814479 -3.6129e-05 -0.00561256)
(-0.00816777 -9.4704e-05 -0.00561758)
(-0.00101842 9.82576e-05 -0.000631015)
(-0.000999656 3.70543e-05 -0.000597732)
(-0.00099969 -3.71462e-05 -0.0005979)
(-0.00101847 -9.83101e-05 -0.000631396)
(-8.12001e-05 8.42218e-06 -3.99702e-05)
(-6.80825e-05 3.03782e-06 -3.59134e-05)
(-6.80925e-05 -3.05945e-06 -3.59253e-05)
(-8.12247e-05 -8.43163e-06 -3.9998e-05)
(8.5259e-06 4.96717e-06 -1.94279e-06)
(9.66832e-06 1.98573e-06 -1.67681e-06)
(9.66633e-06 -1.99016e-06 -1.67709e-06)
(8.52138e-06 -4.96914e-06 -1.94339e-06)
(0.000258342 4.19221e-07 -8.2709e-08)
(0.000258904 1.64074e-07 -7.06937e-08)
(0.000258903 -1.66846e-07 -7.07133e-08)
(0.000258341 -4.21359e-07 -8.26423e-08)
(0.00396074 2.35869e-07 -3.39073e-09)
(0.00396081 9.67042e-08 -2.93781e-09)
(0.00396081 -9.64901e-08 -2.82885e-09)
(0.00396074 -2.35186e-07 -3.14298e-09)
(0.0461525 3.0547e-08 -3.15828e-10)
(0.0461525 1.22646e-08 -5.3267e-10)
(0.0461525 -1.24444e-08 -2.62946e-10)
(0.0461525 -2.9933e-08 1.2938e-10)
(0.368846 1.03749e-08 -3.82147e-11)
(0.368846 4.14887e-09 -4.12982e-10)
(0.368846 -4.41129e-09 -3.63257e-10)
(0.368846 -1.0372e-08 5.8395e-10)
(-0.00816801 9.45364e-05 -0.00561496)
(-0.00814464 3.57969e-05 -0.00561111)
(-0.00814479 -3.613e-05 -0.00561256)
(-0.00816778 -9.47039e-05 -0.00561758)
(-0.00101842 9.8257e-05 -0.000631014)
(-0.000999656 3.70554e-05 -0.000597732)
(-0.000999688 -3.7147e-05 -0.0005979)
(-0.00101847 -9.831e-05 -0.000631396)
(-8.12e-05 8.42216e-06 -3.99703e-05)
(-6.80824e-05 3.03824e-06 -3.59134e-05)
(-6.80927e-05 -3.05924e-06 -3.59251e-05)
(-8.12247e-05 -8.43169e-06 -3.99979e-05)
(8.52604e-06 4.96718e-06 -1.94218e-06)
(9.66847e-06 1.98566e-06 -1.67657e-06)
(9.66636e-06 -1.9902e-06 -1.67732e-06)
(8.52134e-06 -4.96917e-06 -1.94391e-06)
(0.000258342 4.19244e-07 -8.25722e-08)
(0.000258904 1.64058e-07 -7.06706e-08)
(0.000258903 -1.66859e-07 -7.07567e-08)
(0.000258341 -4.21353e-07 -8.27436e-08)
(0.00396074 2.35819e-07 -3.24564e-09)
(0.00396081 9.663e-08 -2.82377e-09)
(0.00396081 -9.65084e-08 -2.76411e-09)
(0.00396074 -2.35112e-07 -3.12836e-09)
(0.0461525 3.05121e-08 -1.15652e-10)
(0.0461525 1.2159e-08 -2.78903e-10)
(0.0461525 -1.25171e-08 -1.87634e-10)
(0.0461525 -2.98528e-08 1.07772e-10)
(0.368846 1.04015e-08 2.20771e-10)
(0.368846 4.085e-09 -2.10155e-10)
(0.368846 -4.47873e-09 -3.46456e-10)
(0.368846 -1.0314e-08 2.68379e-10)
(-0.00816801 9.45365e-05 -0.00561496)
(-0.00814464 3.57966e-05 -0.00561111)
(-0.00814479 -3.61299e-05 -0.00561256)
(-0.00816778 -9.4704e-05 -0.00561758)
(-0.00101842 9.82573e-05 -0.000631014)
(-0.000999656 3.70551e-05 -0.000597731)
(-0.000999689 -3.71469e-05 -0.0005979)
(-0.00101847 -9.831e-05 -0.000631396)
(-8.11997e-05 8.42237e-06 -3.99705e-05)
(-6.80823e-05 3.03827e-06 -3.59135e-05)
(-6.80924e-05 -3.05931e-06 -3.59249e-05)
(-8.12249e-05 -8.4316e-06 -3.9998e-05)
(8.52603e-06 4.96717e-06 -1.94174e-06)
(9.66821e-06 1.98566e-06 -1.67643e-06)
(9.66615e-06 -1.99027e-06 -1.67744e-06)
(8.52119e-06 -4.96927e-06 -1.94422e-06)
(0.000258342 4.19171e-07 -8.26461e-08)
(0.000258904 1.64029e-07 -7.07407e-08)
(0.000258903 -1.66824e-07 -7.07524e-08)
(0.000258341 -4.21296e-07 -8.27045e-08)
(0.00396074 2.35848e-07 -3.21157e-09)
(0.00396081 9.66322e-08 -2.77093e-09)
(0.00396081 -9.64939e-08 -2.78228e-09)
(0.00396074 -2.35072e-07 -3.20376e-09)
(0.0461525 3.05445e-08 2.92568e-11)
(0.0461525 1.21126e-08 -2.81666e-11)
(0.0461525 -1.25269e-08 -1.13232e-10)
(0.0461525 -2.98235e-08 -1.8421e-10)
(0.368846 1.04233e-08 8.14154e-11)
(0.368846 4.05979e-09 -5.62397e-12)
(0.368846 -4.49169e-09 2.3652e-10)
(0.368846 -1.03009e-08 -2.49858e-10)
(-0.008168 9.45362e-05 -0.00561496)
(-0.00814464 3.57965e-05 -0.00561111)
(-0.00814479 -3.61297e-05 -0.00561256)
(-0.00816778 -9.47043e-05 -0.00561758)
(-0.00101842 9.82569e-05 -0.000631013)
(-0.000999656 3.7055e-05 -0.000597731)
(-0.000999689 -3.71465e-05 -0.0005979)
(-0.00101847 -9.83103e-05 -0.000631396)
(-8.11996e-05 8.42253e-06 -3.99706e-05)
(-6.80818e-05 3.03826e-06 -3.59137e-05)
(-6.80926e-05 -3.05935e-06 -3.59254e-05)
(-8.1225e-05 -8.4317e-06 -3.99983e-05)
(8.52584e-06 4.96721e-06 -1.94143e-06)
(9.6678e-06 1.9856e-06 -1.67633e-06)
(9.6657e-06 -1.99038e-06 -1.67747e-06)
(8.52099e-06 -4.96926e-06 -1.94437e-06)
(0.000258342 4.19044e-07 -8.26187e-08)
(0.000258904 1.63977e-07 -7.07989e-08)
(0.000258903 -1.66801e-07 -7.08345e-08)
(0.000258341 -4.21202e-07 -8.28409e-08)
(0.00396074 2.35889e-07 -3.244e-09)
(0.00396081 9.66741e-08 -2.82611e-09)
(0.00396081 -9.65008e-08 -2.92469e-09)
(0.00396074 -2.35122e-07 -3.40588e-09)
(0.0461525 3.05691e-08 -2.85839e-11)
(0.0461525 1.20977e-08 1.79637e-10)
(0.0461525 -1.25091e-08 -1.90155e-10)
(0.0461525 -2.99352e-08 -4.01834e-10)
(0.368846 1.03933e-08 -8.32865e-13)
(0.368846 4.04818e-09 4.03509e-10)
(0.368846 -4.44766e-09 8.12289e-11)
(0.368846 -1.039e-08 -4.43766e-10)
(-0.00816801 9.4537e-05 -0.00561496)
(-0.00814464 3.57965e-05 -0.00561111)
(-0.00814479 -3.61296e-05 -0.00561256)
(-0.00816777 -9.4704e-05 -0.00561758)
(-0.00101842 9.82575e-05 -0.000631013)
(-0.000999656 3.70547e-05 -0.000597731)
(-0.000999689 -3.71467e-05 -0.0005979)
(-0.00101847 -9.83099e-05 -0.000631395)
(-8.11996e-05 8.4225e-06 -3.99702e-05)
(-6.8082e-05 3.03813e-06 -3.5914e-05)
(-6.80925e-05 -3.0595e-06 -3.59259e-05)
(-8.12248e-05 -8.4318e-06 -3.99983e-05)
(8.52564e-06 4.96725e-06 -1.94172e-06)
(9.66719e-06 1.98562e-06 -1.67633e-06)
(9.66525e-06 -1.99032e-06 -1.67749e-06)
(8.5207e-06 -4.9693e-06 -1.94457e-06)
(0.000258341 4.18842e-07 -8.23019e-08)
(0.000258903 1.63893e-07 -7.07021e-08)
(0.000258903 -1.66809e-07 -7.09659e-08)
(0.000258341 -4.21168e-07 -8.2902e-08)
(0.00396074 2.35892e-07 -3.02727e-09)
(0.00396081 9.67761e-08 -2.83524e-09)
(0.00396081 -9.64928e-08 -3.07494e-09)
(0.00396074 -2.35115e-07 -3.41302e-09)
(0.0461525 3.06324e-08 -5.02147e-11)
(0.0461525 1.22877e-08 2.6125e-10)
(0.0461525 -1.25671e-08 -1.21571e-10)
(0.0461525 -2.99579e-08 -2.70206e-10)
(0.368846 1.04146e-08 -1.37028e-10)
(0.368846 4.14226e-09 5.72115e-10)
(0.368846 -4.49077e-09 8.19297e-11)
(0.368846 -1.04064e-08 -3.73209e-10)
(-0.00816801 9.45361e-05 -0.00561496)
(-0.00814464 3.57983e-05 -0.00561111)
(-0.00814478 -3.61298e-05 -0.00561256)
(-0.00816778 -9.47039e-05 -0.00561758)
(-0.00101842 9.82562e-05 -0.000631013)
(-0.000999657 3.70562e-05 -0.000597731)
(-0.000999689 -3.71471e-05 -0.0005979)
(-0.00101847 -9.83101e-05 -0.000631396)
(-8.11997e-05 8.42225e-06 -3.99706e-05)
(-6.80824e-05 3.03809e-06 -3.59139e-05)
(-6.80923e-05 -3.05938e-06 -3.59257e-05)
(-8.12249e-05 -8.43218e-06 -3.99985e-05)
(8.52511e-06 4.96728e-06 -1.94204e-06)
(9.66705e-06 1.98573e-06 -1.67682e-06)
(9.66459e-06 -1.99029e-06 -1.67756e-06)
(8.52085e-06 -4.96928e-06 -1.94388e-06)
(0.000258341 4.18907e-07 -8.24935e-08)
(0.000258903 1.63836e-07 -7.04908e-08)
(0.000258903 -1.66832e-07 -7.07081e-08)
(0.00025834 -4.21001e-07 -8.29101e-08)
(0.00396074 2.35808e-07 -3.2182e-09)
(0.00396081 9.68157e-08 -2.70029e-09)
(0.00396081 -9.64255e-08 -2.89118e-09)
(0.00396074 -2.35096e-07 -3.4674e-09)
(0.0461525 3.05002e-08 -1.89199e-10)
(0.0461525 1.23488e-08 1.34161e-10)
(0.0461525 -1.2453e-08 -1.68531e-11)
(0.0461525 -3.00359e-08 -2.65298e-10)
(0.368846 1.03478e-08 -3.49155e-10)
(0.368846 4.16086e-09 1.96588e-10)
(0.368846 -4.4617e-09 1.76363e-10)
(0.368846 -1.05062e-08 -2.90983e-10)
)
;

boundaryField
{
    movingWall
    {
        type            fixedValue;
        value           uniform (1 0 0);
    }
    CPLReceiveMD
    {
        type            fixedValue;
        value           uniform (-0.0494993 0 -0.00516445);
    }
    streamwiseIn
    {
        type            cyclic;
    }
    streamwiseOut
    {
        type            cyclic;
    }
    front
    {
        type            cyclic;
    }
    back
    {
        type            cyclic;
    }
    procBoundary0to1
    {
        type            processor;
        value           nonuniform List<vector> 
64
(
(-0.00802292 -9.45425e-05 -0.00493896)
(-0.00103615 -9.82669e-05 -0.000665059)
(-0.000100121 -8.41872e-06 -4.55459e-05)
(6.79413e-06 -4.95679e-06 -2.32641e-06)
(0.000257534 -4.22799e-07 -1.00025e-07)
(0.00396063 -2.34868e-07 -3.77756e-09)
(0.0461524 -2.99417e-08 -1.62845e-10)
(0.368846 -1.05204e-08 7.11226e-11)
(-0.00802292 -9.45418e-05 -0.00493895)
(-0.00103615 -9.82663e-05 -0.000665059)
(-0.000100121 -8.41856e-06 -4.55461e-05)
(6.79405e-06 -4.95679e-06 -2.32602e-06)
(0.000257534 -4.23046e-07 -1.00032e-07)
(0.00396063 -2.34909e-07 -3.80279e-09)
(0.0461524 -2.98547e-08 -2.88342e-10)
(0.368846 -1.04225e-08 2.44493e-11)
(-0.00802292 -9.45422e-05 -0.00493895)
(-0.00103615 -9.82669e-05 -0.000665059)
(-0.000100121 -8.4186e-06 -4.55461e-05)
(6.79362e-06 -4.95673e-06 -2.32665e-06)
(0.000257534 -4.23112e-07 -1.00128e-07)
(0.00396063 -2.35011e-07 -3.78088e-09)
(0.0461524 -2.99443e-08 -3.10821e-10)
(0.368846 -1.04298e-08 -1.97234e-11)
(-0.00802292 -9.4542e-05 -0.00493896)
(-0.00103615 -9.82666e-05 -0.00066506)
(-0.000100121 -8.4185e-06 -4.55461e-05)
(6.7935e-06 -4.95677e-06 -2.32709e-06)
(0.000257534 -4.2312e-07 -1.00275e-07)
(0.00396063 -2.35032e-07 -3.76528e-09)
(0.0461524 -2.99813e-08 -1.31271e-10)
(0.368846 -1.04006e-08 2.32178e-10)
(-0.00802292 -9.45421e-05 -0.00493896)
(-0.00103615 -9.82666e-05 -0.000665059)
(-0.000100121 -8.41863e-06 -4.55461e-05)
(6.79351e-06 -4.95676e-06 -2.32736e-06)
(0.000257534 -4.23018e-07 -1.00198e-07)
(0.00396063 -2.35009e-07 -3.71166e-09)
(0.0461524 -2.99711e-08 -2.0236e-12)
(0.368846 -1.03797e-08 6.79446e-11)
(-0.00802292 -9.45418e-05 -0.00493895)
(-0.00103615 -9.82664e-05 -0.00066506)
(-0.000100121 -8.41874e-06 -4.55462e-05)
(6.79368e-06 -4.95679e-06 -2.32752e-06)
(0.000257534 -4.22904e-07 -1.00274e-07)
(0.00396063 -2.35001e-07 -3.77957e-09)
(0.0461524 -2.99651e-08 4.25613e-11)
(0.368846 -1.04093e-08 2.57531e-11)
(-0.00802292 -9.45424e-05 -0.00493895)
(-0.00103615 -9.82669e-05 -0.00066506)
(-0.000100121 -8.41878e-06 -4.55466e-05)
(6.79387e-06 -4.95677e-06 -2.32719e-06)
(0.000257535 -4.22769e-07 -1.0065e-07)
(0.00396063 -2.34928e-07 -4.07599e-09)
(0.0461524 -2.98953e-08 -5.52787e-11)
(0.368846 -1.04075e-08 -1.35531e-10)
(-0.00802292 -9.45424e-05 -0.00493895)
(-0.00103615 -9.82667e-05 -0.00066506)
(-0.000100121 -8.41863e-06 -4.55463e-05)
(6.79433e-06 -4.95678e-06 -2.32698e-06)
(0.000257534 -4.22887e-07 -1.0042e-07)
(0.00396063 -2.34815e-07 -3.99844e-09)
(0.0461524 -2.98582e-08 -1.53917e-10)
(0.368846 -1.04431e-08 -2.98567e-10)
)
;
    }
    procBoundary0to1throughstreamwiseIn
    {
        type            processorCyclic;
        value           nonuniform List<vector> 
64
(
(-0.00802315 9.47028e-05 -0.00493633)
(-0.0010361 9.83238e-05 -0.000664668)
(-0.000100096 8.42939e-06 -4.55174e-05)
(6.79837e-06 4.95907e-06 -2.32618e-06)
(0.000257535 4.21441e-07 -1.00341e-07)
(0.00396063 2.35753e-07 -3.81586e-09)
(0.0461524 3.06464e-08 -1.12132e-10)
(0.368846 1.0224e-08 5.19889e-11)
(-0.00802314 9.47041e-05 -0.00493633)
(-0.0010361 9.83252e-05 -0.000664669)
(-0.000100096 8.42926e-06 -4.55176e-05)
(6.79788e-06 4.95898e-06 -2.3262e-06)
(0.000257535 4.21488e-07 -1.00528e-07)
(0.00396063 2.35883e-07 -3.95141e-09)
(0.0461524 3.07449e-08 8.72887e-11)
(0.368846 1.02781e-08 4.54149e-10)
(-0.00802315 9.47032e-05 -0.00493633)
(-0.0010361 9.83244e-05 -0.000664669)
(-0.000100096 8.42907e-06 -4.55176e-05)
(6.79782e-06 4.95891e-06 -2.32601e-06)
(0.000257535 4.2173e-07 -1.00153e-07)
(0.00396063 2.35966e-07 -3.73427e-09)
(0.0461524 3.09147e-08 2.02708e-10)
(0.368846 1.04075e-08 6.02682e-10)
(-0.00802315 9.47033e-05 -0.00493633)
(-0.0010361 9.83248e-05 -0.000664669)
(-0.000100096 8.42931e-06 -4.55179e-05)
(6.79786e-06 4.95892e-06 -2.3253e-06)
(0.000257536 4.21786e-07 -1.00089e-07)
(0.00396063 2.36e-07 -3.78083e-09)
(0.0461524 3.09969e-08 9.20849e-11)
(0.368846 1.0463e-08 2.60106e-10)
(-0.00802315 9.47032e-05 -0.00493633)
(-0.0010361 9.83246e-05 -0.000664669)
(-0.000100096 8.42932e-06 -4.5518e-05)
(6.79801e-06 4.95901e-06 -2.32484e-06)
(0.000257535 4.21747e-07 -1.00188e-07)
(0.00396063 2.36017e-07 -3.90082e-09)
(0.0461524 3.10407e-08 -1.95518e-10)
(0.368846 1.04752e-08 -2.28662e-10)
(-0.00802315 9.47036e-05 -0.00493633)
(-0.0010361 9.83249e-05 -0.000664668)
(-0.000100096 8.4294e-06 -4.55179e-05)
(6.79822e-06 4.95899e-06 -2.32456e-06)
(0.000257535 4.21585e-07 -1.00121e-07)
(0.00396063 2.3598e-07 -3.87352e-09)
(0.0461524 3.0956e-08 -3.94197e-10)
(0.368846 1.03892e-08 -4.14678e-10)
(-0.00802315 9.47029e-05 -0.00493633)
(-0.0010361 9.8324e-05 -0.000664668)
(-0.000100096 8.42942e-06 -4.55181e-05)
(6.79853e-06 4.95907e-06 -2.32422e-06)
(0.000257535 4.21453e-07 -1.0006e-07)
(0.00396063 2.35894e-07 -3.88921e-09)
(0.0461524 3.08631e-08 -4.26577e-10)
(0.368846 1.03625e-08 -4.42274e-10)
(-0.00802314 9.47042e-05 -0.00493633)
(-0.0010361 9.83253e-05 -0.000664668)
(-0.000100096 8.42969e-06 -4.55176e-05)
(6.79832e-06 4.95915e-06 -2.32518e-06)
(0.000257535 4.21159e-07 -1.00003e-07)
(0.00396063 2.3582e-07 -3.7344e-09)
(0.0461524 3.0771e-08 -3.16695e-10)
(0.368846 1.02755e-08 -3.15843e-10)
)
;
    }
}


// ************************************************************************* //
