/*--------------------------------*- C++ -*----------------------------------*\
| =========                 |                                                 |
| \\      /  F ield         | OpenFOAM: The Open Source CFD Toolbox           |
|  \\    /   O peration     | Version:  2306                                  |
|   \\  /    A nd           | Website:  www.openfoam.com                      |
|    \\/     M anipulation  |                                                 |
\*---------------------------------------------------------------------------*/
FoamFile
{
    version     2.0;
    format      ascii;
    arch        "LSB;label=32;scalar=64";
    class       volVectorField;
    location    "5";
    object      U_0;
}
// * * * * * * * * * * * * * * * * * * * * * * * * * * * * * * * * * * * * * //

dimensions      [0 1 -1 0 0 0 0];

internalField   nonuniform List<vector> 
256
(
(-0.00792218 7.50493e-05 -0.00570996)
(-0.00794094 2.98093e-05 -0.00567915)
(-0.00794112 -3.01116e-05 -0.00568069)
(-0.00792195 -7.52064e-05 -0.00571292)
(-0.00099481 7.39426e-05 -0.000607326)
(-0.000986145 2.91719e-05 -0.000572539)
(-0.000986175 -2.92558e-05 -0.000572708)
(-0.000994855 -7.39925e-05 -0.000607709)
(-7.78419e-05 2.99565e-06 -3.70354e-05)
(-6.62245e-05 8.99387e-07 -3.30192e-05)
(-6.62354e-05 -9.16332e-07 -3.30306e-05)
(-7.78669e-05 -3.00308e-06 -3.70627e-05)
(7.62479e-06 4.29304e-06 -1.75309e-06)
(8.57731e-06 1.69903e-06 -1.50066e-06)
(8.57596e-06 -1.70486e-06 -1.50131e-06)
(7.62172e-06 -4.29601e-06 -1.75467e-06)
(0.000240489 3.39584e-07 -7.32675e-08)
(0.000241022 1.3096e-07 -6.25615e-08)
(0.000241022 -1.31748e-07 -6.25724e-08)
(0.000240488 -3.39853e-07 -7.32745e-08)
(0.00376 2.23908e-07 -2.92332e-09)
(0.00376008 9.21678e-08 -2.66994e-09)
(0.00376008 -9.05731e-08 -2.53596e-09)
(0.00376 -2.22013e-07 -2.77871e-09)
(0.0446746 2.90254e-08 -2.16937e-10)
(0.0446746 1.12024e-08 -2.82466e-10)
(0.0446746 -1.32346e-08 -4.6759e-11)
(0.0446746 -3.05119e-08 -1.56219e-10)
(0.363839 9.28488e-09 1.81689e-10)
(0.363839 3.12015e-09 -1.21453e-10)
(0.363839 -5.50178e-09 1.14275e-10)
(0.363839 -1.14737e-08 1.34738e-10)
(-0.00792217 7.505e-05 -0.00570996)
(-0.00794095 2.98088e-05 -0.00567915)
(-0.00794112 -3.0109e-05 -0.00568069)
(-0.00792195 -7.52076e-05 -0.00571292)
(-0.00099481 7.39433e-05 -0.000607326)
(-0.000986145 2.9171e-05 -0.000572539)
(-0.000986176 -2.92532e-05 -0.000572707)
(-0.000994855 -7.39938e-05 -0.000607709)
(-7.78418e-05 2.99571e-06 -3.70356e-05)
(-6.62248e-05 8.99396e-07 -3.30197e-05)
(-6.62351e-05 -9.16309e-07 -3.30312e-05)
(-7.7867e-05 -3.00296e-06 -3.70627e-05)
(7.62481e-06 4.29296e-06 -1.7531e-06)
(8.57727e-06 1.69914e-06 -1.5006e-06)
(8.57576e-06 -1.70468e-06 -1.50131e-06)
(7.62172e-06 -4.29611e-06 -1.75481e-06)
(0.000240489 3.39504e-07 -7.34345e-08)
(0.000241022 1.30917e-07 -6.22772e-08)
(0.000241021 -1.317e-07 -6.22202e-08)
(0.000240489 -3.39847e-07 -7.34129e-08)
(0.00376001 2.23909e-07 -3.09054e-09)
(0.00376008 9.20665e-08 -2.59726e-09)
(0.00376008 -9.05924e-08 -2.38365e-09)
(0.00376001 -2.21975e-07 -2.8557e-09)
(0.0446746 2.92114e-08 -3.99931e-10)
(0.0446746 1.12399e-08 -5.41506e-10)
(0.0446746 -1.31461e-08 -6.41562e-11)
(0.0446746 -3.04151e-08 -4.58621e-11)
(0.363839 9.46506e-09 1.86234e-10)
(0.363839 3.21029e-09 -2.81142e-10)
(0.363839 -5.38151e-09 2.25997e-10)
(0.363839 -1.13633e-08 5.65981e-10)
(-0.00792218 7.50506e-05 -0.00570996)
(-0.00794095 2.98104e-05 -0.00567915)
(-0.00794112 -3.0109e-05 -0.00568068)
(-0.00792195 -7.52057e-05 -0.00571292)
(-0.000994811 7.39435e-05 -0.000607326)
(-0.000986145 2.91723e-05 -0.000572538)
(-0.000986176 -2.92537e-05 -0.000572707)
(-0.000994855 -7.39922e-05 -0.000607709)
(-7.7842e-05 2.99561e-06 -3.70358e-05)
(-6.62248e-05 8.99461e-07 -3.30198e-05)
(-6.62352e-05 -9.16285e-07 -3.3031e-05)
(-7.78669e-05 -3.00296e-06 -3.70629e-05)
(7.62481e-06 4.29309e-06 -1.75315e-06)
(8.57721e-06 1.69927e-06 -1.5007e-06)
(8.57569e-06 -1.70456e-06 -1.50132e-06)
(7.62164e-06 -4.29593e-06 -1.75471e-06)
(0.000240489 3.39467e-07 -7.32953e-08)
(0.000241022 1.30888e-07 -6.24206e-08)
(0.000241022 -1.31694e-07 -6.23874e-08)
(0.000240489 -3.39788e-07 -7.32253e-08)
(0.00376001 2.23801e-07 -2.93089e-09)
(0.00376008 9.1921e-08 -2.61689e-09)
(0.00376008 -9.06627e-08 -2.51398e-09)
(0.00376001 -2.22009e-07 -2.72108e-09)
(0.0446746 2.91882e-08 -3.63862e-10)
(0.0446746 1.11831e-08 -5.84639e-10)
(0.0446746 -1.30752e-08 -2.89393e-10)
(0.0446746 -3.02347e-08 1.29597e-10)
(0.363839 9.51081e-09 4.6082e-11)
(0.363839 3.25048e-09 -3.54697e-10)
(0.363839 -5.2738e-09 -2.93841e-10)
(0.363839 -1.11746e-08 6.88504e-10)
(-0.00792218 7.50507e-05 -0.00570996)
(-0.00794095 2.98107e-05 -0.00567915)
(-0.00794112 -3.01079e-05 -0.00568069)
(-0.00792195 -7.52058e-05 -0.00571292)
(-0.00099481 7.39435e-05 -0.000607326)
(-0.000986145 2.91723e-05 -0.000572538)
(-0.000986176 -2.92528e-05 -0.000572707)
(-0.000994855 -7.39924e-05 -0.000607709)
(-7.78421e-05 2.99558e-06 -3.70357e-05)
(-6.62249e-05 8.99334e-07 -3.30196e-05)
(-6.6235e-05 -9.16377e-07 -3.30309e-05)
(-7.78667e-05 -3.003e-06 -3.70627e-05)
(7.62481e-06 4.29315e-06 -1.75319e-06)
(8.57721e-06 1.69934e-06 -1.50073e-06)
(8.5757e-06 -1.70449e-06 -1.50132e-06)
(7.62165e-06 -4.29589e-06 -1.75465e-06)
(0.00024049 3.39463e-07 -7.34011e-08)
(0.000241022 1.30876e-07 -6.25202e-08)
(0.000241022 -1.31692e-07 -6.2517e-08)
(0.000240489 -3.39771e-07 -7.34113e-08)
(0.00376001 2.23758e-07 -2.82565e-09)
(0.00376008 9.18511e-08 -2.52543e-09)
(0.00376008 -9.07019e-08 -2.49612e-09)
(0.00376001 -2.21975e-07 -2.7837e-09)
(0.0446746 2.91642e-08 -1.16328e-10)
(0.0446746 1.10989e-08 -2.98277e-10)
(0.0446746 -1.3121e-08 -1.99892e-10)
(0.0446746 -3.01372e-08 1.11042e-10)
(0.363839 9.55512e-09 2.45826e-10)
(0.363839 3.20422e-09 -1.92182e-10)
(0.363839 -5.32209e-09 -3.17394e-10)
(0.363839 -1.11002e-08 2.94064e-10)
(-0.00792218 7.50509e-05 -0.00570996)
(-0.00794095 2.98108e-05 -0.00567915)
(-0.00794112 -3.0108e-05 -0.00568069)
(-0.00792195 -7.52056e-05 -0.00571292)
(-0.00099481 7.39436e-05 -0.000607326)
(-0.000986145 2.91723e-05 -0.000572539)
(-0.000986176 -2.9253e-05 -0.000572708)
(-0.000994855 -7.39923e-05 -0.000607709)
(-7.78421e-05 2.99557e-06 -3.70355e-05)
(-6.62248e-05 8.99324e-07 -3.30193e-05)
(-6.62351e-05 -9.16321e-07 -3.30308e-05)
(-7.78666e-05 -3.00306e-06 -3.70627e-05)
(7.6248e-06 4.29319e-06 -1.75316e-06)
(8.57719e-06 1.69936e-06 -1.50072e-06)
(8.57572e-06 -1.70446e-06 -1.5013e-06)
(7.62166e-06 -4.29586e-06 -1.75463e-06)
(0.00024049 3.39478e-07 -7.34209e-08)
(0.000241022 1.30889e-07 -6.25441e-08)
(0.000241022 -1.31679e-07 -6.25944e-08)
(0.000240489 -3.3976e-07 -7.35167e-08)
(0.00376001 2.23784e-07 -2.76154e-09)
(0.00376008 9.18446e-08 -2.44802e-09)
(0.00376008 -9.07006e-08 -2.50843e-09)
(0.00376001 -2.21949e-07 -2.86116e-09)
(0.0446746 2.91869e-08 5.55553e-11)
(0.0446746 1.10552e-08 -1.97826e-11)
(0.0446746 -1.31186e-08 -1.09041e-10)
(0.0446746 -3.00983e-08 -1.46267e-10)
(0.363839 9.57792e-09 5.76787e-11)
(0.363839 3.181e-09 -1.86412e-11)
(0.363839 -5.33201e-09 2.13108e-10)
(0.363839 -1.10865e-08 -2.52548e-10)
(-0.00792218 7.50506e-05 -0.00570996)
(-0.00794095 2.98107e-05 -0.00567915)
(-0.00794112 -3.01079e-05 -0.00568068)
(-0.00792195 -7.52057e-05 -0.00571292)
(-0.00099481 7.39434e-05 -0.000607327)
(-0.000986145 2.91723e-05 -0.000572539)
(-0.000986176 -2.92528e-05 -0.000572708)
(-0.000994855 -7.39924e-05 -0.000607709)
(-7.78422e-05 2.99556e-06 -3.70352e-05)
(-6.62249e-05 8.99349e-07 -3.30191e-05)
(-6.62351e-05 -9.16298e-07 -3.30305e-05)
(-7.78666e-05 -3.00305e-06 -3.70625e-05)
(7.62477e-06 4.29315e-06 -1.75318e-06)
(8.57717e-06 1.69932e-06 -1.50072e-06)
(8.57572e-06 -1.70449e-06 -1.50124e-06)
(7.62167e-06 -4.29587e-06 -1.75456e-06)
(0.00024049 3.39486e-07 -7.34084e-08)
(0.000241022 1.30899e-07 -6.25356e-08)
(0.000241022 -1.31691e-07 -6.26181e-08)
(0.000240489 -3.39776e-07 -7.35484e-08)
(0.00376001 2.2382e-07 -2.68944e-09)
(0.00376008 9.18839e-08 -2.38587e-09)
(0.00376008 -9.0692e-08 -2.51295e-09)
(0.00376001 -2.21973e-07 -2.88406e-09)
(0.0446746 2.91899e-08 1.38926e-10)
(0.0446746 1.10354e-08 2.70521e-10)
(0.0446746 -1.31003e-08 -1.19535e-10)
(0.0446746 -3.02083e-08 -2.88604e-10)
(0.363839 9.53107e-09 -6.35542e-11)
(0.363839 3.15688e-09 3.32159e-10)
(0.363839 -5.30198e-09 -8.08424e-12)
(0.363839 -1.11925e-08 -5.23117e-10)
(-0.00792218 7.50505e-05 -0.00570996)
(-0.00794095 2.98104e-05 -0.00567915)
(-0.00794112 -3.0109e-05 -0.00568069)
(-0.00792195 -7.52055e-05 -0.00571291)
(-0.000994811 7.39435e-05 -0.000607327)
(-0.000986145 2.91723e-05 -0.000572539)
(-0.000986175 -2.92537e-05 -0.000572708)
(-0.000994855 -7.39921e-05 -0.000607709)
(-7.78421e-05 2.99567e-06 -3.7035e-05)
(-6.62249e-05 8.99474e-07 -3.3019e-05)
(-6.62352e-05 -9.16319e-07 -3.30303e-05)
(-7.78667e-05 -3.00299e-06 -3.70621e-05)
(7.62477e-06 4.29311e-06 -1.75332e-06)
(8.57722e-06 1.69926e-06 -1.50069e-06)
(8.57581e-06 -1.70456e-06 -1.50119e-06)
(7.62166e-06 -4.29592e-06 -1.75452e-06)
(0.00024049 3.39535e-07 -7.36746e-08)
(0.000241022 1.30937e-07 -6.25242e-08)
(0.000241022 -1.31705e-07 -6.25857e-08)
(0.000240488 -3.39801e-07 -7.38681e-08)
(0.00376001 2.23878e-07 -2.76771e-09)
(0.00376008 9.19826e-08 -2.23837e-09)
(0.00376008 -9.06942e-08 -2.41684e-09)
(0.00376001 -2.21991e-07 -3.02761e-09)
(0.0446746 2.91894e-08 1.17451e-10)
(0.0446746 1.11573e-08 5.13976e-10)
(0.0446746 -1.32279e-08 7.24389e-11)
(0.0446746 -3.03213e-08 -2.34499e-10)
(0.363839 9.48141e-09 -2.98374e-10)
(0.363839 3.19223e-09 4.82484e-10)
(0.363839 -5.3997e-09 -4.5832e-11)
(0.363839 -1.1275e-08 -5.83571e-10)
(-0.00792217 7.50498e-05 -0.00570996)
(-0.00794095 2.98087e-05 -0.00567915)
(-0.00794112 -3.01088e-05 -0.00568068)
(-0.00792195 -7.52075e-05 -0.00571292)
(-0.00099481 7.39433e-05 -0.000607326)
(-0.000986144 2.91709e-05 -0.000572539)
(-0.000986176 -2.92531e-05 -0.000572708)
(-0.000994855 -7.39938e-05 -0.000607709)
(-7.78419e-05 2.99579e-06 -3.70352e-05)
(-6.62249e-05 8.99372e-07 -3.30189e-05)
(-6.62349e-05 -9.1635e-07 -3.30301e-05)
(-7.78669e-05 -3.00297e-06 -3.70624e-05)
(7.62481e-06 4.2929e-06 -1.75324e-06)
(8.57738e-06 1.69918e-06 -1.50073e-06)
(8.57582e-06 -1.70465e-06 -1.50125e-06)
(7.62178e-06 -4.29622e-06 -1.75451e-06)
(0.000240489 3.39564e-07 -7.34143e-08)
(0.000241022 1.30992e-07 -6.27173e-08)
(0.000241021 -1.31698e-07 -6.27846e-08)
(0.000240488 -3.39886e-07 -7.3512e-08)
(0.00376 2.24005e-07 -2.77783e-09)
(0.00376008 9.21106e-08 -2.46466e-09)
(0.00376008 -9.0626e-08 -2.58248e-09)
(0.00376 -2.2188e-07 -2.86509e-09)
(0.0446746 2.91126e-08 -3.04605e-11)
(0.0446746 1.11449e-08 1.9635e-10)
(0.0446746 -1.32249e-08 1.08299e-11)
(0.0446746 -3.04056e-08 -1.83963e-10)
(0.363839 9.35648e-09 -3.81431e-10)
(0.363839 3.11932e-09 1.28857e-10)
(0.363839 -5.45382e-09 8.71906e-11)
(0.363839 -1.14294e-08 -3.49805e-10)
)
;

boundaryField
{
    movingWall
    {
        type            fixedValue;
        value           uniform (1 0 0);
    }
    CPLReceiveMD
    {
        type            fixedValue;
        value           uniform (-0.0106025 0 0.0113512);
    }
    streamwiseIn
    {
        type            cyclic;
    }
    streamwiseOut
    {
        type            cyclic;
    }
    front
    {
        type            cyclic;
    }
    back
    {
        type            cyclic;
    }
    procBoundary0to1
    {
        type            processor;
        value           nonuniform List<vector> 
64
(
(-0.00790523 -7.50602e-05 -0.00496057)
(-0.000995653 -7.39558e-05 -0.000645348)
(-9.4731e-05 -2.99056e-06 -4.25942e-05)
(6.15082e-06 -4.28236e-06 -2.12128e-06)
(0.000239723 -3.42209e-07 -8.96142e-08)
(0.0037599 -2.21603e-07 -3.40736e-09)
(0.0446745 -3.02313e-08 -2.06315e-10)
(0.363839 -1.13349e-08 1.69502e-10)
(-0.00790523 -7.50591e-05 -0.00496057)
(-0.000995654 -7.39548e-05 -0.000645348)
(-9.47312e-05 -2.99057e-06 -4.25946e-05)
(6.15082e-06 -4.28208e-06 -2.1213e-06)
(0.000239723 -3.42132e-07 -8.92765e-08)
(0.0037599 -2.21746e-07 -3.27255e-09)
(0.0446745 -3.01721e-08 -2.98672e-10)
(0.363839 -1.11973e-08 2.13538e-10)
(-0.00790523 -7.50592e-05 -0.00496057)
(-0.000995653 -7.39549e-05 -0.000645348)
(-9.4731e-05 -2.9906e-06 -4.25943e-05)
(6.15083e-06 -4.28206e-06 -2.12129e-06)
(0.000239723 -3.42122e-07 -8.96278e-08)
(0.0037599 -2.21821e-07 -3.49194e-09)
(0.0446745 -3.01944e-08 -3.96673e-10)
(0.363839 -1.11554e-08 3.29606e-11)
(-0.00790523 -7.50589e-05 -0.00496057)
(-0.000995654 -7.39547e-05 -0.000645348)
(-9.47309e-05 -2.99067e-06 -4.25942e-05)
(6.15083e-06 -4.28205e-06 -2.1212e-06)
(0.000239723 -3.42132e-07 -8.96456e-08)
(0.0037599 -2.21876e-07 -3.38142e-09)
(0.0446745 -3.02162e-08 -1.41639e-10)
(0.363839 -1.11099e-08 2.43062e-10)
(-0.00790523 -7.50589e-05 -0.00496057)
(-0.000995654 -7.39548e-05 -0.000645348)
(-9.47309e-05 -2.9907e-06 -4.25942e-05)
(6.15084e-06 -4.28206e-06 -2.12118e-06)
(0.000239723 -3.42115e-07 -8.97252e-08)
(0.0037599 -2.21846e-07 -3.31968e-09)
(0.0446745 -3.01889e-08 3.19566e-11)
(0.363839 -1.10857e-08 5.20718e-11)
(-0.00790523 -7.50588e-05 -0.00496057)
(-0.000995654 -7.39547e-05 -0.000645348)
(-9.47308e-05 -2.99068e-06 -4.25942e-05)
(6.15087e-06 -4.28207e-06 -2.12112e-06)
(0.000239723 -3.4211e-07 -8.98999e-08)
(0.0037599 -2.21798e-07 -3.39841e-09)
(0.0446745 -3.01837e-08 6.83373e-11)
(0.363839 -1.11316e-08 -7.76161e-11)
(-0.00790523 -7.5059e-05 -0.00496057)
(-0.000995653 -7.39549e-05 -0.000645348)
(-9.47308e-05 -2.99069e-06 -4.25942e-05)
(6.15085e-06 -4.28218e-06 -2.12095e-06)
(0.000239723 -3.42144e-07 -8.96978e-08)
(0.0037599 -2.21684e-07 -3.29276e-09)
(0.0446745 -3.01284e-08 1.10596e-10)
(0.363839 -1.11648e-08 -2.68358e-10)
(-0.00790523 -7.50588e-05 -0.00496057)
(-0.000995653 -7.39547e-05 -0.000645348)
(-9.47311e-05 -2.99066e-06 -4.25939e-05)
(6.15082e-06 -4.28211e-06 -2.12108e-06)
(0.000239723 -3.4216e-07 -8.9843e-08)
(0.0037599 -2.21695e-07 -3.45936e-09)
(0.0446745 -3.02585e-08 -8.84611e-11)
(0.363839 -1.12949e-08 -3.92807e-10)
)
;
    }
    procBoundary0to1throughstreamwiseIn
    {
        type            processorCyclic;
        value           nonuniform List<vector> 
64
(
(-0.00790545 7.52023e-05 -0.00495761)
(-0.000995606 7.40084e-05 -0.000644957)
(-9.47061e-05 3.00094e-06 -4.25664e-05)
(6.15323e-06 4.28304e-06 -2.11964e-06)
(0.000239724 3.42303e-07 -8.95594e-08)
(0.0037599 2.23997e-07 -3.46962e-09)
(0.0446745 2.93455e-08 -2.22607e-10)
(0.363839 9.35088e-09 1.27539e-10)
(-0.00790546 7.52027e-05 -0.00495761)
(-0.000995607 7.40086e-05 -0.000644956)
(-9.4706e-05 3.00094e-06 -4.25667e-05)
(6.15328e-06 4.28324e-06 -2.11959e-06)
(0.000239724 3.42306e-07 -8.93068e-08)
(0.0037599 2.23884e-07 -3.36498e-09)
(0.0446745 2.93847e-08 -5.81133e-11)
(0.363839 9.45534e-09 5.80273e-10)
(-0.00790546 7.52029e-05 -0.00495761)
(-0.000995606 7.40087e-05 -0.000644956)
(-9.47061e-05 3.0009e-06 -4.25666e-05)
(6.15338e-06 4.28325e-06 -2.11968e-06)
(0.000239724 3.42277e-07 -8.96179e-08)
(0.0037599 2.23911e-07 -3.40834e-09)
(0.0446745 2.9618e-08 6.67649e-11)
(0.363839 9.65782e-09 6.74596e-10)
(-0.00790546 7.52034e-05 -0.00495761)
(-0.000995606 7.40089e-05 -0.000644957)
(-9.47063e-05 3.00082e-06 -4.25666e-05)
(6.15338e-06 4.2833e-06 -2.1197e-06)
(0.000239724 3.42297e-07 -8.96144e-08)
(0.0037599 2.23961e-07 -3.31975e-09)
(0.0446745 2.97126e-08 8.97612e-11)
(0.363839 9.73096e-09 2.88207e-10)
(-0.00790546 7.52033e-05 -0.00495761)
(-0.000995606 7.40088e-05 -0.000644957)
(-9.47064e-05 3.00084e-06 -4.25664e-05)
(6.15337e-06 4.2833e-06 -2.11965e-06)
(0.000239724 3.42307e-07 -8.96672e-08)
(0.0037599 2.23993e-07 -3.39916e-09)
(0.0446745 2.97537e-08 -1.69974e-10)
(0.363839 9.74633e-09 -2.53431e-10)
(-0.00790546 7.52033e-05 -0.00495761)
(-0.000995606 7.40089e-05 -0.000644957)
(-9.47063e-05 3.00086e-06 -4.25663e-05)
(6.15335e-06 4.28325e-06 -2.11967e-06)
(0.000239724 3.42281e-07 -8.97811e-08)
(0.0037599 2.23964e-07 -3.45594e-09)
(0.0446745 2.96467e-08 -3.23534e-10)
(0.363839 9.64366e-09 -5.34465e-10)
(-0.00790546 7.52027e-05 -0.00495761)
(-0.000995606 7.40085e-05 -0.000644957)
(-9.47063e-05 3.00091e-06 -4.25664e-05)
(6.15332e-06 4.28315e-06 -2.11972e-06)
(0.000239724 3.42276e-07 -8.95842e-08)
(0.0037599 2.2398e-07 -3.22913e-09)
(0.0446745 2.95487e-08 -1.35014e-10)
(0.363839 9.56684e-09 -5.62574e-10)
(-0.00790546 7.52026e-05 -0.00495761)
(-0.000995607 7.40087e-05 -0.000644957)
(-9.47061e-05 3.00095e-06 -4.25663e-05)
(6.15319e-06 4.28323e-06 -2.11974e-06)
(0.000239724 3.42353e-07 -8.97263e-08)
(0.0037599 2.23946e-07 -3.36559e-09)
(0.0446745 2.93465e-08 -1.68943e-10)
(0.363839 9.38469e-09 -3.47885e-10)
)
;
    }
}


// ************************************************************************* //
