/*--------------------------------*- C++ -*----------------------------------*\
| =========                 |                                                 |
| \\      /  F ield         | OpenFOAM: The Open Source CFD Toolbox           |
|  \\    /   O peration     | Version:  2306                                  |
|   \\  /    A nd           | Website:  www.openfoam.com                      |
|    \\/     M anipulation  |                                                 |
\*---------------------------------------------------------------------------*/
FoamFile
{
    version     2.0;
    format      ascii;
    arch        "LSB;label=32;scalar=64";
    class       volScalarField;
    location    "2";
    object      p;
}
// * * * * * * * * * * * * * * * * * * * * * * * * * * * * * * * * * * * * * //

dimensions      [0 2 -2 0 0 0 0];

internalField   nonuniform List<scalar> 
256
(
-0.000574839
-5.39509e-07
0.000558628
0.00113315
8.18378e-05
0.000198674
0.000359528
0.000476713
0.000275453
0.00027658
0.000282209
0.000283381
0.000277142
0.000278379
0.000280509
0.000281751
0.00028063
0.000279914
0.000278954
0.000278244
0.000279579
0.000279471
0.000279322
0.000279214
0.000279498
0.000279443
0.000279366
0.000279312
0.000279495
0.000279469
0.000279434
0.000279412
-0.000574833
-5.16847e-07
0.000558641
0.00113317
8.18649e-05
0.0001987
0.00035954
0.000476714
0.000275475
0.000276599
0.000282216
0.000283377
0.000277172
0.000278391
0.000280495
0.000281718
0.000280637
0.000279912
0.000278941
0.000278223
0.000279578
0.000279469
0.00027932
0.000279212
0.000279497
0.000279444
0.000279369
0.000279317
0.000279492
0.000279469
0.000279435
0.000279412
-0.000574783
-4.93447e-07
0.000558669
0.00113319
8.18968e-05
0.000198732
0.000359559
0.000476707
0.000275496
0.000276613
0.000282218
0.000283368
0.000277197
0.000278398
0.000280477
0.000281685
0.000280645
0.000279913
0.000278931
0.000278205
0.00027958
0.000279471
0.000279321
0.000279212
0.000279497
0.000279445
0.000279372
0.000279321
0.000279488
0.000279468
0.000279435
0.000279412
-0.000574761
-4.73641e-07
0.000558682
0.0011332
8.19137e-05
0.000198748
0.000359565
0.000476694
0.000275504
0.000276613
0.000282212
0.000283358
0.000277205
0.000278395
0.000280465
0.00028167
0.000280648
0.000279913
0.000278928
0.000278199
0.000279583
0.000279474
0.000279323
0.000279213
0.000279498
0.000279445
0.000279373
0.000279323
0.000279485
0.000279464
0.000279432
0.00027941
-0.00057476
-4.79918e-07
0.000558673
0.00113319
8.19124e-05
0.000198738
0.000359548
0.000476682
0.0002755
0.000276601
0.000282199
0.000283351
0.000277194
0.000278386
0.000280464
0.000281678
0.000280647
0.000279914
0.000278931
0.000278204
0.000279586
0.000279477
0.000279325
0.000279213
0.000279499
0.000279445
0.000279373
0.000279323
0.000279485
0.000279462
0.000279429
0.000279409
-0.000574769
-5.02795e-07
0.000558649
0.00113318
8.18945e-05
0.000198711
0.000359529
0.000476679
0.000275484
0.000276584
0.000282188
0.000283352
0.000277171
0.000278376
0.000280474
0.000281703
0.000280643
0.000279918
0.000278942
0.000278219
0.000279589
0.00027948
0.000279327
0.000279214
0.000279501
0.000279446
0.000279372
0.000279321
0.000279488
0.000279463
0.00027943
0.000279411
-0.000574785
-5.18412e-07
0.000558631
0.00113316
8.18634e-05
0.000198685
0.00035952
0.00047669
0.000275462
0.00027657
0.000282189
0.000283363
0.000277146
0.000278369
0.000280491
0.000281736
0.000280636
0.000279921
0.000278956
0.000278237
0.000279588
0.000279482
0.000279329
0.000279215
0.000279502
0.000279447
0.000279371
0.000279317
0.000279495
0.000279468
0.000279433
0.000279414
-0.000574825
-5.26678e-07
0.000558626
0.00113315
8.18386e-05
0.000198671
0.000359521
0.000476704
0.000275447
0.000276568
0.000282198
0.000283376
0.000277132
0.00027837
0.000280507
0.000281759
0.000280629
0.00027992
0.000278962
0.000278249
0.000279583
0.000279478
0.000279327
0.000279214
0.000279501
0.000279446
0.000279368
0.000279313
0.000279498
0.000279471
0.000279435
0.000279414
)
;

boundaryField
{
    movingWall
    {
        type            zeroGradient;
    }
    CPLReceiveMD
    {
        type            zeroGradient;
    }
    streamwiseIn
    {
        type            cyclic;
    }
    streamwiseOut
    {
        type            cyclic;
    }
    front
    {
        type            cyclic;
    }
    back
    {
        type            cyclic;
    }
    procBoundary1to0
    {
        type            processor;
        value           nonuniform List<scalar> 
64
(
-0.000574346
8.20337e-05
0.000275268
0.000277137
0.000280628
0.000279578
0.0002795
0.000279497
-0.000574332
8.20521e-05
0.000275283
0.000277164
0.00028064
0.00027958
0.0002795
0.000279494
-0.000574269
8.20767e-05
0.000275302
0.000277192
0.000280649
0.000279582
0.000279499
0.00027949
-0.000574224
8.20923e-05
0.000275316
0.000277205
0.000280651
0.000279583
0.000279499
0.000279486
-0.000574213
8.20946e-05
0.000275321
0.000277199
0.000280647
0.000279585
0.0002795
0.000279485
-0.000574214
8.20856e-05
0.000275312
0.000277178
0.00028064
0.000279584
0.000279501
0.000279488
-0.000574254
8.20662e-05
0.000275292
0.000277149
0.00028063
0.000279582
0.000279502
0.000279495
-0.000574315
8.2044e-05
0.000275271
0.00027713
0.000280625
0.000279579
0.000279501
0.0002795
)
;
    }
    procBoundary1to0throughstreamwiseOut
    {
        type            processorCyclic;
        value           nonuniform List<scalar> 
64
(
0.00113333
0.000477009
0.000283631
0.000281765
0.000278245
0.000279213
0.000279314
0.000279416
0.00113337
0.000477003
0.000283619
0.00028173
0.000278229
0.000279216
0.00027932
0.000279417
0.0011334
0.000476983
0.00028361
0.000281699
0.000278212
0.000279215
0.000279324
0.000279416
0.00113341
0.000476965
0.000283604
0.00028169
0.000278205
0.000279214
0.000279325
0.000279415
0.00113341
0.000476954
0.000283606
0.000281702
0.000278209
0.000279213
0.000279325
0.000279415
0.0011334
0.000476959
0.000283614
0.000281729
0.00027822
0.000279211
0.000279322
0.000279416
0.00113338
0.000476983
0.000283626
0.00028176
0.000278236
0.00027921
0.000279318
0.000279419
0.00113335
0.000477005
0.000283634
0.000281776
0.000278249
0.000279212
0.000279314
0.000279419
)
;
    }
}


// ************************************************************************* //
