/*--------------------------------*- C++ -*----------------------------------*\
| =========                 |                                                 |
| \\      /  F ield         | OpenFOAM: The Open Source CFD Toolbox           |
|  \\    /   O peration     | Version:  2306                                  |
|   \\  /    A nd           | Website:  www.openfoam.com                      |
|    \\/     M anipulation  |                                                 |
\*---------------------------------------------------------------------------*/
FoamFile
{
    version     2.0;
    format      ascii;
    arch        "LSB;label=32;scalar=64";
    class       surfaceScalarField;
    location    "2";
    object      phi;
}
// * * * * * * * * * * * * * * * * * * * * * * * * * * * * * * * * * * * * * //

dimensions      [0 3 -1 0 0 0 0];

oriented        oriented;

internalField   nonuniform List<scalar> 
640
(
-0.0565804
0.000605132
-0.00795995
-0.0568027
0.000222313
-0.0113284
-0.0565798
-0.000222899
-0.0113247
-0.00060543
-0.00793963
-0.0022121
0.00029258
-0.000613581
-0.00209911
0.000109334
-0.000693874
-0.00221249
-0.00010952
-0.000693746
-0.000292667
-0.000613108
0.000158034
5.56899e-05
-2.34599e-05
0.000245724
2.16446e-05
-2.29467e-05
0.000157907
-2.17031e-05
-2.29426e-05
-5.57139e-05
-2.34472e-05
4.01105e-05
1.60267e-05
-5.75816e-07
5.53531e-05
6.40211e-06
-5.0191e-07
4.00634e-05
-6.4131e-06
-5.02085e-07
-1.60313e-05
-5.75624e-07
0.000119085
3.35176e-06
-1.06724e-08
0.000124122
1.36438e-06
-8.44441e-09
0.000119076
-1.36654e-06
-8.30777e-09
-3.35245e-06
-1.04067e-08
0.0039653
8.59273e-07
1.38016e-10
0.00396631
3.53391e-07
-2.011e-10
0.0039653
-3.52449e-07
4.26958e-10
-8.59285e-07
1.0522e-10
0.112365
1.76221e-07
-7.97638e-10
0.112365
7.41087e-08
-1.73563e-09
0.112365
-7.11387e-08
1.17197e-09
-1.7513e-07
1.1319e-09
2.16085
-1.87715e-09
2.16085
-2.95433e-09
2.16085
2.01021e-09
2.04575e-09
-0.0565804
0.000605133
-0.00795996
-0.0568027
0.000222314
-0.0113284
-0.0565798
-0.000222899
-0.0113247
-0.000605428
-0.00793963
-0.0022121
0.000292581
-0.000613583
-0.00209911
0.000109334
-0.000693875
-0.00221249
-0.00010952
-0.000693747
-0.000292667
-0.00061311
0.000158034
5.56898e-05
-2.34602e-05
0.000245724
2.16445e-05
-2.29473e-05
0.000157908
-2.1703e-05
-2.29428e-05
-5.57137e-05
-2.34475e-05
4.01099e-05
1.60269e-05
-5.75509e-07
5.53522e-05
6.40229e-06
-5.01979e-07
4.00626e-05
-6.41312e-06
-5.02349e-07
-1.60317e-05
-5.75621e-07
0.000119085
3.35168e-06
-1.08169e-08
0.000124123
1.36426e-06
-8.23292e-09
0.000119076
-1.36639e-06
-8.17552e-09
-3.35242e-06
-1.07404e-08
0.0039653
8.59382e-07
7.36741e-11
0.00396631
3.53517e-07
-2.4019e-10
0.0039653
-3.52042e-07
3.29182e-10
-8.58915e-07
1.057e-10
0.112365
1.76342e-07
-9.76693e-10
0.112365
7.41627e-08
-2.6344e-09
0.112365
-7.08391e-08
7.25035e-10
-1.74727e-07
2.16634e-09
2.16085
-2.91389e-09
2.16085
-4.95202e-09
2.16085
1.73077e-09
5.56981e-09
-0.0565804
0.000605134
-0.00795996
-0.0568027
0.000222315
-0.0113284
-0.0565798
-0.000222899
-0.0113247
-0.000605428
-0.00793962
-0.00221209
0.000292582
-0.000613584
-0.00209911
0.000109335
-0.000693876
-0.00221249
-0.00010952
-0.000693748
-0.000292667
-0.000613109
0.000158035
5.56899e-05
-2.34601e-05
0.000245725
2.16444e-05
-2.29469e-05
0.000157908
-2.1703e-05
-2.29428e-05
-5.57134e-05
-2.34477e-05
4.01095e-05
1.60272e-05
-5.75468e-07
5.53518e-05
6.40227e-06
-5.02133e-07
4.00621e-05
-6.41338e-06
-5.02311e-07
-1.6032e-05
-5.75905e-07
0.000119086
3.35152e-06
-1.04031e-08
0.000124124
1.36415e-06
-8.1812e-09
0.000119077
-1.36633e-06
-8.11597e-09
-3.3523e-06
-1.04718e-08
0.0039653
8.59234e-07
2.18166e-10
0.00396632
3.53266e-07
-2.10921e-10
0.0039653
-3.51584e-07
-8.00413e-11
-8.58421e-07
2.23623e-10
0.112365
1.75972e-07
-8.23255e-10
0.112365
7.33867e-08
-1.97019e-09
0.112365
-7.03355e-08
-1.54045e-10
-1.74043e-07
2.52772e-09
2.16085
-1.30386e-09
2.16085
-2.59834e-09
2.16085
-2.08746e-09
5.81622e-09
-0.0565804
0.000605135
-0.00795996
-0.0568027
0.000222315
-0.0113284
-0.0565798
-0.000222898
-0.0113247
-0.000605426
-0.00793963
-0.00221209
0.000292583
-0.000613582
-0.00209912
0.000109335
-0.000693875
-0.0022125
-0.00010952
-0.000693746
-0.000292667
-0.000613107
0.000158035
5.56899e-05
-2.34594e-05
0.000245725
2.16444e-05
-2.29465e-05
0.000157908
-2.1703e-05
-2.29427e-05
-5.5713e-05
-2.34476e-05
4.01097e-05
1.60273e-05
-5.75704e-07
5.5352e-05
6.40221e-06
-5.02307e-07
4.00623e-05
-6.41354e-06
-5.0209e-07
-1.60321e-05
-5.75486e-07
0.000119086
3.35136e-06
-1.03291e-08
0.000124124
1.364e-06
-8.04549e-09
0.000119077
-1.36633e-06
-8.08668e-09
-3.3521e-06
-1.03993e-08
0.00396531
8.59063e-07
1.60376e-10
0.00396632
3.53202e-07
-1.29466e-10
0.0039653
-3.51727e-07
-3.77516e-10
-8.5811e-07
-1.33061e-10
0.112365
1.75611e-07
4.84425e-10
0.112365
7.30444e-08
-4.3744e-10
0.112365
-7.06416e-08
-4.15867e-10
-1.73668e-07
6.15986e-10
2.16085
1.69959e-09
2.16085
-1.40048e-09
2.16085
-1.29142e-09
5.33813e-10
-0.0565804
0.000605136
-0.00795996
-0.0568027
0.000222315
-0.0113284
-0.0565798
-0.000222897
-0.0113248
-0.000605426
-0.00793963
-0.0022121
0.000292583
-0.000613581
-0.00209912
0.000109335
-0.000693875
-0.0022125
-0.000109519
-0.000693745
-0.000292667
-0.000613104
0.000158035
5.569e-05
-2.34588e-05
0.000245725
2.16446e-05
-2.29459e-05
0.000157908
-2.17027e-05
-2.29425e-05
-5.57129e-05
-2.34481e-05
4.01097e-05
1.60272e-05
-5.75785e-07
5.53521e-05
6.40212e-06
-5.02242e-07
4.00626e-05
-6.4135e-06
-5.01792e-07
-1.60319e-05
-5.7495e-07
0.000119086
3.35143e-06
-1.03705e-08
0.000124124
1.364e-06
-7.6731e-09
0.000119077
-1.36628e-06
-8.14599e-09
-3.35204e-06
-1.03933e-08
0.00396531
8.59239e-07
-2.60625e-10
0.00396632
3.53168e-07
-1.41574e-10
0.0039653
-3.51771e-07
-6.04177e-10
-8.58027e-07
-5.07585e-10
0.112365
1.75883e-07
1.10993e-09
0.112365
7.31295e-08
1.63014e-09
0.112365
-7.05395e-08
-1.04993e-09
-1.73339e-07
-1.32449e-09
2.16085
3.48957e-09
2.16085
1.07541e-09
2.16085
-4.83766e-10
-4.04308e-09
-0.0565804
0.000605136
-0.00795996
-0.0568027
0.000222316
-0.0113284
-0.0565798
-0.000222897
-0.0113248
-0.000605426
-0.00793963
-0.00221209
0.000292583
-0.00061358
-0.00209912
0.000109335
-0.000693873
-0.00221249
-0.000109519
-0.000693744
-0.000292667
-0.000613104
0.000158034
5.56902e-05
-2.34582e-05
0.000245724
2.16448e-05
-2.2946e-05
0.000157908
-2.17026e-05
-2.29427e-05
-5.57132e-05
-2.34485e-05
4.01098e-05
1.60269e-05
-5.7544e-07
5.53522e-05
6.40203e-06
-5.01957e-07
4.00628e-05
-6.41336e-06
-5.01646e-07
-1.60317e-05
-5.74799e-07
0.000119086
3.35169e-06
-1.0803e-08
0.000124123
1.36425e-06
-7.54227e-09
0.000119076
-1.36622e-06
-8.277e-09
-3.35212e-06
-1.08871e-08
0.0039653
8.59383e-07
-6.0169e-10
0.00396632
3.52957e-07
-3.0009e-11
0.0039653
-3.51872e-07
-5.7231e-10
-8.5846e-07
-6.78677e-10
0.112365
1.76069e-07
7.59578e-10
0.112365
7.30519e-08
2.50599e-09
0.112365
-7.04919e-08
-8.69015e-10
-1.73943e-07
-2.31856e-09
2.16085
2.32448e-09
2.16085
5.20164e-09
2.16085
-1.89666e-09
-5.59979e-09
-0.0565804
0.000605135
-0.00795996
-0.0568027
0.000222315
-0.0113284
-0.0565798
-0.000222897
-0.0113248
-0.000605428
-0.00793963
-0.00221209
0.000292582
-0.00061358
-0.00209911
0.000109335
-0.000693872
-0.00221249
-0.000109519
-0.000693744
-0.000292667
-0.000613104
0.000158034
5.56903e-05
-2.34583e-05
0.000245724
2.16449e-05
-2.2946e-05
0.000157908
-2.17029e-05
-2.29425e-05
-5.57135e-05
-2.34484e-05
4.01099e-05
1.60267e-05
-5.75339e-07
5.53527e-05
6.40195e-06
-5.01735e-07
4.00631e-05
-6.41321e-06
-5.01755e-07
-1.60313e-05
-5.75494e-07
0.000119085
3.35188e-06
-1.09852e-08
0.000124123
1.36461e-06
-8.20883e-09
0.000119076
-1.36619e-06
-8.03408e-09
-3.35219e-06
-1.05184e-08
0.0039653
8.59597e-07
-5.58884e-10
0.00396631
3.5337e-07
5.35205e-11
0.0039653
-3.52381e-07
-2.5105e-10
-8.58694e-07
-2.43923e-10
0.112365
1.76345e-07
4.63345e-10
0.112365
7.37825e-08
1.91101e-09
0.112365
-7.12008e-08
-3.41166e-12
-1.74469e-07
-2.30628e-09
2.16085
-3.3009e-10
2.16085
4.06603e-09
2.16085
8.07915e-11
-4.00483e-09
-0.0565804
0.000605133
-0.0568027
0.000222314
-0.0565798
-0.000222899
-0.000605428
-0.00221209
0.000292581
-0.00209912
0.000109334
-0.00221249
-0.00010952
-0.000292666
0.000158034
5.56902e-05
0.000245724
2.16446e-05
0.000157908
-2.17031e-05
-5.57137e-05
4.01107e-05
1.60265e-05
5.53534e-05
6.40204e-06
4.00635e-05
-6.41312e-06
-1.60313e-05
0.000119084
3.35189e-06
0.000124122
1.36466e-06
0.000119076
-1.36613e-06
-3.35241e-06
0.0039653
8.59751e-07
0.00396631
3.53525e-07
0.0039653
-3.52254e-07
-8.58935e-07
0.112365
1.76377e-07
0.112365
7.4101e-08
0.112365
-7.1068e-08
-1.74858e-07
2.16085
2.16085
2.16085
)
;

boundaryField
{
    movingWall
    {
        type            calculated;
        value           uniform 0;
    }
    CPLReceiveMD
    {
        type            calculated;
        value           uniform 0;
    }
    streamwiseIn
    {
        type            cyclic;
        value           nonuniform List<scalar> 0();
    }
    streamwiseOut
    {
        type            cyclic;
        value           nonuniform List<scalar> 0();
    }
    front
    {
        type            cyclic;
        value           nonuniform List<scalar> 
32
(
-0.00795996
-0.000613579
-2.34589e-05
-5.75395e-07
-1.0266e-08
-3.21191e-10
-2.93963e-10
-1.32944e-09
-0.0113284
-0.000693872
-2.29463e-05
-5.01768e-07
-8.75891e-09
6.38569e-11
5.6105e-10
5.85904e-10
-0.0113248
-0.000693745
-2.29427e-05
-5.0179e-07
-8.5298e-09
2.22418e-10
5.85923e-10
1.88744e-09
-0.00793963
-0.000613105
-2.34473e-05
-5.75268e-07
-1.01949e-08
-9.06289e-11
-4.54724e-10
-1.34995e-09
)
;
    }
    back
    {
        type            cyclic;
        value           nonuniform List<scalar> 
32
(
0.00795996
0.000613579
2.34589e-05
5.75395e-07
1.0266e-08
3.21191e-10
2.93963e-10
1.32944e-09
0.0113284
0.000693872
2.29463e-05
5.01768e-07
8.75891e-09
-6.38569e-11
-5.6105e-10
-5.85904e-10
0.0113248
0.000693745
2.29427e-05
5.0179e-07
8.5298e-09
-2.22418e-10
-5.85923e-10
-1.88744e-09
0.00793963
0.000613105
2.34473e-05
5.75268e-07
1.01949e-08
9.06289e-11
4.54724e-10
1.34995e-09
)
;
    }
    procBoundary1to0
    {
        type            processor;
        value           nonuniform List<scalar> 
64
(
0.0559753
0.00252465
7.88573e-05
-4.46772e-07
-0.00010641
-0.00396281
-0.112364
-2.16085
0.0559753
0.00252465
7.8858e-05
-4.47283e-07
-0.00010641
-0.00396281
-0.112364
-2.16085
0.0559753
0.00252465
7.88574e-05
-4.46872e-07
-0.000106411
-0.00396281
-0.112364
-2.16085
0.0559753
0.00252465
7.88573e-05
-4.46822e-07
-0.000106411
-0.00396281
-0.112364
-2.16085
0.0559753
0.00252465
7.88575e-05
-4.46859e-07
-0.000106411
-0.00396281
-0.112364
-2.16085
0.0559753
0.00252465
7.88582e-05
-4.46835e-07
-0.00010641
-0.00396281
-0.112364
-2.16085
0.0559753
0.00252465
7.88575e-05
-4.46416e-07
-0.00010641
-0.00396281
-0.112364
-2.16085
0.0559753
0.00252465
7.8857e-05
-4.47085e-07
-0.00010641
-0.00396281
-0.112364
-2.16085
)
;
    }
    procBoundary1to0throughstreamwiseOut
    {
        type            processorCyclic;
        value           nonuniform List<scalar> 
64
(
-0.0559744
-0.00252525
-7.90459e-05
3.8124e-07
0.000106397
0.0039628
0.112364
2.16085
-0.0559744
-0.00252525
-7.9045e-05
3.80624e-07
0.000106397
0.00396281
0.112364
2.16085
-0.0559744
-0.00252525
-7.90459e-05
3.80988e-07
0.000106397
0.00396281
0.112364
2.16085
-0.0559744
-0.00252526
-7.90461e-05
3.8104e-07
0.000106397
0.00396281
0.112364
2.16085
-0.0559744
-0.00252526
-7.90457e-05
3.81078e-07
0.000106397
0.00396281
0.112364
2.16085
-0.0559744
-0.00252525
-7.9045e-05
3.8116e-07
0.000106397
0.00396281
0.112364
2.16085
-0.0559744
-0.00252525
-7.90456e-05
3.81633e-07
0.000106396
0.00396281
0.112364
2.16085
-0.0559744
-0.00252525
-7.90457e-05
3.81e-07
0.000106397
0.0039628
0.112364
2.16085
)
;
    }
}


// ************************************************************************* //
