/*--------------------------------*- C++ -*----------------------------------*\
| =========                 |                                                 |
| \\      /  F ield         | OpenFOAM: The Open Source CFD Toolbox           |
|  \\    /   O peration     | Version:  2306                                  |
|   \\  /    A nd           | Website:  www.openfoam.com                      |
|    \\/     M anipulation  |                                                 |
\*---------------------------------------------------------------------------*/
FoamFile
{
    version     2.0;
    format      ascii;
    arch        "LSB;label=32;scalar=64";
    class       surfaceScalarField;
    location    "2";
    object      phi_0;
}
// * * * * * * * * * * * * * * * * * * * * * * * * * * * * * * * * * * * * * //

dimensions      [0 3 -1 0 0 0 0];

oriented        oriented;

internalField   nonuniform List<scalar> 
640
(
-0.054109
0.000643643
-0.00678467
-0.0543418
0.000232757
-0.00980167
-0.0541085
-0.000233266
-0.00979905
-0.000643906
-0.0067676
-0.00191209
0.000294886
-0.000592825
-0.00178864
0.000109304
-0.000645489
-0.00191244
-0.000109463
-0.00064539
-0.000294961
-0.00059245
0.000172538
5.54104e-05
-2.06716e-05
0.00026035
2.14931e-05
-1.95977e-05
0.000172433
-2.1545e-05
-1.95953e-05
-5.54314e-05
-2.0663e-05
4.00685e-05
1.56593e-05
-4.6484e-07
5.53136e-05
6.24824e-06
-3.91206e-07
4.00267e-05
-6.25824e-06
-3.90821e-07
-1.56637e-05
-4.63325e-07
0.000100217
3.26164e-06
-7.38132e-09
0.000105138
1.32676e-06
-5.64878e-09
0.000100209
-1.32874e-06
-6.29261e-09
-3.26239e-06
-8.86449e-09
0.00343561
8.34424e-07
7.29705e-11
0.0034366
3.42947e-07
-9.98533e-11
0.00343561
-3.42328e-07
3.25314e-10
-8.34466e-07
-2.53002e-10
0.102298
1.7013e-07
-1.05055e-09
0.102298
7.14624e-08
-1.82484e-09
0.102298
-6.87507e-08
1.05033e-09
-1.68886e-07
1.1002e-09
2.0679
-1.85302e-09
2.0679
-2.74174e-09
2.0679
2.00399e-09
2.08831e-09
-0.054109
0.000643645
-0.00678466
-0.0543418
0.000232757
-0.00980167
-0.0541085
-0.000233266
-0.00979905
-0.000643905
-0.0067676
-0.00191209
0.000294887
-0.000592827
-0.00178864
0.000109305
-0.000645491
-0.00191244
-0.000109463
-0.000645391
-0.000294961
-0.00059245
0.000172538
5.54109e-05
-2.06723e-05
0.00026035
2.14934e-05
-1.95984e-05
0.000172433
-2.15453e-05
-1.95955e-05
-5.54318e-05
-2.06635e-05
4.00686e-05
1.56594e-05
-4.64782e-07
5.53138e-05
6.24818e-06
-3.9118e-07
4.00267e-05
-6.25815e-06
-3.90968e-07
-1.56636e-05
-4.63349e-07
0.000100218
3.26171e-06
-7.19892e-09
0.000105139
1.32676e-06
-5.55538e-09
0.00010021
-1.32858e-06
-6.05223e-09
-3.26235e-06
-8.51139e-09
0.00343562
8.34599e-07
2.90811e-10
0.0034366
3.43199e-07
-1.69149e-10
0.00343561
-3.41953e-07
3.001e-10
-8.34336e-07
1.4446e-10
0.102298
1.70188e-07
-1.13976e-09
0.102298
7.15091e-08
-2.69223e-09
0.102298
-6.84917e-08
6.23709e-10
-1.68657e-07
1.99095e-09
2.0679
-2.78352e-09
2.0679
-4.7089e-09
2.0679
1.97127e-09
5.52614e-09
-0.054109
0.000643647
-0.00678466
-0.0543418
0.000232758
-0.00980167
-0.0541085
-0.000233265
-0.00979905
-0.000643904
-0.0067676
-0.00191209
0.000294888
-0.000592828
-0.00178864
0.000109305
-0.000645491
-0.00191244
-0.000109463
-0.000645392
-0.000294961
-0.000592449
0.000172539
5.54114e-05
-2.06723e-05
0.00026035
2.14934e-05
-1.95982e-05
0.000172432
-2.15455e-05
-1.95951e-05
-5.54322e-05
-2.06628e-05
4.00687e-05
1.56592e-05
-4.64391e-07
5.5314e-05
6.24816e-06
-3.91272e-07
4.00268e-05
-6.25814e-06
-3.91157e-07
-1.56635e-05
-4.63854e-07
0.000100219
3.26169e-06
-7.69395e-09
0.00010514
1.32674e-06
-5.78558e-09
0.00010021
-1.32848e-06
-5.91469e-09
-3.26224e-06
-8.02982e-09
0.00343562
8.34614e-07
1.08731e-10
0.0034366
3.43025e-07
-2.05067e-10
0.00343561
-3.4151e-07
-1.10849e-10
-8.33888e-07
1.24615e-10
0.102298
1.69781e-07
-9.1566e-10
0.102298
7.06724e-08
-1.88524e-09
0.102298
-6.80959e-08
-2.58663e-10
-1.68122e-07
2.21027e-09
2.0679
-1.22666e-09
2.0679
-2.3935e-09
2.0679
-1.84743e-09
5.65067e-09
-0.054109
0.000643647
-0.00678467
-0.0543418
0.000232759
-0.00980167
-0.0541085
-0.000233264
-0.00979905
-0.000643903
-0.0067676
-0.00191209
0.000294888
-0.000592826
-0.00178864
0.000109305
-0.00064549
-0.00191244
-0.000109463
-0.00064539
-0.00029496
-0.000592448
0.000172539
5.54115e-05
-2.06719e-05
0.00026035
2.14935e-05
-1.95976e-05
0.000172432
-2.15455e-05
-1.95944e-05
-5.54321e-05
-2.06622e-05
4.00687e-05
1.56592e-05
-4.6397e-07
5.5314e-05
6.24814e-06
-3.91246e-07
4.00268e-05
-6.25812e-06
-3.91335e-07
-1.56634e-05
-4.64465e-07
0.000100218
3.26159e-06
-7.98902e-09
0.00010514
1.32663e-06
-5.85963e-09
0.00010021
-1.32844e-06
-5.76251e-09
-3.26201e-06
-7.71312e-09
0.00343562
8.34433e-07
-1.88776e-11
0.0034366
3.42932e-07
-1.35183e-10
0.00343561
-3.41655e-07
-2.83557e-10
-8.33565e-07
-1.63014e-10
0.102298
1.69364e-07
5.01346e-10
0.102298
7.02799e-08
-3.27033e-10
0.102298
-6.84763e-08
-3.69756e-10
-1.67862e-07
4.78218e-10
2.0679
1.5717e-09
2.0679
-1.3512e-09
2.0679
-1.24497e-09
4.42515e-10
-0.054109
0.000643648
-0.00678467
-0.0543418
0.000232759
-0.00980168
-0.0541085
-0.000233264
-0.00979905
-0.000643902
-0.0067676
-0.00191209
0.000294888
-0.000592825
-0.00178864
0.000109305
-0.000645489
-0.00191244
-0.000109462
-0.000645389
-0.00029496
-0.000592448
0.000172539
5.54115e-05
-2.06712e-05
0.00026035
2.14937e-05
-1.9597e-05
0.000172432
-2.15451e-05
-1.95938e-05
-5.54318e-05
-2.06618e-05
4.00686e-05
1.56593e-05
-4.63623e-07
5.53139e-05
6.24821e-06
-3.9116e-07
4.0027e-05
-6.25811e-06
-3.91412e-07
-1.56635e-05
-4.64705e-07
0.000100219
3.26166e-06
-8.23164e-09
0.00010514
1.3266e-06
-5.5486e-09
0.00010021
-1.32844e-06
-5.70027e-09
-3.26198e-06
-7.47932e-09
0.00343562
8.34514e-07
-2.39483e-10
0.0034366
3.4284e-07
-7.13085e-11
0.00343562
-3.41703e-07
-3.88897e-10
-8.3344e-07
-3.22466e-10
0.102298
1.69625e-07
1.24401e-09
0.102298
7.03666e-08
1.73217e-09
0.102298
-6.83668e-08
-8.79007e-10
-1.67532e-07
-1.1736e-09
2.0679
3.25382e-09
2.0679
8.89869e-10
2.0679
-6.0637e-10
-4.06507e-09
-0.054109
0.000643648
-0.00678467
-0.0543418
0.000232759
-0.00980168
-0.0541085
-0.000233264
-0.00979905
-0.000643903
-0.00676761
-0.00191209
0.000294889
-0.000592824
-0.00178864
0.000109305
-0.000645489
-0.00191244
-0.000109462
-0.000645388
-0.00029496
-0.000592446
0.000172539
5.54112e-05
-2.06707e-05
0.00026035
2.14937e-05
-1.95968e-05
0.000172433
-2.15448e-05
-1.95939e-05
-5.54314e-05
-2.06616e-05
4.00685e-05
1.56595e-05
-4.63536e-07
5.53137e-05
6.24829e-06
-3.90971e-07
4.00269e-05
-6.25814e-06
-3.91242e-07
-1.56635e-05
-4.64719e-07
0.000100218
3.26183e-06
-8.46694e-09
0.00010514
1.32672e-06
-5.29383e-09
0.00010021
-1.32851e-06
-5.69031e-09
-3.26215e-06
-7.30089e-09
0.00343562
8.34548e-07
-3.1534e-10
0.0034366
3.42557e-07
1.82652e-10
0.00343561
-3.41818e-07
-2.78661e-10
-8.33815e-07
-9.61994e-11
0.102298
1.6986e-07
1.06191e-09
0.102298
7.03541e-08
2.54619e-09
0.102298
-6.82521e-08
-6.87105e-10
-1.68018e-07
-1.969e-09
2.0679
2.30992e-09
2.0679
4.80972e-09
2.0679
-2.08075e-09
-5.62926e-09
-0.054109
0.000643647
-0.00678467
-0.0543418
0.000232759
-0.00980168
-0.0541085
-0.000233264
-0.00979905
-0.000643904
-0.00676761
-0.00191209
0.000294888
-0.000592825
-0.00178864
0.000109305
-0.000645487
-0.00191244
-0.000109462
-0.000645388
-0.000294961
-0.000592446
0.000172539
5.54109e-05
-2.067e-05
0.000260351
2.14936e-05
-1.95968e-05
0.000172433
-2.15447e-05
-1.95939e-05
-5.5431e-05
-2.06615e-05
4.00683e-05
1.56595e-05
-4.63873e-07
5.53136e-05
6.24827e-06
-3.90951e-07
4.00269e-05
-6.25812e-06
-3.91084e-07
-1.56636e-05
-4.6443e-07
0.000100218
3.26188e-06
-9.12622e-09
0.00010514
1.32695e-06
-5.91449e-09
0.00010021
-1.32856e-06
-5.31258e-09
-3.26225e-06
-7.41476e-09
0.00343562
8.34673e-07
-6.29912e-10
0.0034366
3.4293e-07
1.43414e-10
0.00343561
-3.42285e-07
-2.53762e-11
-8.33951e-07
-1.37794e-10
0.102298
1.70195e-07
5.88562e-10
0.102298
7.11643e-08
1.87944e-09
0.102298
-6.88258e-08
7.85514e-11
-1.68362e-07
-2.21747e-09
2.0679
-3.21686e-10
2.0679
3.78813e-09
2.0679
-6.99193e-11
-4.03902e-09
-0.054109
0.000643645
-0.0543418
0.000232757
-0.0541085
-0.000233265
-0.000643905
-0.00191209
0.000294887
-0.00178864
0.000109305
-0.00191244
-0.000109463
-0.000294961
0.000172539
5.54105e-05
0.000260351
2.14933e-05
0.000172433
-2.15448e-05
-5.54309e-05
4.00685e-05
1.56596e-05
5.53135e-05
6.24824e-06
4.00267e-05
-6.25829e-06
-1.56637e-05
0.000100216
3.26179e-06
0.000105138
1.32696e-06
0.000100209
-1.32846e-06
-3.26232e-06
0.00343561
8.34659e-07
0.0034366
3.43071e-07
0.00343561
-3.42102e-07
-8.34217e-07
0.102298
1.70181e-07
0.102298
7.15287e-08
0.102298
-6.86191e-08
-1.6872e-07
2.0679
2.0679
2.0679
)
;

boundaryField
{
    movingWall
    {
        type            calculated;
        value           uniform 0;
    }
    CPLReceiveMD
    {
        type            calculated;
        value           uniform 0;
    }
    streamwiseIn
    {
        type            cyclic;
        value           nonuniform List<scalar> 0();
    }
    streamwiseOut
    {
        type            cyclic;
        value           nonuniform List<scalar> 0();
    }
    front
    {
        type            cyclic;
        value           nonuniform List<scalar> 
32
(
-0.00678467
-0.000592825
-2.06703e-05
-4.64179e-07
-7.44695e-09
-1.2707e-10
-3.69104e-10
-1.37696e-09
-0.00980168
-0.000645487
-1.95971e-05
-3.90944e-07
-6.38385e-09
-1.52055e-10
2.85756e-10
5.75322e-10
-0.00979905
-0.000645388
-1.95944e-05
-3.9091e-07
-6.4332e-09
1.96845e-11
4.11824e-10
1.73809e-09
-0.00676761
-0.000592448
-2.06621e-05
-4.63501e-07
-7.66558e-09
-1.72754e-11
-4.69402e-10
-1.3738e-09
)
;
    }
    back
    {
        type            cyclic;
        value           nonuniform List<scalar> 
32
(
0.00678467
0.000592825
2.06703e-05
4.64179e-07
7.44695e-09
1.2707e-10
3.69104e-10
1.37696e-09
0.00980168
0.000645487
1.95971e-05
3.90944e-07
6.38385e-09
1.52055e-10
-2.85756e-10
-5.75322e-10
0.00979905
0.000645388
1.95944e-05
3.9091e-07
6.4332e-09
-1.96845e-11
-4.11824e-10
-1.73809e-09
0.00676761
0.000592448
2.06621e-05
4.63501e-07
7.66558e-09
1.72754e-11
4.69402e-10
1.3738e-09
)
;
    }
    procBoundary1to0
    {
        type            processor;
        value           nonuniform List<scalar> 
64
(
0.0534654
0.00226085
6.69387e-05
-3.16771e-07
-8.78198e-05
-0.00343319
-0.102297
-2.0679
0.0534654
0.00226085
6.6939e-05
-3.17144e-07
-8.78207e-05
-0.00343319
-0.102297
-2.0679
0.0534654
0.00226085
6.69379e-05
-3.16914e-07
-8.78205e-05
-0.00343319
-0.102297
-2.0679
0.0534654
0.00226085
6.69376e-05
-3.16858e-07
-8.78206e-05
-0.00343319
-0.102297
-2.0679
0.0534654
0.00226085
6.69376e-05
-3.16796e-07
-8.78206e-05
-0.00343319
-0.102297
-2.0679
0.0534654
0.00226085
6.6938e-05
-3.16754e-07
-8.78205e-05
-0.00343319
-0.102297
-2.0679
0.0534654
0.00226085
6.69378e-05
-3.16511e-07
-8.78195e-05
-0.00343319
-0.102297
-2.0679
0.0534653
0.00226085
6.6938e-05
-3.17133e-07
-8.78204e-05
-0.00343319
-0.102297
-2.0679
)
;
    }
    procBoundary1to0throughstreamwiseOut
    {
        type            processorCyclic;
        value           nonuniform List<scalar> 
64
(
-0.0534646
-0.00226138
-6.70957e-05
2.59031e-07
8.78082e-05
0.00343318
0.102297
2.0679
-0.0534646
-0.00226138
-6.70956e-05
2.58585e-07
8.78079e-05
0.00343318
0.102297
2.0679
-0.0534646
-0.00226139
-6.70968e-05
2.58696e-07
8.78085e-05
0.00343319
0.102297
2.0679
-0.0534646
-0.00226139
-6.70972e-05
2.58802e-07
8.78084e-05
0.00343319
0.102297
2.0679
-0.0534646
-0.00226139
-6.70971e-05
2.58963e-07
8.78083e-05
0.00343319
0.102297
2.0679
-0.0534646
-0.00226139
-6.70966e-05
2.59136e-07
8.78085e-05
0.00343319
0.102297
2.0679
-0.0534646
-0.00226139
-6.70967e-05
2.59276e-07
8.78085e-05
0.00343318
0.102297
2.0679
-0.0534646
-0.00226139
-6.70963e-05
2.58713e-07
8.78081e-05
0.00343318
0.102297
2.0679
)
;
    }
}


// ************************************************************************* //
