/*--------------------------------*- C++ -*----------------------------------*\
| =========                 |                                                 |
| \\      /  F ield         | OpenFOAM: The Open Source CFD Toolbox           |
|  \\    /   O peration     | Version:  2306                                  |
|   \\  /    A nd           | Website:  www.openfoam.com                      |
|    \\/     M anipulation  |                                                 |
\*---------------------------------------------------------------------------*/
FoamFile
{
    version     2.0;
    format      ascii;
    arch        "LSB;label=32;scalar=64";
    class       volVectorField;
    location    "2";
    object      U;
}
// * * * * * * * * * * * * * * * * * * * * * * * * * * * * * * * * * * * * * //

dimensions      [0 1 -1 0 0 0 0];

internalField   nonuniform List<vector> 
256
(
(-0.00481983 0.000118835 -0.000668833)
(-0.00476576 4.39448e-05 -0.000951861)
(-0.00476582 -4.41615e-05 -0.000951558)
(-0.0048197 -0.000118939 -0.000667124)
(-0.000199255 0.000129402 -5.15559e-05)
(-0.000176182 4.79736e-05 -5.83025e-05)
(-0.0001762 -4.8019e-05 -5.82917e-05)
(-0.000199291 -0.000129427 -5.15159e-05)
(4.73083e-06 1.6665e-05 -1.97106e-06)
(1.9987e-05 6.37037e-06 -1.92801e-06)
(1.99812e-05 -6.39889e-06 -1.92775e-06)
(4.71669e-06 -1.66771e-05 -1.97012e-06)
(1.95599e-06 6.97252e-06 -4.82355e-08)
(4.56407e-06 2.77273e-06 -4.20846e-08)
(4.56188e-06 -2.77688e-06 -4.222e-08)
(1.95069e-06 -6.97426e-06 -4.85413e-08)
(9.53737e-06 1.12923e-06 -8.63251e-10)
(1.03661e-05 4.55347e-07 -7.20259e-10)
(1.03658e-05 -4.56683e-07 -7.2769e-10)
(9.53625e-06 -1.12978e-06 -8.77031e-10)
(0.000333091 3.54954e-07 3.4666e-12)
(0.000333255 1.45502e-07 -5.09891e-11)
(0.000333255 -1.4555e-07 -1.08767e-11)
(0.00033309 -3.55019e-07 7.58871e-12)
(0.00944139 6.83657e-08 -8.68977e-11)
(0.00944143 2.84136e-08 -5.72225e-11)
(0.00944143 -2.7759e-08 7.47272e-11)
(0.00944139 -6.80107e-08 8.17178e-11)
(0.181564 1.43358e-08 -1.27736e-10)
(0.181564 6.14073e-09 -7.08818e-11)
(0.181564 -5.80962e-09 1.98162e-11)
(0.181564 -1.47078e-08 -2.98918e-11)
(-0.00481983 0.000118835 -0.000668832)
(-0.00476576 4.39449e-05 -0.000951861)
(-0.00476582 -4.41615e-05 -0.000951557)
(-0.0048197 -0.000118938 -0.000667124)
(-0.000199255 0.000129403 -5.1556e-05)
(-0.000176182 4.79736e-05 -5.83023e-05)
(-0.0001762 -4.80191e-05 -5.82917e-05)
(-0.000199291 -0.000129426 -5.15161e-05)
(4.73082e-06 1.66651e-05 -1.97113e-06)
(1.9987e-05 6.37038e-06 -1.92803e-06)
(1.99812e-05 -6.39891e-06 -1.92769e-06)
(4.71674e-06 -1.66771e-05 -1.97018e-06)
(1.95599e-06 6.97249e-06 -4.81519e-08)
(4.56385e-06 2.77273e-06 -4.2134e-08)
(4.56175e-06 -2.77688e-06 -4.2328e-08)
(1.95057e-06 -6.97429e-06 -4.85688e-08)
(9.5373e-06 1.12917e-06 -9.32048e-10)
(1.03662e-05 4.55337e-07 -6.83641e-10)
(1.03657e-05 -4.56626e-07 -6.84877e-10)
(9.53635e-06 -1.12977e-06 -9.58765e-10)
(0.000333091 3.54997e-07 1.06815e-11)
(0.000333255 1.45486e-07 2.21256e-11)
(0.000333255 -1.45476e-07 8.08115e-11)
(0.00033309 -3.54942e-07 -1.90413e-11)
(0.00944139 6.84076e-08 4.13675e-13)
(0.00944143 2.84823e-08 -1.70915e-10)
(0.00944143 -2.76683e-08 1.84352e-10)
(0.00944139 -6.7931e-08 1.6607e-10)
(0.181564 1.43866e-08 -1.35086e-10)
(0.181564 6.25222e-09 -2.92072e-10)
(0.181564 -5.71296e-09 4.50767e-10)
(0.181564 -1.46316e-08 4.71955e-10)
(-0.00481983 0.000118836 -0.000668832)
(-0.00476576 4.39452e-05 -0.000951861)
(-0.00476582 -4.41614e-05 -0.000951557)
(-0.0048197 -0.000118938 -0.000667123)
(-0.000199255 0.000129403 -5.1556e-05)
(-0.000176181 4.79739e-05 -5.83023e-05)
(-0.000176201 -4.8019e-05 -5.82916e-05)
(-0.000199291 -0.000129426 -5.15164e-05)
(4.73084e-06 1.66651e-05 -1.97116e-06)
(1.9987e-05 6.37037e-06 -1.92805e-06)
(1.99812e-05 -6.39895e-06 -1.92769e-06)
(4.71669e-06 -1.66772e-05 -1.97017e-06)
(1.95589e-06 6.9725e-06 -4.83056e-08)
(4.56371e-06 2.77272e-06 -4.22041e-08)
(4.56161e-06 -2.7769e-06 -4.22772e-08)
(1.95053e-06 -6.9743e-06 -4.85086e-08)
(9.53733e-06 1.12916e-06 -8.76642e-10)
(1.03662e-05 4.5534e-07 -7.02247e-10)
(1.03658e-05 -4.56594e-07 -6.78631e-10)
(9.53633e-06 -1.1297e-06 -8.69386e-10)
(0.000333091 3.54974e-07 2.33281e-11)
(0.000333255 1.45443e-07 -1.05014e-11)
(0.000333255 -1.45474e-07 9.90001e-12)
(0.00033309 -3.54923e-07 4.01513e-11)
(0.00944139 6.83514e-08 -1.57703e-10)
(0.00944144 2.83595e-08 -2.75428e-10)
(0.00944144 -2.75219e-08 -3.51465e-11)
(0.00944139 -6.77605e-08 1.86048e-10)
(0.181564 1.43823e-08 -3.01931e-10)
(0.181564 6.20454e-09 -4.41925e-10)
(0.181564 -5.53128e-09 -8.25506e-11)
(0.181564 -1.44451e-08 5.84204e-10)
(-0.00481983 0.000118836 -0.000668832)
(-0.00476576 4.39453e-05 -0.000951861)
(-0.00476582 -4.41612e-05 -0.000951558)
(-0.0048197 -0.000118938 -0.000667124)
(-0.000199255 0.000129403 -5.15559e-05)
(-0.000176181 4.79738e-05 -5.83025e-05)
(-0.000176201 -4.80189e-05 -5.82918e-05)
(-0.000199291 -0.000129426 -5.15163e-05)
(4.73081e-06 1.66652e-05 -1.97118e-06)
(1.9987e-05 6.37033e-06 -1.9281e-06)
(1.99812e-05 -6.39897e-06 -1.92779e-06)
(4.71666e-06 -1.6677e-05 -1.97025e-06)
(1.95587e-06 6.9725e-06 -4.84122e-08)
(4.56369e-06 2.77272e-06 -4.22338e-08)
(4.5616e-06 -2.7769e-06 -4.22068e-08)
(1.95054e-06 -6.9743e-06 -4.83456e-08)
(9.53733e-06 1.12917e-06 -8.73522e-10)
(1.03662e-05 4.55345e-07 -6.81766e-10)
(1.03658e-05 -4.56582e-07 -6.76938e-10)
(9.53632e-06 -1.12969e-06 -8.72268e-10)
(0.000333091 3.54936e-07 3.05621e-11)
(0.000333255 1.45393e-07 -9.9062e-12)
(0.000333255 -1.45483e-07 -1.00134e-11)
(0.000333091 -3.54873e-07 1.32903e-11)
(0.00944139 6.82618e-08 -2.87727e-11)
(0.00944144 2.83061e-08 -1.42426e-10)
(0.00944144 -2.76154e-08 -1.1732e-11)
(0.00944139 -6.76753e-08 1.91466e-10)
(0.181564 1.43656e-08 4.06617e-12)
(0.181564 6.18227e-09 -1.10086e-10)
(0.181564 -5.61208e-09 -4.07662e-10)
(0.181564 -1.43695e-08 2.91859e-10)
(-0.00481983 0.000118836 -0.000668832)
(-0.00476576 4.39455e-05 -0.000951862)
(-0.00476582 -4.41611e-05 -0.000951558)
(-0.0048197 -0.000118938 -0.000667124)
(-0.000199255 0.000129403 -5.1556e-05)
(-0.000176182 4.7974e-05 -5.83028e-05)
(-0.000176201 -4.80188e-05 -5.8292e-05)
(-0.000199291 -0.000129426 -5.15159e-05)
(4.73076e-06 1.66652e-05 -1.97118e-06)
(1.9987e-05 6.37039e-06 -1.92814e-06)
(1.99812e-05 -6.39888e-06 -1.92789e-06)
(4.71672e-06 -1.6677e-05 -1.97027e-06)
(1.95588e-06 6.97252e-06 -4.84672e-08)
(4.56373e-06 2.77273e-06 -4.22484e-08)
(4.56166e-06 -2.77688e-06 -4.2157e-08)
(1.95057e-06 -6.97427e-06 -4.82595e-08)
(9.53736e-06 1.12919e-06 -8.54762e-10)
(1.03662e-05 4.55359e-07 -6.56839e-10)
(1.03658e-05 -4.56583e-07 -6.85252e-10)
(9.53631e-06 -1.12969e-06 -8.84948e-10)
(0.000333091 3.5496e-07 1.8333e-11)
(0.000333255 1.4539e-07 -2.82167e-12)
(0.000333255 -1.45478e-07 -4.49799e-11)
(0.000333091 -3.54854e-07 -4.05106e-11)
(0.00944139 6.83045e-08 1.47507e-10)
(0.00944144 2.82808e-08 8.47873e-11)
(0.00944144 -2.7623e-08 -4.45051e-11)
(0.00944139 -6.76209e-08 -7.03914e-11)
(0.181564 1.44004e-08 2.31004e-10)
(0.181564 6.15787e-09 -1.89784e-10)
(0.181564 -5.64817e-09 1.31955e-10)
(0.181564 -1.43391e-08 -2.41805e-10)
(-0.00481983 0.000118836 -0.000668833)
(-0.00476576 4.39455e-05 -0.000951861)
(-0.00476582 -4.41611e-05 -0.000951558)
(-0.0048197 -0.000118938 -0.000667124)
(-0.000199255 0.000129403 -5.15561e-05)
(-0.000176182 4.79741e-05 -5.83027e-05)
(-0.000176201 -4.80188e-05 -5.82917e-05)
(-0.000199291 -0.000129426 -5.15158e-05)
(4.73072e-06 1.66651e-05 -1.97117e-06)
(1.99869e-05 6.37043e-06 -1.92813e-06)
(1.99812e-05 -6.39884e-06 -1.92783e-06)
(4.71678e-06 -1.6677e-05 -1.97022e-06)
(1.9559e-06 6.97252e-06 -4.8507e-08)
(4.56381e-06 2.77276e-06 -4.22394e-08)
(4.56176e-06 -2.77685e-06 -4.21162e-08)
(1.95061e-06 -6.97427e-06 -4.81918e-08)
(9.53737e-06 1.12922e-06 -8.63124e-10)
(1.03662e-05 4.55371e-07 -6.49083e-10)
(1.03657e-05 -4.56603e-07 -6.60069e-10)
(9.5363e-06 -1.12973e-06 -8.50387e-10)
(0.000333091 3.54981e-07 -2.01678e-11)
(0.000333255 1.45414e-07 8.04359e-12)
(0.000333255 -1.45501e-07 -4.78782e-11)
(0.000333091 -3.54899e-07 -4.30801e-11)
(0.00944139 6.83559e-08 4.3066e-11)
(0.00944144 2.81999e-08 2.30944e-10)
(0.00944144 -2.76145e-08 -1.26609e-10)
(0.00944139 -6.77485e-08 -1.67464e-10)
(0.181564 1.44066e-08 3.49024e-10)
(0.181564 6.06565e-09 3.39303e-10)
(0.181564 -5.65116e-09 -1.78287e-10)
(0.181564 -1.44739e-08 -4.40437e-10)
(-0.00481983 0.000118836 -0.000668832)
(-0.00476576 4.39453e-05 -0.000951861)
(-0.00476582 -4.41611e-05 -0.000951558)
(-0.0048197 -0.000118938 -0.000667125)
(-0.000199255 0.000129403 -5.15559e-05)
(-0.000176181 4.79739e-05 -5.83023e-05)
(-0.0001762 -4.80188e-05 -5.82915e-05)
(-0.000199291 -0.000129426 -5.15159e-05)
(4.73074e-06 1.66651e-05 -1.97121e-06)
(1.9987e-05 6.37044e-06 -1.92807e-06)
(1.99812e-05 -6.39888e-06 -1.92766e-06)
(4.71677e-06 -1.6677e-05 -1.97021e-06)
(1.95593e-06 6.97253e-06 -4.84467e-08)
(4.56393e-06 2.77277e-06 -4.21948e-08)
(4.56187e-06 -2.77684e-06 -4.20542e-08)
(1.95071e-06 -6.97425e-06 -4.80771e-08)
(9.5374e-06 1.12924e-06 -9.31577e-10)
(1.03662e-05 4.55386e-07 -6.50588e-10)
(1.03658e-05 -4.56621e-07 -6.38021e-10)
(9.53626e-06 -1.12976e-06 -8.93846e-10)
(0.000333091 3.54969e-07 -9.64731e-11)
(0.000333255 1.4546e-07 3.01975e-11)
(0.000333255 -1.45539e-07 1.18466e-11)
(0.00033309 -3.54931e-07 -5.85603e-11)
(0.00944139 6.84521e-08 9.6474e-11)
(0.00944143 2.83833e-08 2.4754e-10)
(0.00944143 -2.77726e-08 4.60138e-12)
(0.00944139 -6.78208e-08 -1.97993e-10)
(0.181564 1.44777e-08 1.98657e-10)
(0.181564 6.17501e-09 7.02589e-10)
(0.181564 -5.80438e-09 -6.92225e-11)
(0.181564 -1.45521e-08 -3.12513e-10)
(-0.00481983 0.000118835 -0.000668832)
(-0.00476576 4.3945e-05 -0.000951861)
(-0.00476582 -4.41615e-05 -0.000951558)
(-0.0048197 -0.000118938 -0.000667124)
(-0.000199255 0.000129402 -5.15558e-05)
(-0.000176181 4.79737e-05 -5.83023e-05)
(-0.000176201 -4.80191e-05 -5.82916e-05)
(-0.000199291 -0.000129426 -5.15158e-05)
(4.73076e-06 1.6665e-05 -1.97112e-06)
(1.99871e-05 6.37033e-06 -1.92801e-06)
(1.99812e-05 -6.39889e-06 -1.92768e-06)
(4.71676e-06 -1.6677e-05 -1.97012e-06)
(1.95606e-06 6.97252e-06 -4.83839e-08)
(4.56402e-06 2.77277e-06 -4.21246e-08)
(4.56204e-06 -2.77686e-06 -4.20577e-08)
(1.95069e-06 -6.97427e-06 -4.82803e-08)
(9.53732e-06 1.12921e-06 -8.57537e-10)
(1.03663e-05 4.5539e-07 -7.15443e-10)
(1.03657e-05 -4.56641e-07 -7.07709e-10)
(9.53631e-06 -1.12985e-06 -8.43792e-10)
(0.000333091 3.55035e-07 -7.24212e-11)
(0.000333255 1.45491e-07 -5.43776e-11)
(0.000333254 -1.45523e-07 -5.703e-11)
(0.00033309 -3.54972e-07 -2.4998e-12)
(0.00944139 6.84632e-08 -1.53268e-11)
(0.00944143 2.84447e-08 8.20736e-11)
(0.00944143 -2.7705e-08 -4.63341e-11)
(0.00944139 -6.78954e-08 -1.90691e-10)
(0.181564 1.44113e-08 -2.1801e-10)
(0.181564 6.21197e-09 6.28537e-11)
(0.181564 -5.76658e-09 1.35181e-10)
(0.181564 -1.46146e-08 -3.23383e-10)
)
;

boundaryField
{
    movingWall
    {
        type            fixedValue;
        value           uniform (1 0 0);
    }
    CPLReceiveMD
    {
        type            fixedValue;
        value           uniform (-0.0214335 0 -0.0249274);
    }
    streamwiseIn
    {
        type            cyclic;
    }
    streamwiseOut
    {
        type            cyclic;
    }
    front
    {
        type            cyclic;
    }
    back
    {
        type            cyclic;
    }
    procBoundary1to0
    {
        type            processor;
        value           nonuniform List<vector> 
64
(
(-0.0045872 0.00011897 0.000640143)
(-0.00022472 0.000129451 -1.24053e-05)
(-1.79156e-05 1.66564e-05 -1.58918e-06)
(-1.87792e-06 6.96517e-06 -5.37897e-08)
(8.34261e-06 1.12928e-06 -1.19735e-09)
(0.000332856 3.55296e-07 -5.78318e-12)
(0.00944132 6.81696e-08 6.90535e-11)
(0.181564 1.38729e-08 -3.60887e-11)
(-0.0045872 0.000118971 0.000640143)
(-0.00022472 0.000129451 -1.24053e-05)
(-1.79156e-05 1.66565e-05 -1.58915e-06)
(-1.87781e-06 6.96521e-06 -5.38029e-08)
(8.34255e-06 1.12929e-06 -1.11675e-09)
(0.000332856 3.55322e-07 1.10756e-10)
(0.00944133 6.81985e-08 1.84812e-10)
(0.181564 1.39281e-08 4.77457e-10)
(-0.0045872 0.000118971 0.000640144)
(-0.00022472 0.000129451 -1.24053e-05)
(-1.79156e-05 1.66566e-05 -1.58915e-06)
(-1.87779e-06 6.9652e-06 -5.38615e-08)
(8.3426e-06 1.12927e-06 -1.22179e-09)
(0.000332857 3.55342e-07 5.47263e-11)
(0.00944133 6.83585e-08 1.62101e-10)
(0.181564 1.41096e-08 5.80317e-10)
(-0.0045872 0.000118972 0.000640144)
(-0.000224719 0.000129452 -1.24053e-05)
(-1.79156e-05 1.66567e-05 -1.58913e-06)
(-1.8778e-06 6.9652e-06 -5.39956e-08)
(8.34261e-06 1.12929e-06 -1.21598e-09)
(0.000332857 3.55396e-07 2.4595e-11)
(0.00944133 6.84348e-08 1.84384e-10)
(0.181564 1.41804e-08 2.92148e-10)
(-0.0045872 0.000118972 0.000640144)
(-0.00022472 0.000129452 -1.24054e-05)
(-1.79156e-05 1.66567e-05 -1.58916e-06)
(-1.87782e-06 6.96518e-06 -5.40562e-08)
(8.34263e-06 1.1293e-06 -1.21138e-09)
(0.000332857 3.55421e-07 -6.44836e-11)
(0.00944133 6.84877e-08 -8.12924e-11)
(0.181564 1.42112e-08 -2.47382e-10)
(-0.0045872 0.000118972 0.000640143)
(-0.00022472 0.000129452 -1.24052e-05)
(-1.79157e-05 1.66567e-05 -1.58922e-06)
(-1.87786e-06 6.96518e-06 -5.40721e-08)
(8.34264e-06 1.12931e-06 -1.21572e-09)
(0.000332857 3.55373e-07 -1.2832e-10)
(0.00944133 6.83685e-08 -1.73499e-10)
(0.181564 1.40829e-08 -4.47849e-10)
(-0.0045872 0.000118971 0.000640143)
(-0.00022472 0.000129451 -1.24048e-05)
(-1.79157e-05 1.66566e-05 -1.58921e-06)
(-1.87794e-06 6.96518e-06 -5.4121e-08)
(8.34264e-06 1.12931e-06 -1.13703e-09)
(0.000332857 3.55362e-07 -6.57515e-11)
(0.00944133 6.83228e-08 -1.51013e-10)
(0.181564 1.40152e-08 -2.9686e-10)
(-0.0045872 0.000118971 0.000640144)
(-0.00022472 0.000129451 -1.2405e-05)
(-1.79157e-05 1.66564e-05 -1.5892e-06)
(-1.87792e-06 6.96521e-06 -5.39578e-08)
(8.34257e-06 1.12935e-06 -1.21909e-09)
(0.000332856 3.55293e-07 -8.83232e-11)
(0.00944132 6.82404e-08 -1.96849e-10)
(0.181564 1.39564e-08 -3.2177e-10)
)
;
    }
    procBoundary1to0throughstreamwiseOut
    {
        type            processorCyclic;
        value           nonuniform List<vector> 
64
(
(-0.00458707 -0.000118873 0.000641831)
(-0.000224758 -0.000129424 -1.23823e-05)
(-1.79299e-05 -1.66452e-05 -1.58859e-06)
(-1.88318e-06 -6.96347e-06 -5.41e-08)
(8.34156e-06 -1.12885e-06 -1.21423e-09)
(0.000332856 -3.55363e-07 -4.25457e-11)
(0.00944132 -6.8149e-08 -8.39976e-11)
(0.181564 -1.51112e-08 -1.24442e-10)
(-0.00458707 -0.000118873 0.000641832)
(-0.000224758 -0.000129425 -1.23827e-05)
(-1.79298e-05 -1.66452e-05 -1.5885e-06)
(-1.88319e-06 -6.96347e-06 -5.42525e-08)
(8.34165e-06 -1.12874e-06 -1.14532e-09)
(0.000332856 -3.55352e-07 2.69968e-11)
(0.00944133 -6.81213e-08 4.63764e-11)
(0.181564 -1.50567e-08 -1.10628e-10)
(-0.00458707 -0.000118873 0.000641831)
(-0.000224758 -0.000129424 -1.23828e-05)
(-1.79299e-05 -1.66451e-05 -1.58857e-06)
(-1.88308e-06 -6.96348e-06 -5.40758e-08)
(8.34164e-06 -1.12872e-06 -1.23043e-09)
(0.000332856 -3.55361e-07 -7.54704e-11)
(0.00944133 -6.81538e-08 -1.62183e-10)
(0.181564 -1.5052e-08 -3.11372e-10)
(-0.00458707 -0.000118872 0.000641832)
(-0.000224758 -0.000129424 -1.23827e-05)
(-1.79299e-05 -1.6645e-05 -1.58857e-06)
(-1.88306e-06 -6.96348e-06 -5.39363e-08)
(8.34164e-06 -1.12871e-06 -1.21743e-09)
(0.000332856 -3.55398e-07 -2.76703e-11)
(0.00944133 -6.82309e-08 -4.41919e-11)
(0.181564 -1.50626e-08 -5.6819e-12)
(-0.00458707 -0.000118872 0.000641831)
(-0.000224758 -0.000129424 -1.23826e-05)
(-1.79298e-05 -1.6645e-05 -1.5886e-06)
(-1.88307e-06 -6.96348e-06 -5.38466e-08)
(8.34163e-06 -1.12872e-06 -1.21129e-09)
(0.000332856 -3.55368e-07 -5.09804e-12)
(0.00944133 -6.81847e-08 1.38148e-10)
(0.181564 -1.50249e-08 2.27103e-10)
(-0.00458707 -0.000118873 0.000641831)
(-0.000224758 -0.000129424 -1.23822e-05)
(-1.79298e-05 -1.66449e-05 -1.58861e-06)
(-1.88309e-06 -6.96347e-06 -5.37426e-08)
(8.34163e-06 -1.12874e-06 -1.20079e-09)
(0.000332856 -3.5534e-07 -2.3505e-11)
(0.00944133 -6.81366e-08 1.82552e-11)
(0.181564 -1.50248e-08 3.43743e-10)
(-0.00458707 -0.000118873 0.000641831)
(-0.000224758 -0.000129424 -1.23819e-05)
(-1.79298e-05 -1.6645e-05 -1.58851e-06)
(-1.88312e-06 -6.96347e-06 -5.37468e-08)
(8.34156e-06 -1.1288e-06 -1.11047e-09)
(0.000332856 -3.55358e-07 4.18412e-11)
(0.00944133 -6.80494e-08 1.06883e-10)
(0.181564 -1.49575e-08 2.08697e-10)
(-0.00458707 -0.000118873 0.00064183)
(-0.000224758 -0.000129424 -1.2382e-05)
(-1.79298e-05 -1.66451e-05 -1.58858e-06)
(-1.88324e-06 -6.96347e-06 -5.38377e-08)
(8.34161e-06 -1.12879e-06 -1.20288e-09)
(0.000332856 -3.55331e-07 -5.70944e-11)
(0.00944132 -6.80902e-08 -2.15902e-11)
(0.181564 -1.50433e-08 -2.27447e-10)
)
;
    }
}


// ************************************************************************* //
