/*--------------------------------*- C++ -*----------------------------------*\
| =========                 |                                                 |
| \\      /  F ield         | OpenFOAM: The Open Source CFD Toolbox           |
|  \\    /   O peration     | Version:  2306                                  |
|   \\  /    A nd           | Website:  www.openfoam.com                      |
|    \\/     M anipulation  |                                                 |
\*---------------------------------------------------------------------------*/
FoamFile
{
    version     2.0;
    format      ascii;
    arch        "LSB;label=32;scalar=64";
    class       volVectorField;
    location    "2";
    object      U_0;
}
// * * * * * * * * * * * * * * * * * * * * * * * * * * * * * * * * * * * * * //

dimensions      [0 1 -1 0 0 0 0];

internalField   nonuniform List<vector> 
256
(
(-0.00462733 0.000122641 -0.000570079)
(-0.00455806 4.47774e-05 -0.000823582)
(-0.00455811 -4.4966e-05 -0.000823361)
(-0.00462721 -0.000122733 -0.000568645)
(-0.000175492 0.000133563 -4.98121e-05)
(-0.000150546 4.89193e-05 -5.42371e-05)
(-0.000150563 -4.89582e-05 -5.42285e-05)
(-0.000175524 -0.000133584 -4.97801e-05)
(5.7859e-06 1.7023e-05 -1.73687e-06)
(2.10725e-05 6.49209e-06 -1.64667e-06)
(2.10678e-05 -6.51672e-06 -1.64648e-06)
(5.77412e-06 -1.70333e-05 -1.73612e-06)
(1.93832e-06 6.97396e-06 -3.90111e-08)
(4.53523e-06 2.77024e-06 -3.28386e-08)
(4.53335e-06 -2.77411e-06 -3.28418e-08)
(1.93361e-06 -6.97595e-06 -3.89752e-08)
(7.96036e-06 1.12576e-06 -6.70572e-10)
(8.76804e-06 4.53992e-07 -4.26782e-10)
(8.76752e-06 -4.54777e-07 -3.87529e-10)
(7.95936e-06 -1.1259e-06 -5.71093e-10)
(0.000288586 3.46369e-07 -1.12238e-11)
(0.000288745 1.42019e-07 -8.90135e-12)
(0.000288745 -1.41704e-07 2.69912e-11)
(0.000288585 -3.45973e-07 -1.89217e-11)
(0.00859551 6.60944e-08 -1.00844e-10)
(0.00859556 2.73016e-08 -5.49478e-11)
(0.00859556 -2.72082e-08 6.05515e-11)
(0.00859551 -6.62604e-08 4.21724e-11)
(0.173755 1.36058e-08 -9.14411e-11)
(0.173755 5.6163e-09 -2.66602e-11)
(0.173755 -6.00688e-09 3.97125e-11)
(0.173755 -1.46512e-08 -1.22081e-11)
(-0.00462733 0.000122641 -0.00057008)
(-0.00455805 4.47775e-05 -0.000823582)
(-0.00455811 -4.49658e-05 -0.000823361)
(-0.00462721 -0.000122732 -0.000568645)
(-0.000175492 0.000133564 -4.98122e-05)
(-0.000150546 4.89194e-05 -5.42372e-05)
(-0.000150563 -4.89581e-05 -5.42286e-05)
(-0.000175524 -0.000133584 -4.97802e-05)
(5.78584e-06 1.70231e-05 -1.737e-06)
(2.10725e-05 6.49221e-06 -1.64672e-06)
(2.10677e-05 -6.51675e-06 -1.64645e-06)
(5.77418e-06 -1.70333e-05 -1.73623e-06)
(1.93835e-06 6.974e-06 -3.90121e-08)
(4.53523e-06 2.77025e-06 -3.2885e-08)
(4.53337e-06 -2.77409e-06 -3.28656e-08)
(1.93361e-06 -6.97589e-06 -3.89609e-08)
(7.96041e-06 1.12577e-06 -6.44035e-10)
(8.76806e-06 4.53989e-07 -5.0382e-10)
(8.76763e-06 -4.54763e-07 -4.45188e-10)
(7.9594e-06 -1.1259e-06 -5.37577e-10)
(0.000288586 3.46381e-07 3.58011e-11)
(0.000288745 1.41999e-07 -2.51392e-11)
(0.000288745 -1.41663e-07 2.51941e-11)
(0.000288586 -3.45969e-07 8.1228e-12)
(0.00859552 6.61317e-08 -9.37885e-12)
(0.00859556 2.73894e-08 -2.05027e-10)
(0.00859556 -2.71036e-08 1.10899e-10)
(0.00859552 -6.61958e-08 1.13781e-10)
(0.173755 1.36727e-08 -7.58967e-11)
(0.173755 5.74913e-09 -2.4609e-10)
(0.173755 -5.88973e-09 4.63344e-10)
(0.173755 -1.45597e-08 4.84638e-10)
(-0.00462733 0.000122642 -0.000570078)
(-0.00455805 4.47778e-05 -0.000823582)
(-0.00455811 -4.49657e-05 -0.000823361)
(-0.00462721 -0.000122732 -0.000568645)
(-0.000175492 0.000133564 -4.9812e-05)
(-0.000150546 4.89197e-05 -5.42368e-05)
(-0.000150563 -4.8958e-05 -5.42287e-05)
(-0.000175524 -0.000133584 -4.97803e-05)
(5.78589e-06 1.70232e-05 -1.73692e-06)
(2.10726e-05 6.49218e-06 -1.64669e-06)
(2.10677e-05 -6.51671e-06 -1.64643e-06)
(5.77408e-06 -1.70332e-05 -1.7362e-06)
(1.93834e-06 6.974e-06 -3.90367e-08)
(4.53524e-06 2.77025e-06 -3.28873e-08)
(4.53339e-06 -2.77409e-06 -3.28714e-08)
(1.93362e-06 -6.97587e-06 -3.89876e-08)
(7.96039e-06 1.12578e-06 -6.58356e-10)
(8.76808e-06 4.53991e-07 -4.93117e-10)
(8.76767e-06 -4.54764e-07 -4.82325e-10)
(7.95946e-06 -1.12591e-06 -6.50562e-10)
(0.000288586 3.46363e-07 -9.19809e-12)
(0.000288745 1.41955e-07 -2.34674e-11)
(0.000288745 -1.41669e-07 -7.93825e-12)
(0.000288586 -3.45969e-07 -1.56255e-12)
(0.00859552 6.60971e-08 -1.77697e-10)
(0.00859556 2.72821e-08 -2.78109e-10)
(0.00859556 -2.69473e-08 -5.21635e-11)
(0.00859552 -6.6012e-08 1.3469e-10)
(0.173755 1.3686e-08 -2.80234e-10)
(0.173755 5.71408e-09 -4.11437e-10)
(0.173755 -5.69746e-09 -5.6687e-11)
(0.173755 -1.43574e-08 5.73856e-10)
(-0.00462733 0.000122642 -0.000570079)
(-0.00455806 4.47779e-05 -0.000823582)
(-0.00455811 -4.49655e-05 -0.000823361)
(-0.00462721 -0.000122732 -0.000568645)
(-0.000175492 0.000133564 -4.98118e-05)
(-0.000150546 4.89197e-05 -5.4237e-05)
(-0.000150563 -4.89579e-05 -5.42287e-05)
(-0.000175524 -0.000133584 -4.97804e-05)
(5.78593e-06 1.70231e-05 -1.73693e-06)
(2.10726e-05 6.49218e-06 -1.64667e-06)
(2.10677e-05 -6.5167e-06 -1.64644e-06)
(5.77404e-06 -1.70332e-05 -1.7362e-06)
(1.93835e-06 6.97401e-06 -3.90163e-08)
(4.53525e-06 2.77025e-06 -3.28766e-08)
(4.53339e-06 -2.77408e-06 -3.28762e-08)
(1.93361e-06 -6.97587e-06 -3.89943e-08)
(7.96038e-06 1.12579e-06 -6.32616e-10)
(8.76807e-06 4.53991e-07 -4.68405e-10)
(8.76766e-06 -4.5476e-07 -4.88083e-10)
(7.95944e-06 -1.1259e-06 -6.75505e-10)
(0.000288586 3.46317e-07 2.00552e-11)
(0.000288745 1.41902e-07 -1.41578e-12)
(0.000288745 -1.41675e-07 3.66236e-12)
(0.000288586 -3.45916e-07 1.52131e-11)
(0.00859552 6.60134e-08 -3.69546e-11)
(0.00859556 2.72344e-08 -1.3486e-10)
(0.00859556 -2.70365e-08 -1.07253e-12)
(0.00859552 -6.59272e-08 1.75933e-10)
(0.173755 1.36742e-08 -2.93107e-12)
(0.173755 5.69941e-09 -9.46278e-11)
(0.173755 -5.77212e-09 -3.82796e-10)
(0.173755 -1.428e-08 2.81463e-10)
(-0.00462733 0.000122642 -0.000570079)
(-0.00455806 4.47781e-05 -0.000823582)
(-0.00455811 -4.49653e-05 -0.000823361)
(-0.00462721 -0.000122732 -0.000568645)
(-0.000175492 0.000133564 -4.9812e-05)
(-0.000150546 4.89198e-05 -5.42371e-05)
(-0.000150563 -4.89578e-05 -5.42287e-05)
(-0.000175524 -0.000133584 -4.97802e-05)
(5.78594e-06 1.70232e-05 -1.73696e-06)
(2.10726e-05 6.49221e-06 -1.64672e-06)
(2.10677e-05 -6.51667e-06 -1.64644e-06)
(5.77402e-06 -1.70331e-05 -1.73616e-06)
(1.93836e-06 6.97402e-06 -3.90061e-08)
(4.53524e-06 2.77026e-06 -3.28821e-08)
(4.5334e-06 -2.77408e-06 -3.28789e-08)
(1.93361e-06 -6.97586e-06 -3.90149e-08)
(7.9604e-06 1.12579e-06 -6.6013e-10)
(8.76806e-06 4.53997e-07 -4.77517e-10)
(8.76764e-06 -4.54756e-07 -4.96372e-10)
(7.95943e-06 -1.12589e-06 -6.71997e-10)
(0.000288586 3.46342e-07 3.40212e-14)
(0.000288745 1.41901e-07 2.90281e-12)
(0.000288745 -1.41665e-07 -2.45617e-11)
(0.000288586 -3.45893e-07 -2.13357e-11)
(0.00859552 6.60574e-08 1.46451e-10)
(0.00859556 2.72117e-08 9.27121e-11)
(0.00859556 -2.70449e-08 -3.39238e-11)
(0.00859552 -6.58772e-08 -6.62972e-11)
(0.173755 1.37078e-08 2.16011e-10)
(0.173755 5.6767e-09 -1.89132e-10)
(0.173755 -5.80627e-09 1.24882e-10)
(0.173755 -1.42498e-08 -2.38089e-10)
(-0.00462733 0.000122642 -0.000570079)
(-0.00455806 4.47782e-05 -0.000823582)
(-0.00455811 -4.49654e-05 -0.000823361)
(-0.00462721 -0.000122732 -0.000568645)
(-0.000175492 0.000133564 -4.9812e-05)
(-0.000150546 4.89199e-05 -5.4237e-05)
(-0.000150563 -4.89578e-05 -5.42286e-05)
(-0.000175524 -0.000133584 -4.97802e-05)
(5.78594e-06 1.70232e-05 -1.73691e-06)
(2.10726e-05 6.49223e-06 -1.64666e-06)
(2.10677e-05 -6.51666e-06 -1.64643e-06)
(5.77405e-06 -1.70332e-05 -1.7361e-06)
(1.93835e-06 6.97403e-06 -3.90038e-08)
(4.53524e-06 2.77027e-06 -3.28782e-08)
(4.53338e-06 -2.77408e-06 -3.2884e-08)
(1.93359e-06 -6.97587e-06 -3.90266e-08)
(7.96041e-06 1.12579e-06 -7.07188e-10)
(8.76806e-06 4.54e-07 -5.22557e-10)
(8.76763e-06 -4.54761e-07 -5.14931e-10)
(7.95944e-06 -1.12589e-06 -6.96765e-10)
(0.000288586 3.46374e-07 -4.82031e-11)
(0.000288745 1.41933e-07 -4.76025e-12)
(0.000288745 -1.41685e-07 -4.52375e-11)
(0.000288586 -3.45934e-07 -4.59015e-11)
(0.00859552 6.61082e-08 4.291e-11)
(0.00859556 2.71305e-08 2.32803e-10)
(0.00859556 -2.7042e-08 -1.06774e-10)
(0.00859552 -6.6007e-08 -1.41401e-10)
(0.173755 1.37077e-08 3.06418e-10)
(0.173755 5.58076e-09 3.0331e-10)
(0.173755 -5.81445e-09 -1.98762e-10)
(0.173755 -1.43856e-08 -4.48411e-10)
(-0.00462733 0.000122642 -0.000570079)
(-0.00455806 4.4778e-05 -0.000823582)
(-0.00455811 -4.49655e-05 -0.000823361)
(-0.00462721 -0.000122732 -0.000568645)
(-0.000175492 0.000133564 -4.98117e-05)
(-0.000150546 4.89198e-05 -5.42368e-05)
(-0.000150563 -4.89579e-05 -5.42285e-05)
(-0.000175524 -0.000133584 -4.97802e-05)
(5.78597e-06 1.70232e-05 -1.73684e-06)
(2.10726e-05 6.49221e-06 -1.64659e-06)
(2.10677e-05 -6.5167e-06 -1.64634e-06)
(5.7741e-06 -1.70332e-05 -1.7361e-06)
(1.93832e-06 6.97401e-06 -3.89586e-08)
(4.53522e-06 2.77025e-06 -3.28562e-08)
(4.53338e-06 -2.77409e-06 -3.28553e-08)
(1.93362e-06 -6.9759e-06 -3.8984e-08)
(7.96035e-06 1.12578e-06 -6.22346e-10)
(8.76807e-06 4.54001e-07 -5.27784e-10)
(8.76763e-06 -4.54762e-07 -5.58743e-10)
(7.95944e-06 -1.1259e-06 -7.17037e-10)
(0.000288586 3.46378e-07 -1.45031e-11)
(0.000288745 1.42e-07 8.18464e-12)
(0.000288745 -1.41698e-07 -1.57697e-11)
(0.000288586 -3.45933e-07 6.93859e-12)
(0.00859552 6.61951e-08 1.31706e-10)
(0.00859556 2.73055e-08 2.4018e-10)
(0.00859556 -2.71987e-08 2.53711e-11)
(0.00859552 -6.60791e-08 -1.10948e-10)
(0.173755 1.37618e-08 1.5566e-10)
(0.173755 5.6741e-09 6.27229e-10)
(0.173755 -5.97788e-09 -1.07908e-10)
(0.173755 -1.44786e-08 -3.23562e-10)
(-0.00462733 0.000122641 -0.000570078)
(-0.00455805 4.47776e-05 -0.000823582)
(-0.00455811 -4.49658e-05 -0.000823361)
(-0.00462721 -0.000122732 -0.000568645)
(-0.000175492 0.000133564 -4.98118e-05)
(-0.000150547 4.89195e-05 -5.42367e-05)
(-0.000150563 -4.89581e-05 -5.42286e-05)
(-0.000175524 -0.000133584 -4.97801e-05)
(5.78586e-06 1.70231e-05 -1.73675e-06)
(2.10726e-05 6.49215e-06 -1.64661e-06)
(2.10677e-05 -6.51673e-06 -1.64636e-06)
(5.77412e-06 -1.70332e-05 -1.73606e-06)
(1.93834e-06 6.97402e-06 -3.89804e-08)
(4.5352e-06 2.77023e-06 -3.28245e-08)
(4.53338e-06 -2.77414e-06 -3.28215e-08)
(1.93359e-06 -6.97591e-06 -3.89797e-08)
(7.96034e-06 1.12577e-06 -6.27566e-10)
(8.76794e-06 4.54001e-07 -4.30417e-10)
(8.7676e-06 -4.54768e-07 -4.76769e-10)
(7.95941e-06 -1.12589e-06 -7.00841e-10)
(0.000288586 3.46411e-07 -4.25442e-11)
(0.000288745 1.42037e-07 1.00339e-11)
(0.000288745 -1.41653e-07 -4.89736e-12)
(0.000288585 -3.45956e-07 -1.23157e-11)
(0.00859551 6.61629e-08 3.03974e-12)
(0.00859556 2.73528e-08 1.06919e-10)
(0.00859556 -2.71361e-08 -3.21719e-12)
(0.00859551 -6.61832e-08 -1.48696e-10)
(0.173755 1.36703e-08 -2.27593e-10)
(0.173755 5.69242e-09 3.74077e-11)
(0.173755 -5.95768e-09 1.18213e-10)
(0.173755 -1.45694e-08 -3.17694e-10)
)
;

boundaryField
{
    movingWall
    {
        type            fixedValue;
        value           uniform (1 0 0);
    }
    CPLReceiveMD
    {
        type            fixedValue;
        value           uniform (-0.0378745 0 0.00853284);
    }
    streamwiseIn
    {
        type            cyclic;
    }
    streamwiseOut
    {
        type            cyclic;
    }
    front
    {
        type            cyclic;
    }
    back
    {
        type            cyclic;
    }
    procBoundary1to0
    {
        type            processor;
        value           nonuniform List<vector> 
64
(
(-0.00435797 0.000122771 0.00100572)
(-0.0002041 0.000133611 -1.53581e-05)
(-1.6974e-05 1.70094e-05 -1.51655e-06)
(-1.882e-06 6.96703e-06 -4.62741e-08)
(6.795e-06 1.12586e-06 -9.47463e-10)
(0.000288359 3.46744e-07 2.45434e-12)
(0.00859545 6.58958e-08 6.41732e-11)
(0.173755 1.31971e-08 -2.41227e-12)
(-0.00435797 0.000122771 0.00100572)
(-0.0002041 0.000133611 -1.53584e-05)
(-1.69741e-05 1.70095e-05 -1.51661e-06)
(-1.882e-06 6.967e-06 -4.63298e-08)
(6.79501e-06 1.12587e-06 -9.5846e-10)
(0.000288359 3.46805e-07 4.22246e-11)
(0.00859545 6.59671e-08 1.38146e-10)
(0.173755 1.32758e-08 5.00404e-10)
(-0.00435797 0.000122772 0.00100572)
(-0.0002041 0.000133612 -1.5358e-05)
(-1.6974e-05 1.70096e-05 -1.51667e-06)
(-1.88202e-06 6.96705e-06 -4.6317e-08)
(6.795e-06 1.1259e-06 -9.05181e-10)
(0.000288359 3.46806e-07 7.4562e-11)
(0.00859546 6.61247e-08 1.41433e-10)
(0.173755 1.34659e-08 5.82811e-10)
(-0.00435797 0.000122772 0.00100572)
(-0.0002041 0.000133612 -1.53579e-05)
(-1.69739e-05 1.70096e-05 -1.51662e-06)
(-1.88202e-06 6.96707e-06 -4.63278e-08)
(6.79501e-06 1.12591e-06 -9.36164e-10)
(0.000288359 3.46847e-07 1.43443e-11)
(0.00859546 6.62001e-08 1.65856e-10)
(0.173755 1.35393e-08 2.82537e-10)
(-0.00435797 0.000122772 0.00100572)
(-0.0002041 0.000133612 -1.53581e-05)
(-1.69739e-05 1.70097e-05 -1.51662e-06)
(-1.882e-06 6.96708e-06 -4.63144e-08)
(6.79502e-06 1.12592e-06 -9.74216e-10)
(0.000288359 3.46867e-07 -7.95455e-11)
(0.00859546 6.62548e-08 -7.64163e-11)
(0.173755 1.35707e-08 -2.38946e-10)
(-0.00435797 0.000122772 0.00100572)
(-0.0002041 0.000133612 -1.5358e-05)
(-1.69739e-05 1.70097e-05 -1.51657e-06)
(-1.88199e-06 6.96708e-06 -4.62718e-08)
(6.79502e-06 1.1259e-06 -9.54328e-10)
(0.000288359 3.4683e-07 -9.06246e-11)
(0.00859546 6.61416e-08 -1.34638e-10)
(0.173755 1.34415e-08 -4.53025e-10)
(-0.00435797 0.000122772 0.00100572)
(-0.0002041 0.000133612 -1.53577e-05)
(-1.6974e-05 1.70096e-05 -1.51639e-06)
(-1.88202e-06 6.96707e-06 -4.62763e-08)
(6.79496e-06 1.12588e-06 -9.40143e-10)
(0.000288359 3.46819e-07 -5.72108e-11)
(0.00859545 6.60729e-08 -1.29981e-10)
(0.173755 1.33538e-08 -3.41462e-10)
(-0.00435796 0.000122771 0.00100572)
(-0.0002041 0.000133611 -1.53576e-05)
(-1.6974e-05 1.70095e-05 -1.51643e-06)
(-1.88199e-06 6.96701e-06 -4.62524e-08)
(6.795e-06 1.12587e-06 -9.18051e-10)
(0.000288359 3.46777e-07 -2.56844e-11)
(0.00859545 6.59905e-08 -1.70156e-10)
(0.173755 1.32801e-08 -3.29924e-10)
)
;
    }
    procBoundary1to0throughstreamwiseOut
    {
        type            processorCyclic;
        value           nonuniform List<vector> 
64
(
(-0.00435785 -0.000122687 0.00100714)
(-0.000204133 -0.000133589 -1.53414e-05)
(-1.69858e-05 -1.69994e-05 -1.51606e-06)
(-1.8866e-06 -6.96607e-06 -4.62507e-08)
(6.79414e-06 -1.12503e-06 -8.68982e-10)
(0.000288358 -3.46404e-07 -4.22935e-11)
(0.00859545 -6.64097e-08 -1.08092e-10)
(0.173755 -1.50125e-08 -9.92639e-11)
(-0.00435785 -0.000122687 0.00100714)
(-0.000204133 -0.000133588 -1.53417e-05)
(-1.69858e-05 -1.69994e-05 -1.51613e-06)
(-1.88664e-06 -6.96606e-06 -4.62829e-08)
(6.79411e-06 -1.12503e-06 -8.32834e-10)
(0.000288358 -3.46413e-07 -3.65875e-11)
(0.00859545 -6.63469e-08 -3.02956e-11)
(0.173755 -1.49252e-08 -8.50093e-11)
(-0.00435785 -0.000122686 0.00100714)
(-0.000204133 -0.000133588 -1.53417e-05)
(-1.69858e-05 -1.69993e-05 -1.5162e-06)
(-1.88663e-06 -6.96601e-06 -4.62864e-08)
(6.79413e-06 -1.12504e-06 -9.16558e-10)
(0.000288358 -3.46453e-07 -5.23327e-11)
(0.00859546 -6.63756e-08 -1.69799e-10)
(0.173755 -1.49039e-08 -2.85495e-10)
(-0.00435785 -0.000122686 0.00100714)
(-0.000204133 -0.000133588 -1.53418e-05)
(-1.69859e-05 -1.69992e-05 -1.51614e-06)
(-1.88665e-06 -6.96599e-06 -4.63123e-08)
(6.79414e-06 -1.12505e-06 -9.81961e-10)
(0.000288359 -3.46485e-07 -2.01839e-11)
(0.00859546 -6.64473e-08 -4.90347e-11)
(0.173755 -1.49105e-08 -1.10105e-11)
(-0.00435785 -0.000122686 0.00100714)
(-0.000204133 -0.000133588 -1.53417e-05)
(-1.69859e-05 -1.69992e-05 -1.51607e-06)
(-1.88666e-06 -6.96599e-06 -4.63238e-08)
(6.79414e-06 -1.12503e-06 -9.59376e-10)
(0.000288359 -3.46457e-07 8.99491e-12)
(0.00859546 -6.64047e-08 1.32811e-10)
(0.173755 -1.48739e-08 2.09247e-10)
(-0.00435785 -0.000122686 0.00100714)
(-0.000204133 -0.000133588 -1.53416e-05)
(-1.69859e-05 -1.69992e-05 -1.516e-06)
(-1.88664e-06 -6.966e-06 -4.6291e-08)
(6.79414e-06 -1.12502e-06 -9.54669e-10)
(0.000288359 -3.46429e-07 2.84117e-11)
(0.00859546 -6.63646e-08 5.20584e-11)
(0.173755 -1.48803e-08 3.20418e-10)
(-0.00435785 -0.000122686 0.00100714)
(-0.000204133 -0.000133588 -1.53416e-05)
(-1.69859e-05 -1.69993e-05 -1.51592e-06)
(-1.88661e-06 -6.96602e-06 -4.62731e-08)
(6.79415e-06 -1.12501e-06 -1.02122e-09)
(0.000288358 -3.46433e-07 2.5905e-11)
(0.00859545 -6.63006e-08 1.44289e-10)
(0.173755 -1.48359e-08 1.75503e-10)
(-0.00435785 -0.000122687 0.00100714)
(-0.000204133 -0.000133588 -1.53414e-05)
(-1.69858e-05 -1.69993e-05 -1.51598e-06)
(-1.88661e-06 -6.96608e-06 -4.62478e-08)
(6.79416e-06 -1.12501e-06 -9.96674e-10)
(0.000288358 -3.46348e-07 -3.13665e-11)
(0.00859545 -6.63282e-08 2.64812e-11)
(0.173755 -1.49382e-08 -2.24407e-10)
)
;
    }
}


// ************************************************************************* //
