/*--------------------------------*- C++ -*----------------------------------*\
| =========                 |                                                 |
| \\      /  F ield         | OpenFOAM: The Open Source CFD Toolbox           |
|  \\    /   O peration     | Version:  2306                                  |
|   \\  /    A nd           | Website:  www.openfoam.com                      |
|    \\/     M anipulation  |                                                 |
\*---------------------------------------------------------------------------*/
FoamFile
{
    version     2.0;
    format      ascii;
    arch        "LSB;label=32;scalar=64";
    class       volScalarField;
    location    "4";
    object      p;
}
// * * * * * * * * * * * * * * * * * * * * * * * * * * * * * * * * * * * * * //

dimensions      [0 2 -2 0 0 0 0];

internalField   nonuniform List<scalar> 
256
(
0.00353538
0.00170911
2.00998e-10
-0.00182598
0.00108794
0.000940967
0.000768598
0.000622078
0.000972749
0.000901102
0.000809257
0.000737634
0.00087528
0.000863288
0.000847116
0.00083513
0.000858992
0.00085676
0.000853643
0.000851412
0.000855244
0.000855217
0.00085518
0.000855142
0.000855812
0.000855438
0.000854917
0.000854554
0.000855313
0.000855247
0.000855152
0.000855085
0.0035354
0.00170912
2.95672e-08
-0.00182597
0.00108794
0.000940966
0.000768601
0.000622086
0.000972743
0.000901099
0.000809258
0.00073764
0.000875264
0.00086328
0.000847119
0.000835141
0.000858985
0.000856758
0.000853645
0.000851417
0.000855244
0.000855218
0.000855182
0.000855144
0.000855814
0.000855441
0.000854919
0.000854554
0.000855314
0.000855249
0.000855155
0.000855085
0.00353541
0.00170915
5.56673e-08
-0.00182594
0.00108793
0.000940967
0.000768609
0.0006221
0.000972736
0.000901096
0.000809261
0.000737648
0.00087525
0.000863275
0.000847124
0.000835153
0.000858978
0.000856754
0.000853646
0.000851421
0.000855244
0.000855217
0.000855182
0.000855146
0.000855815
0.00085544
0.000854917
0.000854553
0.000855313
0.000855249
0.000855154
0.000855083
0.00353541
0.00170916
7.54344e-08
-0.00182592
0.00108793
0.000940965
0.000768615
0.000622109
0.000972731
0.000901094
0.000809263
0.000737653
0.000875245
0.000863275
0.000847129
0.000835159
0.000858975
0.000856753
0.000853646
0.000851422
0.000855244
0.000855217
0.000855182
0.000855147
0.000855815
0.000855438
0.000854915
0.000854552
0.000855312
0.000855247
0.000855151
0.000855081
0.00353542
0.00170917
8.38854e-08
-0.00182592
0.00108793
0.000940968
0.00076862
0.000622112
0.000972731
0.000901096
0.000809267
0.000737655
0.00087525
0.00086328
0.00084713
0.000835157
0.000858977
0.000856753
0.000853645
0.000851421
0.000855244
0.000855217
0.000855182
0.000855147
0.000855815
0.000855436
0.000854914
0.000854552
0.000855311
0.000855245
0.000855148
0.00085508
0.00353541
0.00170916
7.67967e-08
-0.00182592
0.00108793
0.000940972
0.000768622
0.000622108
0.000972735
0.000901101
0.000809268
0.000737652
0.000875263
0.000863286
0.000847128
0.000835148
0.000858981
0.000856755
0.000853644
0.000851418
0.000855244
0.000855217
0.000855181
0.000855146
0.000855813
0.000855436
0.000854914
0.000854553
0.000855313
0.000855245
0.000855149
0.000855082
0.0035354
0.00170914
5.95061e-08
-0.00182594
0.00108794
0.000940974
0.000768615
0.000622098
0.000972743
0.000901105
0.000809265
0.000737643
0.000875277
0.000863292
0.000847123
0.000835136
0.000858988
0.000856757
0.000853641
0.000851414
0.000855244
0.000855215
0.000855178
0.000855144
0.000855812
0.000855436
0.000854914
0.000854554
0.000855315
0.000855247
0.000855151
0.000855086
0.00353539
0.00170912
2.91975e-08
-0.00182596
0.00108794
0.00094097
0.000768603
0.000622085
0.000972749
0.000901105
0.000809259
0.000737635
0.000875285
0.000863293
0.000847117
0.000835127
0.000858993
0.000856759
0.00085364
0.000851411
0.000855245
0.000855215
0.000855178
0.000855142
0.000855811
0.000855437
0.000854916
0.000854555
0.000855315
0.000855248
0.000855153
0.000855087
)
;

boundaryField
{
    movingWall
    {
        type            zeroGradient;
    }
    CPLReceiveMD
    {
        type            zeroGradient;
    }
    streamwiseIn
    {
        type            cyclic;
    }
    streamwiseOut
    {
        type            cyclic;
    }
    front
    {
        type            cyclic;
    }
    back
    {
        type            cyclic;
    }
    procBoundary0to1
    {
        type            processor;
        value           nonuniform List<scalar> 
64
(
-0.00182523
0.000622449
0.00073825
0.000834982
0.000851406
0.000855136
0.000854562
0.000855088
-0.00182523
0.000622462
0.00073826
0.000834994
0.000851409
0.000855136
0.000854561
0.000855088
-0.00182521
0.000622478
0.000738269
0.000835006
0.000851412
0.000855138
0.000854559
0.000855086
-0.0018252
0.000622485
0.000738273
0.000835009
0.000851414
0.000855139
0.000854559
0.000855084
-0.0018252
0.000622484
0.000738272
0.000835005
0.000851413
0.00085514
0.000854559
0.000855083
-0.0018252
0.000622476
0.000738265
0.000834995
0.000851412
0.00085514
0.000854561
0.000855086
-0.00182521
0.000622463
0.000738255
0.000834984
0.000851408
0.000855139
0.000854563
0.000855089
-0.00182523
0.00062245
0.000738248
0.000834978
0.000851405
0.000855136
0.000854562
0.000855091
)
;
    }
    procBoundary0to1throughstreamwiseIn
    {
        type            processorCyclic;
        value           nonuniform List<scalar> 
64
(
0.00353645
0.00108825
0.000972184
0.000875446
0.000859004
0.00085524
0.00085582
0.000855311
0.00353646
0.00108826
0.000972181
0.000875431
0.000858995
0.000855239
0.000855821
0.000855313
0.00353647
0.00108825
0.000972175
0.000875415
0.000858988
0.000855238
0.000855822
0.000855314
0.00353647
0.00108825
0.00097217
0.000875408
0.000858985
0.000855238
0.000855823
0.000855313
0.00353647
0.00108825
0.000972166
0.000875411
0.000858987
0.000855239
0.000855823
0.000855312
0.00353646
0.00108824
0.000972168
0.000875422
0.000858993
0.00085524
0.000855822
0.000855312
0.00353646
0.00108825
0.000972174
0.000875438
0.000859001
0.000855241
0.000855821
0.000855314
0.00353645
0.00108825
0.000972181
0.000875449
0.000859005
0.000855241
0.000855819
0.000855314
)
;
    }
}


// ************************************************************************* //
