/*--------------------------------*- C++ -*----------------------------------*\
| =========                 |                                                 |
| \\      /  F ield         | OpenFOAM: The Open Source CFD Toolbox           |
|  \\    /   O peration     | Version:  2306                                  |
|   \\  /    A nd           | Website:  www.openfoam.com                      |
|    \\/     M anipulation  |                                                 |
\*---------------------------------------------------------------------------*/
FoamFile
{
    version     2.0;
    format      ascii;
    arch        "LSB;label=32;scalar=64";
    class       surfaceScalarField;
    location    "4";
    object      phi;
}
// * * * * * * * * * * * * * * * * * * * * * * * * * * * * * * * * * * * * * //

dimensions      [0 3 -1 0 0 0 0];

oriented        oriented;

internalField   nonuniform List<scalar> 
640
(
-0.0742866
0.000662016
-0.0762582
-0.074499
0.000212497
-0.0744832
-0.074287
-0.000212
-0.0745091
-0.000661919
-0.0763098
-0.0084581
0.000205946
-0.00440903
-0.00831277
6.71656e-05
-0.00386245
-0.00845773
-6.70451e-05
-0.00386436
-0.000205919
-0.00441381
-0.000433938
2.38457e-05
-0.000183583
-0.000375273
8.50255e-06
-0.00014599
-0.000433928
-8.3894e-06
-0.000146075
-2.38005e-05
-0.000183808
4.20911e-05
8.96722e-06
-7.2275e-06
4.70643e-05
3.52877e-06
-5.70725e-06
4.21857e-05
-3.51093e-06
-5.71091e-06
-8.96024e-06
-7.23645e-06
0.00138789
1.13171e-06
-2.81004e-07
0.00139097
4.52203e-07
-2.38545e-07
0.00138791
-4.50056e-07
-2.37896e-07
-1.13116e-06
-2.80121e-07
0.0263268
3.75589e-07
-1.03256e-08
0.0263271
1.51548e-07
-1.01552e-08
0.0263268
-1.5663e-07
-8.96881e-09
-3.77407e-07
-9.73689e-09
0.38062
6.75775e-08
-5.6327e-10
0.38062
2.33707e-08
-2.36272e-09
0.38062
-3.70055e-08
1.06535e-09
-7.08345e-08
1.04858e-09
3.75333
-6.75546e-10
3.75333
-4.21129e-09
3.75333
8.11489e-10
2.79385e-09
-0.0742866
0.000662016
-0.0762582
-0.074499
0.000212497
-0.0744832
-0.074287
-0.000212002
-0.0745091
-0.000661919
-0.0763098
-0.0084581
0.000205947
-0.00440903
-0.00831277
6.71656e-05
-0.00386245
-0.00845773
-6.70453e-05
-0.00386436
-0.000205919
-0.00441381
-0.000433937
2.38448e-05
-0.000183584
-0.000375273
8.50208e-06
-0.000145991
-0.000433928
-8.38923e-06
-0.000146076
-2.37994e-05
-0.000183809
4.20894e-05
8.96836e-06
-7.22738e-06
4.70623e-05
3.52934e-06
-5.70737e-06
4.21843e-05
-3.5109e-06
-5.71115e-06
-8.96066e-06
-7.23679e-06
0.00138789
1.13207e-06
-2.80443e-07
0.00139097
4.52336e-07
-2.3795e-07
0.00138791
-4.49642e-07
-2.37374e-07
-1.13121e-06
-2.79746e-07
0.0263268
3.75737e-07
-1.03013e-08
0.0263271
1.51632e-07
-1.03155e-08
0.0263268
-1.562e-07
-9.26273e-09
-3.77142e-07
-9.40326e-09
0.38062
6.76456e-08
-3.44266e-10
0.38062
2.3318e-08
-3.32842e-09
0.38062
-3.67207e-08
3.20557e-10
-7.08044e-08
2.92569e-09
3.75333
-2.06748e-09
3.75333
-5.75398e-09
3.75333
-8.28253e-10
6.91763e-09
-0.0742866
0.000662015
-0.0762582
-0.074499
0.000212496
-0.0744832
-0.074287
-0.000212003
-0.0745091
-0.000661921
-0.0763098
-0.0084581
0.000205948
-0.00440903
-0.00831277
6.71663e-05
-0.00386245
-0.00845773
-6.70449e-05
-0.00386436
-0.000205919
-0.00441381
-0.000433937
2.38434e-05
-0.000183583
-0.000375272
8.50159e-06
-0.000145991
-0.000433928
-8.38889e-06
-0.000146076
-2.37986e-05
-0.00018381
4.20875e-05
8.96892e-06
-7.22798e-06
4.70607e-05
3.52926e-06
-5.7082e-06
4.21837e-05
-3.51158e-06
-5.71145e-06
-8.96152e-06
-7.23679e-06
0.00138789
1.13231e-06
-2.80363e-07
0.00139097
4.52335e-07
-2.37558e-07
0.00138791
-4.49341e-07
-2.37518e-07
-1.13108e-06
-2.80517e-07
0.0263268
3.75561e-07
-1.03776e-08
0.0263271
1.51383e-07
-9.94748e-09
0.0263268
-1.55899e-07
-9.52545e-09
-3.76544e-07
-9.86427e-09
0.38062
7.02545e-08
-4.6889e-10
0.38062
2.2666e-08
-2.76038e-09
0.38062
-3.64779e-08
-9.85973e-10
-7.04389e-08
2.95202e-09
3.75333
-3.6296e-10
3.75333
-3.27033e-09
3.75333
-3.08149e-09
6.32438e-09
-0.0742866
0.000662015
-0.0762582
-0.0744991
0.000212496
-0.0744832
-0.074287
-0.000212003
-0.0745091
-0.00066192
-0.0763098
-0.00845811
0.000205948
-0.00440903
-0.00831278
6.71671e-05
-0.00386245
-0.00845773
-6.70441e-05
-0.00386436
-0.000205919
-0.00441381
-0.000433937
2.38429e-05
-0.000183582
-0.000375272
8.50118e-06
-0.00014599
-0.000433927
-8.38877e-06
-0.000146076
-2.37983e-05
-0.00018381
4.20874e-05
8.96889e-06
-7.22881e-06
4.70603e-05
3.5288e-06
-5.70875e-06
4.21835e-05
-3.51212e-06
-5.71122e-06
-8.96197e-06
-7.23611e-06
0.00138789
1.13232e-06
-2.80334e-07
0.00139097
4.52196e-07
-2.37478e-07
0.00138791
-4.49254e-07
-2.37789e-07
-1.13084e-06
-2.81019e-07
0.0263268
3.75383e-07
-9.93945e-09
0.0263271
1.51056e-07
-9.34412e-09
0.0263268
-1.56124e-07
-9.52118e-09
-3.76224e-07
-1.03715e-08
0.38062
7.15668e-08
1.39848e-10
0.38062
2.20331e-08
-1.23524e-09
0.38062
-3.733e-08
-1.13854e-09
-7.03101e-08
4.24198e-10
3.75333
2.01928e-09
3.75333
-1.19048e-09
3.75333
-6.53285e-10
1.95584e-10
-0.0742866
0.000662016
-0.0762582
-0.0744991
0.000212496
-0.0744832
-0.074287
-0.000212003
-0.0745091
-0.00066192
-0.0763098
-0.00845811
0.000205949
-0.00440903
-0.00831278
6.71676e-05
-0.00386245
-0.00845773
-6.70436e-05
-0.00386436
-0.000205918
-0.00441381
-0.000433938
2.38431e-05
-0.00018358
-0.000375272
8.5011e-06
-0.000145989
-0.000433927
-8.38923e-06
-0.000146075
-2.37988e-05
-0.00018381
4.20879e-05
8.96835e-06
-7.22948e-06
4.70611e-05
3.52834e-06
-5.70911e-06
4.2184e-05
-3.51221e-06
-5.7111e-06
-8.96177e-06
-7.23574e-06
0.00138789
1.13228e-06
-2.80335e-07
0.00139097
4.52166e-07
-2.37618e-07
0.00138791
-4.49077e-07
-2.38179e-07
-1.13063e-06
-2.81215e-07
0.0263268
3.75506e-07
-9.6177e-09
0.0263271
1.50933e-07
-8.74159e-09
0.0263268
-1.56145e-07
-9.45372e-09
-3.76073e-07
-1.06368e-08
0.38062
7.18865e-08
-9.20402e-11
0.38062
2.19004e-08
1.14986e-09
0.38062
-3.74038e-08
-1.37889e-09
-7.01746e-08
-2.36591e-09
3.75333
2.60148e-09
3.75333
2.50849e-09
3.75333
1.14897e-09
-4.7977e-09
-0.0742866
0.000662015
-0.0762582
-0.074499
0.000212497
-0.0744832
-0.074287
-0.000212003
-0.0745091
-0.00066192
-0.0763098
-0.0084581
0.000205948
-0.00440903
-0.00831277
6.71674e-05
-0.00386245
-0.00845773
-6.70438e-05
-0.00386436
-0.000205919
-0.00441381
-0.000433938
2.38441e-05
-0.000183579
-0.000375273
8.50146e-06
-0.000145988
-0.000433928
-8.38977e-06
-0.000146075
-2.37997e-05
-0.00018381
4.2089e-05
8.96747e-06
-7.22926e-06
4.70625e-05
3.52782e-06
-5.70897e-06
4.2185e-05
-3.51217e-06
-5.71115e-06
-8.9612e-06
-7.23574e-06
0.00138789
1.1321e-06
-2.80081e-07
0.00139097
4.52166e-07
-2.37857e-07
0.00138791
-4.49077e-07
-2.38641e-07
-1.13065e-06
-2.81194e-07
0.0263268
3.75615e-07
-9.40346e-09
0.0263271
1.50847e-07
-8.28003e-09
0.0263268
-1.5615e-07
-9.34257e-09
-3.76423e-07
-1.0362e-08
0.38062
6.88363e-08
-2.59797e-10
0.38062
2.19356e-08
2.96222e-09
0.38062
-3.7051e-08
-1.10894e-09
-7.05549e-08
-3.29146e-09
3.75333
9.15099e-10
3.75333
5.70954e-09
3.75333
3.44138e-10
-6.6472e-09
-0.0742866
0.000662015
-0.0762582
-0.074499
0.000212497
-0.0744832
-0.074287
-0.000212002
-0.0745091
-0.000661921
-0.0763098
-0.0084581
0.000205947
-0.00440903
-0.00831277
6.71666e-05
-0.00386245
-0.00845773
-6.70443e-05
-0.00386436
-0.000205919
-0.00441382
-0.000433938
2.38451e-05
-0.00018358
-0.000375274
8.50202e-06
-0.000145988
-0.000433928
-8.38992e-06
-0.000146074
-2.38006e-05
-0.000183809
4.20899e-05
8.96683e-06
-7.22882e-06
4.70642e-05
3.52744e-06
-5.70864e-06
4.21865e-05
-3.51199e-06
-5.71129e-06
-8.96049e-06
-7.23618e-06
0.00138789
1.13188e-06
-2.80478e-07
0.00139097
4.52282e-07
-2.38437e-07
0.00138791
-4.4926e-07
-2.39008e-07
-1.13075e-06
-2.81424e-07
0.0263268
3.75814e-07
-9.99293e-09
0.0263271
1.51426e-07
-8.42751e-09
0.0263268
-1.56493e-07
-9.12797e-09
-3.76702e-07
-1.01136e-08
0.38062
6.75034e-08
-4.14579e-10
0.38062
2.29768e-08
2.82612e-09
0.38062
-3.73693e-08
-2.12693e-10
-7.05804e-08
-2.77449e-09
3.75333
-1.59569e-09
3.75333
4.65489e-09
3.75333
1.09725e-09
-4.85022e-09
-0.0742865
0.000662016
-0.074499
0.000212497
-0.074287
-0.000212002
-0.000661919
-0.0084581
0.000205947
-0.00831277
6.71656e-05
-0.00845773
-6.70449e-05
-0.000205919
-0.000433938
2.3846e-05
-0.000375273
8.50247e-06
-0.000433928
-8.3899e-06
-2.38007e-05
4.20908e-05
8.96699e-06
4.70651e-05
3.52783e-06
4.2187e-05
-3.5116e-06
-8.95973e-06
0.00138789
1.13168e-06
0.00139097
4.52295e-07
0.0013879
-4.49532e-07
-1.13105e-06
0.0263268
3.75749e-07
0.0263271
1.51644e-07
0.0263268
-1.56357e-07
-3.77176e-07
0.38062
6.7774e-08
0.38062
2.34363e-08
0.38062
-3.647e-08
-7.07083e-08
3.75333
3.75333
3.75333
)
;

boundaryField
{
    movingWall
    {
        type            calculated;
        value           uniform 0;
    }
    CPLReceiveMD
    {
        type            calculated;
        value           uniform 0;
    }
    streamwiseIn
    {
        type            cyclic;
        value           nonuniform List<scalar> 0();
    }
    streamwiseOut
    {
        type            cyclic;
        value           nonuniform List<scalar> 0();
    }
    front
    {
        type            cyclic;
        value           nonuniform List<scalar> 
32
(
-0.0762582
-0.00440903
-0.000183581
-7.2279e-06
-2.80959e-07
-1.05573e-08
-7.05178e-10
-1.2718e-09
-0.0744832
-0.00386245
-0.000145989
-5.7081e-06
-2.38903e-07
-9.06485e-09
6.96104e-10
1.6859e-10
-0.0745091
-0.00386436
-0.000146074
-5.71129e-06
-2.38803e-07
-8.85791e-09
7.89513e-10
1.88427e-09
-0.0763098
-0.00441382
-0.000183809
-7.23624e-06
-2.80843e-07
-1.0156e-08
-1.12592e-09
-1.30954e-09
)
;
    }
    back
    {
        type            cyclic;
        value           nonuniform List<scalar> 
32
(
0.0762582
0.00440903
0.000183581
7.2279e-06
2.80959e-07
1.05573e-08
7.05178e-10
1.2718e-09
0.0744832
0.00386245
0.000145989
5.7081e-06
2.38903e-07
9.06485e-09
-6.96104e-10
-1.6859e-10
0.0745091
0.00386436
0.000146074
5.71129e-06
2.38803e-07
8.85791e-09
-7.89513e-10
-1.88427e-09
0.0763098
0.00441382
0.000183809
7.23624e-06
2.80843e-07
1.0156e-08
1.12592e-09
1.30954e-09
)
;
    }
    procBoundary0to1
    {
        type            processor;
        value           nonuniform List<scalar> 
64
(
-0.0736251
-0.00891373
-0.000616048
2.73459e-05
0.00138008
0.026326
0.38062
3.75333
-0.0736251
-0.00891373
-0.000616048
2.73458e-05
0.00138008
0.026326
0.38062
3.75333
-0.0736251
-0.00891373
-0.000616048
2.73466e-05
0.00138008
0.026326
0.38062
3.75333
-0.0736251
-0.00891373
-0.000616048
2.73464e-05
0.00138008
0.026326
0.38062
3.75333
-0.0736251
-0.00891373
-0.000616047
2.73465e-05
0.00138008
0.026326
0.38062
3.75333
-0.0736251
-0.00891373
-0.000616047
2.73465e-05
0.00138008
0.026326
0.38062
3.75333
-0.0736251
-0.00891373
-0.000616047
2.73469e-05
0.00138008
0.026326
0.38062
3.75333
-0.0736251
-0.00891373
-0.000616047
2.73462e-05
0.00138008
0.026326
0.38062
3.75333
)
;
    }
    procBoundary0to1throughstreamwiseIn
    {
        type            processorCyclic;
        value           nonuniform List<scalar> 
64
(
0.0736245
0.00891417
0.00061604
-2.72129e-05
-0.00138006
-0.026326
-0.38062
-3.75333
0.0736245
0.00891417
0.00061604
-2.72131e-05
-0.00138006
-0.026326
-0.38062
-3.75333
0.0736245
0.00891417
0.00061604
-2.72125e-05
-0.00138006
-0.026326
-0.38062
-3.75333
0.0736245
0.00891417
0.000616041
-2.72126e-05
-0.00138006
-0.026326
-0.38062
-3.75333
0.0736245
0.00891417
0.000616041
-2.72125e-05
-0.00138006
-0.026326
-0.38062
-3.75333
0.0736245
0.00891417
0.000616041
-2.72125e-05
-0.00138006
-0.026326
-0.38062
-3.75333
0.0736245
0.00891417
0.000616041
-2.7212e-05
-0.00138006
-0.026326
-0.38062
-3.75333
0.0736245
0.00891417
0.000616041
-2.72125e-05
-0.00138006
-0.026326
-0.38062
-3.75333
)
;
    }
}


// ************************************************************************* //
