/*--------------------------------*- C++ -*----------------------------------*\
| =========                 |                                                 |
| \\      /  F ield         | OpenFOAM: The Open Source CFD Toolbox           |
|  \\    /   O peration     | Version:  2306                                  |
|   \\  /    A nd           | Website:  www.openfoam.com                      |
|    \\/     M anipulation  |                                                 |
\*---------------------------------------------------------------------------*/
FoamFile
{
    version     2.0;
    format      ascii;
    arch        "LSB;label=32;scalar=64";
    class       surfaceScalarField;
    location    "4";
    object      phi_0;
}
// * * * * * * * * * * * * * * * * * * * * * * * * * * * * * * * * * * * * * //

dimensions      [0 3 -1 0 0 0 0];

oriented        oriented;

internalField   nonuniform List<scalar> 
640
(
-0.0733223
0.000575719
-0.0757529
-0.0735018
0.000179565
-0.0734888
-0.073323
-0.00017884
-0.0735154
-0.000575529
-0.0758083
-0.0082077
0.000168715
-0.00404743
-0.00808129
5.31486e-05
-0.003488
-0.00820712
-5.30086e-05
-0.00348986
-0.000168667
-0.0040522
-0.000422078
1.49229e-05
-0.000162184
-0.000373972
5.0453e-06
-0.000126548
-0.000422055
-4.92522e-06
-0.000126625
-1.48753e-05
-0.000162393
3.17912e-05
6.67886e-06
-6.34459e-06
3.42511e-05
2.58481e-06
-4.98421e-06
3.18903e-05
-2.56482e-06
-4.98707e-06
-6.67045e-06
-6.35144e-06
0.00126495
7.80217e-07
-2.4641e-07
0.00126723
3.11132e-07
-2.10768e-07
0.00126497
-3.13598e-07
-2.1033e-07
-7.80124e-07
-2.45902e-07
0.0246174
1.54047e-07
-8.86334e-09
0.0246176
5.9794e-08
-8.90538e-09
0.0246174
-6.44114e-08
-7.68265e-09
-1.55684e-07
-8.24102e-09
0.364756
3.21242e-08
-3.67424e-11
0.364756
8.37313e-09
-2.20825e-09
0.364756
-2.31984e-08
1.00527e-09
-3.66029e-08
9.5843e-10
3.68445
-6.40894e-10
3.68445
-4.24894e-09
3.68445
9.54644e-10
2.63514e-09
-0.0733223
0.000575719
-0.0757529
-0.0735018
0.000179565
-0.0734888
-0.073323
-0.000178845
-0.0735154
-0.000575528
-0.0758083
-0.0082077
0.000168716
-0.00404743
-0.00808129
5.31484e-05
-0.003488
-0.00820713
-5.30078e-05
-0.00348986
-0.000168667
-0.00405219
-0.000422077
1.49223e-05
-0.000162185
-0.000373972
5.04496e-06
-0.000126549
-0.000422054
-4.92519e-06
-0.000126626
-1.48744e-05
-0.000162394
3.17896e-05
6.67971e-06
-6.34439e-06
3.42494e-05
2.58512e-06
-4.98415e-06
3.1889e-05
-2.56478e-06
-4.98725e-06
-6.67062e-06
-6.3518e-06
0.00126495
7.80528e-07
-2.4584e-07
0.00126723
3.11261e-07
-2.10387e-07
0.00126497
-3.13385e-07
-2.10048e-07
-7.80115e-07
-2.45567e-07
0.0246174
1.54046e-07
-8.66668e-09
0.0246176
5.98424e-08
-8.92049e-09
0.0246174
-6.38973e-08
-7.81037e-09
-1.55323e-07
-7.83216e-09
0.364756
3.23092e-08
3.1026e-10
0.364756
8.33471e-09
-3.37166e-09
0.364756
-2.2829e-08
2.11698e-10
-3.64543e-08
2.84048e-09
3.68445
-2.3707e-09
3.68445
-5.83788e-09
3.68445
-8.51914e-10
6.79257e-09
-0.0733223
0.000575717
-0.0757529
-0.0735018
0.000179563
-0.0734888
-0.073323
-0.000178846
-0.0735154
-0.000575531
-0.0758083
-0.0082077
0.000168717
-0.00404743
-0.00808129
5.31503e-05
-0.003488
-0.00820713
-5.30071e-05
-0.00348986
-0.000168667
-0.00405219
-0.000422077
1.49213e-05
-0.000162184
-0.000373972
5.0446e-06
-0.000126549
-0.000422054
-4.92485e-06
-0.000126627
-1.48737e-05
-0.000162395
3.17879e-05
6.68006e-06
-6.34448e-06
3.42481e-05
2.58512e-06
-4.9849e-06
3.18887e-05
-2.56521e-06
-4.98761e-06
-6.67117e-06
-6.35204e-06
0.00126495
7.80764e-07
-2.45981e-07
0.00126723
3.11307e-07
-2.10091e-07
0.00126498
-3.13289e-07
-2.10188e-07
-7.7991e-07
-2.46363e-07
0.0246174
1.54032e-07
-8.83811e-09
0.0246176
5.97212e-08
-8.5722e-09
0.0246174
-6.33932e-08
-8.11864e-09
-1.54546e-07
-8.48213e-09
0.364756
3.51376e-08
-1.57682e-10
0.364756
7.70985e-09
-2.80064e-09
0.364756
-2.25005e-08
-1.02969e-09
-3.58196e-08
2.85379e-09
3.68445
-6.89086e-10
3.68445
-3.39867e-09
3.68445
-2.99546e-09
6.19914e-09
-0.0733223
0.000575718
-0.0757529
-0.0735018
0.000179563
-0.0734888
-0.073323
-0.000178846
-0.0735154
-0.00057553
-0.0758083
-0.0082077
0.000168718
-0.00404743
-0.00808129
5.31518e-05
-0.003488
-0.00820713
-5.30056e-05
-0.00348986
-0.000168666
-0.0040522
-0.000422077
1.49209e-05
-0.000162183
-0.000373971
5.04443e-06
-0.000126547
-0.000422053
-4.92458e-06
-0.000126626
-1.48734e-05
-0.000162395
3.17879e-05
6.68008e-06
-6.34474e-06
3.42478e-05
2.58484e-06
-4.98523e-06
3.18886e-05
-2.5655e-06
-4.98748e-06
-6.67143e-06
-6.35164e-06
0.00126495
7.80802e-07
-2.46113e-07
0.00126723
3.11223e-07
-2.10062e-07
0.00126498
-3.13309e-07
-2.10316e-07
-7.79637e-07
-2.46615e-07
0.0246174
1.54081e-07
-8.61451e-09
0.0246176
5.95531e-08
-8.12672e-09
0.0246174
-6.34723e-08
-8.29343e-09
-1.54165e-07
-9.1217e-09
0.364756
3.67846e-08
7.0509e-11
0.364756
7.08236e-09
-1.23938e-09
0.364756
-2.33717e-08
-1.06539e-09
-3.55908e-08
4.49204e-10
3.68445
1.90826e-09
3.68445
-1.18577e-09
3.68445
-5.78407e-10
2.24391e-10
-0.0733223
0.000575718
-0.0757529
-0.0735018
0.000179563
-0.0734888
-0.073323
-0.000178845
-0.0735154
-0.000575529
-0.0758083
-0.0082077
0.000168718
-0.00404743
-0.00808129
5.31524e-05
-0.003488
-0.00820713
-5.30051e-05
-0.00348986
-0.000168665
-0.0040522
-0.000422078
1.49212e-05
-0.000162181
-0.000373972
5.04449e-06
-0.000126546
-0.000422053
-4.92484e-06
-0.000126625
-1.48738e-05
-0.000162395
3.17884e-05
6.67973e-06
-6.34505e-06
3.42484e-05
2.58456e-06
-4.98534e-06
3.1889e-05
-2.56555e-06
-4.98733e-06
-6.67131e-06
-6.35141e-06
0.00126495
7.80776e-07
-2.46223e-07
0.00126723
3.11235e-07
-2.10165e-07
0.00126498
-3.13215e-07
-2.10512e-07
-7.79457e-07
-2.46588e-07
0.0246174
1.54283e-07
-8.5099e-09
0.0246176
5.95176e-08
-7.70164e-09
0.0246174
-6.34599e-08
-8.42579e-09
-1.54086e-07
-9.45844e-09
0.364756
3.71669e-08
-6.11667e-10
0.364756
6.93557e-09
1.26995e-09
0.364756
-2.34554e-08
-1.22947e-09
-3.54474e-08
-2.20199e-09
3.68445
2.8447e-09
3.68445
2.66542e-09
3.68445
1.18493e-09
-4.70332e-09
-0.0733223
0.000575718
-0.0757529
-0.0735018
0.000179564
-0.0734888
-0.073323
-0.000178845
-0.0735154
-0.00057553
-0.0758083
-0.0082077
0.000168718
-0.00404743
-0.00808129
5.3152e-05
-0.00348801
-0.00820713
-5.30055e-05
-0.00348986
-0.000168666
-0.0040522
-0.000422078
1.4922e-05
-0.00016218
-0.000373972
5.04478e-06
-0.000126545
-0.000422053
-4.92525e-06
-0.000126624
-1.48745e-05
-0.000162394
3.17892e-05
6.67918e-06
-6.3448e-06
3.42495e-05
2.58423e-06
-4.98509e-06
3.18898e-05
-2.56559e-06
-4.98727e-06
-6.67098e-06
-6.35136e-06
0.00126495
7.80628e-07
-2.45818e-07
0.00126723
3.11249e-07
-2.10319e-07
0.00126498
-3.13201e-07
-2.10882e-07
-7.79521e-07
-2.46452e-07
0.0246174
1.54281e-07
-8.28922e-09
0.0246176
5.94484e-08
-7.37844e-09
0.0246174
-6.34951e-08
-8.4495e-09
-1.54532e-07
-9.13652e-09
0.364756
3.3558e-08
-6.05905e-10
0.364756
6.94958e-09
3.13433e-09
0.364756
-2.31062e-08
-9.17731e-10
-3.59198e-08
-3.0122e-09
3.68445
1.20184e-09
3.68445
5.83607e-09
3.68445
3.63949e-10
-6.5563e-09
-0.0733223
0.000575717
-0.0757529
-0.0735018
0.000179564
-0.0734888
-0.073323
-0.000178845
-0.0735154
-0.000575531
-0.0758083
-0.0082077
0.000168716
-0.00404743
-0.00808129
5.31504e-05
-0.00348801
-0.00820713
-5.30063e-05
-0.00348986
-0.000168666
-0.0040522
-0.000422078
1.49226e-05
-0.00016218
-0.000373973
5.04511e-06
-0.000126545
-0.000422054
-4.92544e-06
-0.000126624
-1.48752e-05
-0.000162394
3.17899e-05
6.6787e-06
-6.34468e-06
3.4251e-05
2.58394e-06
-4.98502e-06
3.18912e-05
-2.56548e-06
-4.98742e-06
-6.67061e-06
-6.35159e-06
0.00126495
7.80423e-07
-2.4612e-07
0.00126723
3.11325e-07
-2.10733e-07
0.00126497
-3.13284e-07
-2.11183e-07
-7.79686e-07
-2.46903e-07
0.0246174
1.54448e-07
-8.84482e-09
0.0246176
6.0019e-08
-7.56337e-09
0.0246174
-6.39142e-08
-8.30805e-09
-1.54924e-07
-8.93705e-09
0.364756
3.22049e-08
-3.24721e-10
0.364756
8.01836e-09
2.98721e-09
0.364756
-2.34781e-08
4.77001e-11
-3.60681e-08
-2.55858e-09
3.68445
-1.45167e-09
3.68445
4.75673e-09
3.68445
1.18764e-09
-4.72929e-09
-0.0733223
0.000575719
-0.0735018
0.000179565
-0.073323
-0.000178845
-0.000575528
-0.0082077
0.000168716
-0.00808129
5.31484e-05
-0.00820713
-5.30073e-05
-0.000168666
-0.000422077
1.49232e-05
-0.000373973
5.04534e-06
-0.000422054
-4.9256e-06
-1.48753e-05
3.17907e-05
6.67884e-06
3.42518e-05
2.58418e-06
3.18916e-05
-2.56529e-06
-6.67003e-06
0.00126495
7.80191e-07
0.00126723
3.1127e-07
0.00126497
-3.13355e-07
-7.80036e-07
0.0246174
1.54291e-07
0.0246176
6.01473e-08
0.0246174
-6.39156e-08
-1.55522e-07
0.364756
3.23906e-08
0.364756
8.48215e-09
0.364756
-2.25635e-08
-3.63961e-08
3.68445
3.68445
3.68445
)
;

boundaryField
{
    movingWall
    {
        type            calculated;
        value           uniform 0;
    }
    CPLReceiveMD
    {
        type            calculated;
        value           uniform 0;
    }
    streamwiseIn
    {
        type            cyclic;
        value           nonuniform List<scalar> 0();
    }
    streamwiseOut
    {
        type            cyclic;
        value           nonuniform List<scalar> 0();
    }
    front
    {
        type            cyclic;
        value           nonuniform List<scalar> 
32
(
-0.0757529
-0.00404743
-0.000162182
-6.34433e-06
-2.46442e-07
-9.26854e-09
-5.28451e-10
-1.08835e-09
-0.0734888
-0.003488
-0.000126546
-4.98487e-06
-2.11104e-07
-8.12509e-09
7.6503e-10
2.33736e-10
-0.0735154
-0.00348986
-0.000126624
-4.98751e-06
-2.10965e-07
-7.94074e-09
7.7663e-10
1.9495e-09
-0.0758083
-0.0040522
-0.000162393
-6.35132e-06
-2.4643e-07
-8.84926e-09
-1.11792e-09
-1.24363e-09
)
;
    }
    back
    {
        type            cyclic;
        value           nonuniform List<scalar> 
32
(
0.0757529
0.00404743
0.000162182
6.34433e-06
2.46442e-07
9.26854e-09
5.28451e-10
1.08835e-09
0.0734888
0.003488
0.000126546
4.98487e-06
2.11104e-07
8.12509e-09
-7.6503e-10
-2.33736e-10
0.0735154
0.00348986
0.000126624
4.98751e-06
2.10965e-07
7.94074e-09
-7.7663e-10
-1.9495e-09
0.0758083
0.0040522
0.000162393
6.35132e-06
2.4643e-07
8.84926e-09
1.11792e-09
1.24363e-09
)
;
    }
    procBoundary0to1
    {
        type            processor;
        value           nonuniform List<scalar> 
64
(
-0.0727474
-0.00861399
-0.000575846
2.36857e-05
0.00125908
0.0246168
0.364755
3.68445
-0.0727474
-0.00861399
-0.000575845
2.36856e-05
0.00125908
0.0246168
0.364755
3.68445
-0.0727474
-0.00861399
-0.000575846
2.36864e-05
0.00125909
0.0246168
0.364756
3.68445
-0.0727474
-0.00861399
-0.000575845
2.36861e-05
0.00125908
0.0246168
0.364756
3.68445
-0.0727474
-0.00861399
-0.000575845
2.36863e-05
0.00125908
0.0246168
0.364756
3.68445
-0.0727474
-0.00861399
-0.000575845
2.36863e-05
0.00125908
0.0246168
0.364756
3.68445
-0.0727474
-0.00861399
-0.000575846
2.36868e-05
0.00125908
0.0246168
0.364755
3.68445
-0.0727474
-0.00861399
-0.000575845
2.3686e-05
0.00125908
0.0246168
0.364755
3.68445
)
;
    }
    procBoundary0to1throughstreamwiseIn
    {
        type            processorCyclic;
        value           nonuniform List<scalar> 
64
(
0.0727465
0.00861471
0.000575871
-2.35471e-05
-0.00125905
-0.0246167
-0.364755
-3.68445
0.0727465
0.0086147
0.000575872
-2.35473e-05
-0.00125905
-0.0246168
-0.364755
-3.68445
0.0727465
0.0086147
0.000575872
-2.35466e-05
-0.00125905
-0.0246168
-0.364756
-3.68445
0.0727465
0.0086147
0.000575873
-2.35468e-05
-0.00125906
-0.0246168
-0.364756
-3.68445
0.0727465
0.0086147
0.000575873
-2.35466e-05
-0.00125906
-0.0246168
-0.364756
-3.68445
0.0727465
0.0086147
0.000575873
-2.35467e-05
-0.00125906
-0.0246168
-0.364756
-3.68445
0.0727465
0.0086147
0.000575872
-2.35461e-05
-0.00125905
-0.0246168
-0.364755
-3.68445
0.0727465
0.00861471
0.000575872
-2.35467e-05
-0.00125905
-0.0246167
-0.364755
-3.68445
)
;
    }
}


// ************************************************************************* //
