/*--------------------------------*- C++ -*----------------------------------*\
| =========                 |                                                 |
| \\      /  F ield         | OpenFOAM: The Open Source CFD Toolbox           |
|  \\    /   O peration     | Version:  2306                                  |
|   \\  /    A nd           | Website:  www.openfoam.com                      |
|    \\/     M anipulation  |                                                 |
\*---------------------------------------------------------------------------*/
FoamFile
{
    version     2.0;
    format      ascii;
    arch        "LSB;label=32;scalar=64";
    class       volVectorField;
    location    "4";
    object      U;
}
// * * * * * * * * * * * * * * * * * * * * * * * * * * * * * * * * * * * * * //

dimensions      [0 1 -1 0 0 0 0];

internalField   nonuniform List<vector> 
256
(
(-0.00642867 0.000113746 -0.00640756)
(-0.00624995 3.69315e-05 -0.00625842)
(-0.00625018 -3.67881e-05 -0.0062606)
(-0.00642861 -0.000113712 -0.0064119)
(-0.000731806 0.000115907 -0.000370467)
(-0.000701903 3.7357e-05 -0.000324541)
(-0.000701888 -3.73145e-05 -0.000324701)
(-0.00073176 -0.000115903 -0.000370869)
(-4.38537e-05 5.77586e-06 -1.54254e-05)
(-3.35123e-05 1.8925e-06 -1.22667e-05)
(-3.35106e-05 -1.85499e-06 -1.2274e-05)
(-4.38509e-05 -5.76188e-06 -1.54445e-05)
(2.92852e-06 3.73381e-06 -6.07167e-07)
(3.76592e-06 1.4511e-06 -4.79493e-07)
(3.76881e-06 -1.44652e-06 -4.7988e-07)
(2.93795e-06 -3.73165e-06 -6.08158e-07)
(0.000116266 3.15061e-07 -2.35787e-08)
(0.000116694 1.23764e-07 -2.00222e-08)
(0.000116695 -1.21394e-07 -2.00491e-08)
(0.000116268 -3.13608e-07 -2.36686e-08)
(0.00221206 1.83481e-07 -8.89692e-10)
(0.0022121 7.48633e-08 -7.99539e-10)
(0.0022121 -7.56087e-08 -7.28083e-10)
(0.00221206 -1.83589e-07 -8.51126e-10)
(0.0319814 1.54414e-08 -6.78968e-11)
(0.0319814 5.43588e-09 -7.82161e-11)
(0.0319814 -7.62771e-09 9.91009e-11)
(0.0319814 -1.64587e-08 -4.33609e-12)
(0.315372 5.6025e-09 -9.75498e-13)
(0.315372 1.08726e-09 -1.55745e-10)
(0.315372 -4.17674e-09 2.63633e-11)
(0.315372 -7.16331e-09 5.51445e-11)
(-0.00642867 0.000113746 -0.00640756)
(-0.00624995 3.69313e-05 -0.00625842)
(-0.00625018 -3.67884e-05 -0.0062606)
(-0.00642861 -0.000113712 -0.0064119)
(-0.000731806 0.000115908 -0.000370467)
(-0.000701903 3.73569e-05 -0.000324541)
(-0.000701888 -3.73148e-05 -0.000324701)
(-0.000731761 -0.000115903 -0.000370869)
(-4.38538e-05 5.77597e-06 -1.54255e-05)
(-3.35122e-05 1.89261e-06 -1.22668e-05)
(-3.35107e-05 -1.85504e-06 -1.22739e-05)
(-4.38508e-05 -5.76186e-06 -1.54446e-05)
(2.92848e-06 3.73388e-06 -6.07064e-07)
(3.76569e-06 1.45108e-06 -4.79506e-07)
(3.76868e-06 -1.44653e-06 -4.79977e-07)
(2.93785e-06 -3.73161e-06 -6.08173e-07)
(0.000116266 3.15016e-07 -2.34926e-08)
(0.000116694 1.23718e-07 -2.00745e-08)
(0.000116695 -1.21364e-07 -2.01053e-08)
(0.000116268 -3.13574e-07 -2.36249e-08)
(0.00221206 1.83477e-07 -8.20439e-10)
(0.0022121 7.48632e-08 -8.85351e-10)
(0.0022121 -7.55117e-08 -7.78889e-10)
(0.00221206 -1.83538e-07 -7.98845e-10)
(0.0319814 1.55102e-08 2.09225e-11)
(0.0319814 5.47099e-09 -2.6389e-10)
(0.0319814 -7.5394e-09 1.45458e-10)
(0.0319814 -1.64044e-08 2.27427e-10)
(0.315372 5.67053e-09 -2.4659e-11)
(0.315372 1.11988e-09 -3.4839e-10)
(0.315372 -4.11112e-09 2.34071e-10)
(0.315372 -7.10337e-09 5.94117e-10)
(-0.00642867 0.000113746 -0.00640756)
(-0.00624995 3.69314e-05 -0.00625842)
(-0.00625018 -3.67884e-05 -0.0062606)
(-0.00642861 -0.000113712 -0.0064119)
(-0.000731806 0.000115908 -0.000370467)
(-0.000701903 3.7357e-05 -0.000324541)
(-0.000701888 -3.73148e-05 -0.000324701)
(-0.000731761 -0.000115903 -0.000370869)
(-4.38537e-05 5.77603e-06 -1.54254e-05)
(-3.35122e-05 1.89259e-06 -1.22668e-05)
(-3.35106e-05 -1.85503e-06 -1.22739e-05)
(-4.3851e-05 -5.76188e-06 -1.54445e-05)
(2.92838e-06 3.73389e-06 -6.07245e-07)
(3.76553e-06 1.4511e-06 -4.79584e-07)
(3.76853e-06 -1.44654e-06 -4.79944e-07)
(2.93786e-06 -3.73162e-06 -6.08173e-07)
(0.000116266 3.1496e-07 -2.35816e-08)
(0.000116694 1.23677e-07 -2.0003e-08)
(0.000116695 -1.21356e-07 -1.9992e-08)
(0.000116268 -3.13533e-07 -2.3585e-08)
(0.00221206 1.83467e-07 -9.18888e-10)
(0.0022121 7.48067e-08 -8.86684e-10)
(0.0022121 -7.54965e-08 -8.26686e-10)
(0.00221206 -1.83476e-07 -8.27434e-10)
(0.0319814 1.54307e-08 -8.35164e-11)
(0.0319814 5.38869e-09 -3.67881e-10)
(0.0319814 -7.44404e-09 -1.18004e-10)
(0.0319814 -1.62092e-08 2.49552e-10)
(0.315372 5.59379e-09 -2.26643e-10)
(0.315372 1.07885e-09 -4.49694e-10)
(0.315372 -4.024e-09 -3.04291e-10)
(0.315372 -6.95193e-09 6.46872e-10)
(-0.00642867 0.000113747 -0.00640756)
(-0.00624995 3.69315e-05 -0.00625842)
(-0.00625018 -3.67883e-05 -0.0062606)
(-0.00642861 -0.000113712 -0.0064119)
(-0.000731806 0.000115908 -0.000370467)
(-0.000701903 3.73571e-05 -0.000324541)
(-0.000701888 -3.73146e-05 -0.000324701)
(-0.000731761 -0.000115903 -0.000370869)
(-4.38537e-05 5.77601e-06 -1.54254e-05)
(-3.35122e-05 1.89262e-06 -1.22667e-05)
(-3.35106e-05 -1.855e-06 -1.2274e-05)
(-4.38509e-05 -5.76187e-06 -1.54445e-05)
(2.92835e-06 3.73391e-06 -6.07385e-07)
(3.76551e-06 1.45112e-06 -4.79666e-07)
(3.76848e-06 -1.4465e-06 -4.79881e-07)
(2.93786e-06 -3.7316e-06 -6.08025e-07)
(0.000116266 3.14947e-07 -2.35781e-08)
(0.000116694 1.23659e-07 -1.9943e-08)
(0.000116695 -1.21357e-07 -1.99212e-08)
(0.000116268 -3.1351e-07 -2.35525e-08)
(0.00221206 1.83452e-07 -8.33145e-10)
(0.0022121 7.47378e-08 -7.94065e-10)
(0.0022121 -7.55378e-08 -7.72561e-10)
(0.00221206 -1.83432e-07 -8.25727e-10)
(0.0319814 1.53655e-08 4.06607e-13)
(0.0319814 5.28602e-09 -2.03665e-10)
(0.0319814 -7.52536e-09 -1.00761e-10)
(0.0319814 -1.61162e-08 1.79827e-10)
(0.315372 5.57098e-09 1.30162e-10)
(0.315372 9.98192e-10 -2.24128e-10)
(0.315372 -4.11403e-09 -3.92329e-10)
(0.315372 -6.89173e-09 2.89855e-10)
(-0.00642867 0.000113747 -0.00640756)
(-0.00624995 3.69317e-05 -0.00625842)
(-0.00625018 -3.67881e-05 -0.0062606)
(-0.00642861 -0.000113712 -0.0064119)
(-0.000731806 0.000115908 -0.000370467)
(-0.000701903 3.73573e-05 -0.000324541)
(-0.000701888 -3.73145e-05 -0.000324701)
(-0.000731761 -0.000115903 -0.000370869)
(-4.38538e-05 5.77599e-06 -1.54253e-05)
(-3.35122e-05 1.89261e-06 -1.22667e-05)
(-3.35106e-05 -1.855e-06 -1.22739e-05)
(-4.38509e-05 -5.76183e-06 -1.54446e-05)
(2.92836e-06 3.73389e-06 -6.07493e-07)
(3.76555e-06 1.45114e-06 -4.79727e-07)
(3.76856e-06 -1.44648e-06 -4.7985e-07)
(2.93789e-06 -3.73159e-06 -6.07899e-07)
(0.000116266 3.14974e-07 -2.35483e-08)
(0.000116694 1.23683e-07 -1.99364e-08)
(0.000116695 -1.21353e-07 -1.99845e-08)
(0.000116268 -3.13524e-07 -2.36317e-08)
(0.00221206 1.83474e-07 -7.88429e-10)
(0.0022121 7.47169e-08 -7.24678e-10)
(0.0022121 -7.55503e-08 -7.87007e-10)
(0.00221206 -1.8341e-07 -8.96788e-10)
(0.0319814 1.53949e-08 2.52704e-11)
(0.0319814 5.24248e-09 -9.4043e-14)
(0.0319814 -7.52639e-09 -7.19078e-11)
(0.0319814 -1.60642e-08 -1.16018e-10)
(0.315372 5.60241e-09 1.84169e-10)
(0.315372 9.77267e-10 -4.82094e-11)
(0.315372 -4.1309e-09 2.34656e-10)
(0.315372 -6.86948e-09 -2.76997e-10)
(-0.00642867 0.000113747 -0.00640756)
(-0.00624995 3.69317e-05 -0.00625842)
(-0.00625018 -3.67881e-05 -0.0062606)
(-0.00642861 -0.000113712 -0.0064119)
(-0.000731806 0.000115908 -0.000370467)
(-0.000701903 3.73572e-05 -0.000324541)
(-0.000701888 -3.73146e-05 -0.000324701)
(-0.000731761 -0.000115903 -0.000370869)
(-4.38539e-05 5.77595e-06 -1.54252e-05)
(-3.35122e-05 1.89257e-06 -1.22666e-05)
(-3.35107e-05 -1.85501e-06 -1.22739e-05)
(-4.38509e-05 -5.76184e-06 -1.54444e-05)
(2.9284e-06 3.73389e-06 -6.07609e-07)
(3.76567e-06 1.45113e-06 -4.79759e-07)
(3.76869e-06 -1.4465e-06 -4.79829e-07)
(2.93794e-06 -3.73159e-06 -6.07884e-07)
(0.000116266 3.15016e-07 -2.35777e-08)
(0.000116694 1.23712e-07 -1.99868e-08)
(0.000116695 -1.21371e-07 -2.00399e-08)
(0.000116268 -3.13574e-07 -2.36345e-08)
(0.00221206 1.83464e-07 -8.25021e-10)
(0.0022121 7.47188e-08 -7.2339e-10)
(0.0022121 -7.55691e-08 -8.14036e-10)
(0.00221206 -1.83449e-07 -9.19181e-10)
(0.0319814 1.54451e-08 -4.98277e-11)
(0.0319814 5.20627e-09 2.20004e-10)
(0.0319814 -7.50296e-09 -1.45169e-10)
(0.0319814 -1.61781e-08 -3.00763e-10)
(0.315372 5.63943e-09 2.04368e-10)
(0.315372 9.68518e-10 4.6046e-10)
(0.315372 -4.08534e-09 1.62901e-11)
(0.315372 -6.97587e-09 -4.898e-10)
(-0.00642867 0.000113746 -0.00640756)
(-0.00624995 3.69315e-05 -0.00625842)
(-0.00625018 -3.67882e-05 -0.0062606)
(-0.00642861 -0.000113712 -0.0064119)
(-0.000731806 0.000115908 -0.000370467)
(-0.000701903 3.73571e-05 -0.000324541)
(-0.000701888 -3.73147e-05 -0.000324701)
(-0.000731761 -0.000115903 -0.000370869)
(-4.38537e-05 5.77583e-06 -1.54253e-05)
(-3.35123e-05 1.8925e-06 -1.22666e-05)
(-3.35107e-05 -1.85504e-06 -1.22738e-05)
(-4.38509e-05 -5.76188e-06 -1.54444e-05)
(2.92843e-06 3.73384e-06 -6.07546e-07)
(3.76584e-06 1.45109e-06 -4.79746e-07)
(3.76882e-06 -1.44651e-06 -4.79849e-07)
(2.93802e-06 -3.73163e-06 -6.07864e-07)
(0.000116266 3.15072e-07 -2.35748e-08)
(0.000116694 1.23747e-07 -2.00454e-08)
(0.000116695 -1.21386e-07 -2.00087e-08)
(0.000116268 -3.13603e-07 -2.34723e-08)
(0.00221206 1.83474e-07 -7.91686e-10)
(0.0022121 7.47988e-08 -7.08062e-10)
(0.0022121 -7.55947e-08 -7.77824e-10)
(0.00221206 -1.83497e-07 -8.15056e-10)
(0.0319814 1.55352e-08 1.85746e-11)
(0.0319814 5.4099e-09 3.40735e-10)
(0.0319814 -7.61356e-09 -1.46734e-11)
(0.0319814 -1.62503e-08 -2.36829e-10)
(0.315372 5.71386e-09 4.05525e-11)
(0.315372 1.10439e-09 6.5067e-10)
(0.315372 -4.15058e-09 4.02819e-11)
(0.315372 -7.00105e-09 -4.27943e-10)
(-0.00642867 0.000113746 -0.00640756)
(-0.00624995 3.69314e-05 -0.00625842)
(-0.00625018 -3.67883e-05 -0.0062606)
(-0.00642861 -0.000113712 -0.0064119)
(-0.000731806 0.000115908 -0.000370467)
(-0.000701903 3.7357e-05 -0.000324541)
(-0.000701888 -3.73148e-05 -0.000324702)
(-0.000731761 -0.000115903 -0.000370869)
(-4.38538e-05 5.77581e-06 -1.54253e-05)
(-3.35121e-05 1.89249e-06 -1.22667e-05)
(-3.35107e-05 -1.85506e-06 -1.22739e-05)
(-4.38509e-05 -5.76184e-06 -1.54444e-05)
(2.92856e-06 3.73386e-06 -6.07394e-07)
(3.76588e-06 1.45108e-06 -4.7962e-07)
(3.76895e-06 -1.44655e-06 -4.79835e-07)
(2.93797e-06 -3.73159e-06 -6.08012e-07)
(0.000116266 3.15104e-07 -2.36349e-08)
(0.000116694 1.23778e-07 -2.00028e-08)
(0.000116695 -1.21384e-07 -1.99678e-08)
(0.000116268 -3.13622e-07 -2.35457e-08)
(0.00221206 1.83488e-07 -9.1009e-10)
(0.0022121 7.487e-08 -7.16158e-10)
(0.0022121 -7.55757e-08 -7.54113e-10)
(0.00221206 -1.83574e-07 -8.46652e-10)
(0.0319814 1.54959e-08 -7.90696e-11)
(0.0319814 5.46144e-09 1.42094e-10)
(0.0319814 -7.545e-09 -5.01279e-12)
(0.0319814 -1.63774e-08 -2.14124e-10)
(0.315372 5.68513e-09 -3.12768e-10)
(0.315372 1.13406e-09 1.0908e-10)
(0.315372 -4.10751e-09 1.38979e-10)
(0.315372 -7.08646e-09 -3.97096e-10)
)
;

boundaryField
{
    movingWall
    {
        type            fixedValue;
        value           uniform (1 0 0);
    }
    CPLReceiveMD
    {
        type            fixedValue;
        value           uniform (-0.035353 0 -0.0174976);
    }
    streamwiseIn
    {
        type            cyclic;
    }
    streamwiseOut
    {
        type            cyclic;
    }
    front
    {
        type            cyclic;
    }
    back
    {
        type            cyclic;
    }
    procBoundary0to1
    {
        type            processor;
        value           nonuniform List<vector> 
64
(
(-0.00594397 -0.00011375 -0.00581744)
(-0.00076616 -0.000115916 -0.00042196)
(-5.95983e-05 -5.77735e-06 -2.03786e-05)
(1.6679e-06 -3.72361e-06 -8.1983e-07)
(0.000115652 -3.12688e-07 -2.96916e-08)
(0.00221201 -1.8325e-07 -9.87984e-10)
(0.0319814 -1.57421e-08 -7.55634e-11)
(0.315372 -6.08449e-09 1.82226e-11)
(-0.00594397 -0.00011375 -0.00581744)
(-0.00076616 -0.000115916 -0.00042196)
(-5.95983e-05 -5.77736e-06 -2.03786e-05)
(1.66795e-06 -3.72366e-06 -8.19894e-07)
(0.000115652 -3.12647e-07 -2.9786e-08)
(0.00221201 -1.83196e-07 -1.04619e-09)
(0.0319814 -1.56296e-08 -7.00118e-11)
(0.315372 -5.99734e-09 4.93618e-11)
(-0.00594397 -0.00011375 -0.00581744)
(-0.00076616 -0.000115916 -0.00042196)
(-5.95983e-05 -5.77734e-06 -2.03786e-05)
(1.66807e-06 -3.72363e-06 -8.19766e-07)
(0.000115653 -3.12647e-07 -2.96583e-08)
(0.00221201 -1.83223e-07 -1.05036e-09)
(0.0319814 -1.56845e-08 -1.92155e-10)
(0.315372 -6.02247e-09 -1.2628e-10)
(-0.00594397 -0.00011375 -0.00581744)
(-0.00076616 -0.000115916 -0.00042196)
(-5.95983e-05 -5.77728e-06 -2.03786e-05)
(1.6681e-06 -3.72362e-06 -8.19684e-07)
(0.000115653 -3.12655e-07 -2.96375e-08)
(0.00221201 -1.83266e-07 -9.67656e-10)
(0.0319814 -1.57314e-08 -3.55181e-11)
(0.315372 -6.01077e-09 1.72773e-10)
(-0.00594397 -0.00011375 -0.00581744)
(-0.00076616 -0.000115916 -0.000421959)
(-5.95983e-05 -5.77728e-06 -2.03785e-05)
(1.66809e-06 -3.72361e-06 -8.19601e-07)
(0.000115653 -3.12655e-07 -2.9701e-08)
(0.00221201 -1.83241e-07 -9.14764e-10)
(0.0319814 -1.56985e-08 9.82577e-11)
(0.315372 -5.98022e-09 1.33668e-10)
(-0.00594397 -0.00011375 -0.00581744)
(-0.00076616 -0.000115916 -0.000421959)
(-5.95982e-05 -5.7773e-06 -2.03785e-05)
(1.66804e-06 -3.72364e-06 -8.19526e-07)
(0.000115653 -3.12675e-07 -2.9671e-08)
(0.00221201 -1.83205e-07 -8.97155e-10)
(0.0319814 -1.56677e-08 6.67141e-11)
(0.315372 -5.98842e-09 9.25687e-11)
(-0.00594397 -0.00011375 -0.00581744)
(-0.00076616 -0.000115916 -0.000421959)
(-5.95983e-05 -5.7773e-06 -2.03784e-05)
(1.66801e-06 -3.72364e-06 -8.19634e-07)
(0.000115652 -3.12697e-07 -2.96098e-08)
(0.00221201 -1.83198e-07 -9.21134e-10)
(0.0319814 -1.56175e-08 5.67503e-11)
(0.315372 -5.95933e-09 -2.84652e-11)
(-0.00594397 -0.00011375 -0.00581744)
(-0.00076616 -0.000115916 -0.000421959)
(-5.95982e-05 -5.77735e-06 -2.03785e-05)
(1.66786e-06 -3.72367e-06 -8.19727e-07)
(0.000115652 -3.12685e-07 -2.95662e-08)
(0.00221201 -1.83188e-07 -9.63243e-10)
(0.0319814 -1.56403e-08 -7.38944e-11)
(0.315372 -5.99224e-09 -3.17559e-10)
)
;
    }
    procBoundary0to1throughstreamwiseIn
    {
        type            processorCyclic;
        value           nonuniform List<vector> 
64
(
(-0.00594402 0.000113713 -0.00581308)
(-0.000766203 0.000115914 -0.000421543)
(-5.9601e-05 5.76122e-06 -2.03584e-05)
(1.65637e-06 3.72292e-06 -8.18768e-07)
(0.000115651 3.12009e-07 -2.95813e-08)
(0.00221201 1.83833e-07 -9.52698e-10)
(0.0319814 1.59567e-08 -2.18239e-12)
(0.315372 6.47579e-09 4.48046e-11)
(-0.00594402 0.000113713 -0.00581308)
(-0.000766203 0.000115914 -0.000421543)
(-5.9601e-05 5.76129e-06 -2.03584e-05)
(1.65647e-06 3.72292e-06 -8.1871e-07)
(0.000115651 3.11951e-07 -2.96114e-08)
(0.00221201 1.83877e-07 -9.53317e-10)
(0.0319814 1.60292e-08 2.48424e-10)
(0.315372 6.53132e-09 5.5408e-10)
(-0.00594402 0.000113713 -0.00581308)
(-0.000766203 0.000115914 -0.000421543)
(-5.9601e-05 5.76137e-06 -2.03584e-05)
(1.65647e-06 3.72297e-06 -8.18794e-07)
(0.000115651 3.11911e-07 -2.96164e-08)
(0.00221201 1.83929e-07 -8.8619e-10)
(0.0319814 1.6199e-08 3.07128e-10)
(0.315372 6.65857e-09 6.02032e-10)
(-0.00594402 0.000113713 -0.00581308)
(-0.000766203 0.000115914 -0.000421543)
(-5.9601e-05 5.76138e-06 -2.03583e-05)
(1.65648e-06 3.72298e-06 -8.18999e-07)
(0.000115651 3.11909e-07 -2.96519e-08)
(0.00221201 1.83996e-07 -8.93016e-10)
(0.0319814 1.62747e-08 2.12345e-10)
(0.315372 6.70016e-09 2.65463e-10)
(-0.00594402 0.000113713 -0.00581308)
(-0.000766203 0.000115914 -0.000421543)
(-5.9601e-05 5.76133e-06 -2.03582e-05)
(1.65645e-06 3.72297e-06 -8.19138e-07)
(0.000115651 3.11942e-07 -2.96573e-08)
(0.00221201 1.84024e-07 -9.65259e-10)
(0.0319814 1.63141e-08 -1.29504e-10)
(0.315372 6.71605e-09 -2.61332e-10)
(-0.00594402 0.000113713 -0.00581308)
(-0.000766203 0.000115914 -0.000421543)
(-5.9601e-05 5.76128e-06 -2.03582e-05)
(1.65639e-06 3.72292e-06 -8.19186e-07)
(0.000115651 3.11964e-07 -2.9657e-08)
(0.00221201 1.83964e-07 -1.02023e-09)
(0.0319814 1.61998e-08 -3.38725e-10)
(0.315372 6.62368e-09 -4.41535e-10)
(-0.00594402 0.000113713 -0.00581308)
(-0.000766203 0.000115914 -0.000421543)
(-5.9601e-05 5.76122e-06 -2.03582e-05)
(1.65629e-06 3.72292e-06 -8.19264e-07)
(0.000115651 3.11994e-07 -2.97237e-08)
(0.00221201 1.8391e-07 -1.06819e-09)
(0.0319814 1.6141e-08 -2.88084e-10)
(0.315372 6.6156e-09 -3.88334e-10)
(-0.00594402 0.000113712 -0.00581308)
(-0.000766203 0.000115914 -0.000421543)
(-5.9601e-05 5.76111e-06 -2.03583e-05)
(1.65633e-06 3.72286e-06 -8.19069e-07)
(0.000115651 3.12028e-07 -2.96584e-08)
(0.00221201 1.83892e-07 -1.00577e-09)
(0.0319814 1.60677e-08 -2.34687e-10)
(0.315372 6.54901e-09 -3.80836e-10)
)
;
    }
}


// ************************************************************************* //
