/*--------------------------------*- C++ -*----------------------------------*\
| =========                 |                                                 |
| \\      /  F ield         | OpenFOAM: The Open Source CFD Toolbox           |
|  \\    /   O peration     | Version:  2306                                  |
|   \\  /    A nd           | Website:  www.openfoam.com                      |
|    \\/     M anipulation  |                                                 |
\*---------------------------------------------------------------------------*/
FoamFile
{
    version     2.0;
    format      ascii;
    arch        "LSB;label=32;scalar=64";
    class       volVectorField;
    location    "4";
    object      U_0;
}
// * * * * * * * * * * * * * * * * * * * * * * * * * * * * * * * * * * * * * //

dimensions      [0 1 -1 0 0 0 0];

internalField   nonuniform List<vector> 
256
(
(-0.00633953 9.61647e-05 -0.0063651)
(-0.00616727 3.04139e-05 -0.00617486)
(-0.00616748 -3.02213e-05 -0.0061771)
(-0.00633952 -9.61059e-05 -0.00636976)
(-0.000708515 9.67623e-05 -0.000340084)
(-0.000682413 3.02376e-05 -0.000293078)
(-0.000682388 -3.01819e-05 -0.000293234)
(-0.000708452 -9.67499e-05 -0.000340484)
(-4.18919e-05 3.537e-06 -1.36273e-05)
(-3.34826e-05 1.03864e-06 -1.06331e-05)
(-3.34799e-05 -9.92973e-07 -1.06398e-05)
(-4.18867e-05 -3.51969e-06 -1.36451e-05)
(2.32093e-06 2.9197e-06 -5.32928e-07)
(2.74812e-06 1.12551e-06 -4.18718e-07)
(2.75083e-06 -1.12054e-06 -4.19071e-07)
(2.33042e-06 -2.91739e-06 -5.33825e-07)
(0.000106008 1.33073e-07 -2.067e-08)
(0.000106308 5.01143e-08 -1.76819e-08)
(0.000106309 -4.77123e-08 -1.77221e-08)
(0.00010601 -1.31607e-07 -2.08078e-08)
(0.00206843 1.31245e-07 -7.79587e-10)
(0.00206846 5.32211e-08 -6.9975e-10)
(0.00206846 -5.41309e-08 -6.33177e-10)
(0.00206843 -1.31569e-07 -7.40437e-10)
(0.0306484 1.20891e-08 -6.16158e-11)
(0.0306484 4.02252e-09 -7.84974e-11)
(0.0306484 -6.33748e-09 9.53678e-11)
(0.0306484 -1.30908e-08 -1.12123e-11)
(0.309584 1.43636e-09 -5.33061e-12)
(0.309584 -6.38984e-10 -1.66399e-10)
(0.309584 -2.39121e-09 1.07389e-11)
(0.309584 -2.84774e-09 4.68577e-11)
(-0.00633953 9.6165e-05 -0.0063651)
(-0.00616727 3.04137e-05 -0.00617486)
(-0.00616748 -3.02216e-05 -0.0061771)
(-0.00633952 -9.61059e-05 -0.00636976)
(-0.000708516 9.67625e-05 -0.000340084)
(-0.000682412 3.02375e-05 -0.000293078)
(-0.000682388 -3.01823e-05 -0.000293234)
(-0.000708452 -9.67497e-05 -0.000340484)
(-4.18919e-05 3.53709e-06 -1.36274e-05)
(-3.34825e-05 1.03875e-06 -1.06331e-05)
(-3.34801e-05 -9.93062e-07 -1.06397e-05)
(-4.18866e-05 -3.51967e-06 -1.36453e-05)
(2.3209e-06 2.9198e-06 -5.32832e-07)
(2.74788e-06 1.12549e-06 -4.18733e-07)
(2.7507e-06 -1.12055e-06 -4.19176e-07)
(2.33033e-06 -2.91734e-06 -5.33837e-07)
(0.000106008 1.33038e-07 -2.05632e-08)
(0.000106308 5.00696e-08 -1.77593e-08)
(0.000106309 -4.76786e-08 -1.78279e-08)
(0.00010601 -1.31566e-07 -2.07641e-08)
(0.00206843 1.31226e-07 -6.84651e-10)
(0.00206846 5.32221e-08 -7.80113e-10)
(0.00206846 -5.40312e-08 -6.75098e-10)
(0.00206843 -1.31516e-07 -6.65683e-10)
(0.0306484 1.21527e-08 1.05852e-11)
(0.0306484 4.05444e-09 -2.60442e-10)
(0.0306484 -6.24632e-09 1.30358e-10)
(0.0306484 -1.30449e-08 2.29037e-10)
(0.309584 1.50636e-09 -3.06371e-11)
(0.309584 -6.09586e-10 -3.50709e-10)
(0.309584 -2.32171e-09 2.3484e-10)
(0.309584 -2.78938e-09 5.92322e-10)
(-0.00633953 9.6165e-05 -0.0063651)
(-0.00616727 3.04139e-05 -0.00617486)
(-0.00616748 -3.02216e-05 -0.0061771)
(-0.00633952 -9.61062e-05 -0.00636976)
(-0.000708515 9.67624e-05 -0.000340083)
(-0.000682413 3.02376e-05 -0.000293078)
(-0.000682389 -3.01822e-05 -0.000293234)
(-0.000708452 -9.67499e-05 -0.000340484)
(-4.18919e-05 3.53713e-06 -1.36274e-05)
(-3.34825e-05 1.03869e-06 -1.06332e-05)
(-3.348e-05 -9.93054e-07 -1.06397e-05)
(-4.18867e-05 -3.51969e-06 -1.36451e-05)
(2.32079e-06 2.9198e-06 -5.33016e-07)
(2.74774e-06 1.12553e-06 -4.18808e-07)
(2.75056e-06 -1.12056e-06 -4.19125e-07)
(2.33035e-06 -2.91736e-06 -5.33842e-07)
(0.000106008 1.32992e-07 -2.06899e-08)
(0.000106308 5.00366e-08 -1.76918e-08)
(0.000106309 -4.76648e-08 -1.77016e-08)
(0.000106011 -1.31525e-07 -2.0728e-08)
(0.00206843 1.31211e-07 -7.85157e-10)
(0.00206846 5.31654e-08 -7.67864e-10)
(0.00206846 -5.40105e-08 -7.05369e-10)
(0.00206843 -1.31446e-07 -7.104e-10)
(0.0306484 1.20661e-08 -8.88383e-11)
(0.0306484 3.96833e-09 -3.67629e-10)
(0.0306484 -6.15611e-09 -1.16394e-10)
(0.0306484 -1.28479e-08 2.4055e-10)
(0.309584 1.431e-09 -2.40651e-10)
(0.309584 -6.51219e-10 -4.51719e-10)
(0.309584 -2.23394e-09 -3.00421e-10)
(0.309584 -2.63365e-09 6.43549e-10)
(-0.00633953 9.61652e-05 -0.00636511)
(-0.00616727 3.0414e-05 -0.00617486)
(-0.00616748 -3.02215e-05 -0.0061771)
(-0.00633952 -9.61059e-05 -0.00636976)
(-0.000708515 9.67626e-05 -0.000340084)
(-0.000682413 3.02377e-05 -0.000293078)
(-0.000682389 -3.0182e-05 -0.000293234)
(-0.000708453 -9.67497e-05 -0.000340484)
(-4.18919e-05 3.53709e-06 -1.36273e-05)
(-3.34825e-05 1.03871e-06 -1.06331e-05)
(-3.348e-05 -9.93028e-07 -1.06397e-05)
(-4.18866e-05 -3.51968e-06 -1.36452e-05)
(2.32077e-06 2.91983e-06 -5.3313e-07)
(2.74773e-06 1.12555e-06 -4.18883e-07)
(2.75051e-06 -1.12052e-06 -4.19065e-07)
(2.33035e-06 -2.91734e-06 -5.33693e-07)
(0.000106008 1.32987e-07 -2.06981e-08)
(0.000106308 5.00243e-08 -1.76401e-08)
(0.000106309 -4.7661e-08 -1.76123e-08)
(0.000106011 -1.31499e-07 -2.06678e-08)
(0.00206843 1.31197e-07 -7.10782e-10)
(0.00206846 5.30982e-08 -6.81832e-10)
(0.00206846 -5.40479e-08 -6.58572e-10)
(0.00206843 -1.31402e-07 -7.15237e-10)
(0.0306484 1.19971e-08 -5.78222e-13)
(0.0306484 3.86138e-09 -2.06339e-10)
(0.0306484 -6.24187e-09 -9.01012e-11)
(0.0306484 -1.27604e-08 1.75183e-10)
(0.309584 1.40765e-09 1.20755e-10)
(0.309584 -7.29662e-10 -2.28394e-10)
(0.309584 -2.32379e-09 -3.84354e-10)
(0.309584 -2.5742e-09 2.7382e-10)
(-0.00633953 9.61653e-05 -0.0063651)
(-0.00616727 3.04143e-05 -0.00617486)
(-0.00616748 -3.02212e-05 -0.0061771)
(-0.00633952 -9.61058e-05 -0.00636976)
(-0.000708516 9.67627e-05 -0.000340084)
(-0.000682413 3.02379e-05 -0.000293078)
(-0.000682389 -3.01819e-05 -0.000293234)
(-0.000708453 -9.67496e-05 -0.000340484)
(-4.1892e-05 3.53707e-06 -1.36272e-05)
(-3.34826e-05 1.0387e-06 -1.0633e-05)
(-3.348e-05 -9.93042e-07 -1.06396e-05)
(-4.18866e-05 -3.51965e-06 -1.36452e-05)
(2.32077e-06 2.91981e-06 -5.33205e-07)
(2.74776e-06 1.12556e-06 -4.18933e-07)
(2.75059e-06 -1.12049e-06 -4.19032e-07)
(2.33038e-06 -2.91733e-06 -5.33568e-07)
(0.000106008 1.3301e-07 -2.06763e-08)
(0.000106308 5.00502e-08 -1.76284e-08)
(0.000106309 -4.76531e-08 -1.7671e-08)
(0.000106011 -1.31515e-07 -2.07302e-08)
(0.00206843 1.3122e-07 -6.88152e-10)
(0.00206846 5.30791e-08 -6.29917e-10)
(0.00206846 -5.40582e-08 -6.92047e-10)
(0.00206843 -1.31381e-07 -7.96672e-10)
(0.0306484 1.20255e-08 2.45773e-11)
(0.0306484 3.8166e-09 6.95472e-12)
(0.0306484 -6.24443e-09 -6.39206e-11)
(0.0306484 -1.27102e-08 -1.05862e-10)
(0.309584 1.44015e-09 1.81316e-10)
(0.309584 -7.50023e-10 -4.58382e-11)
(0.309584 -2.34088e-09 2.32414e-10)
(0.309584 -2.5548e-09 -2.73635e-10)
(-0.00633953 9.61653e-05 -0.0063651)
(-0.00616727 3.04142e-05 -0.00617486)
(-0.00616748 -3.02213e-05 -0.0061771)
(-0.00633952 -9.61059e-05 -0.00636976)
(-0.000708515 9.67626e-05 -0.000340084)
(-0.000682413 3.02378e-05 -0.000293078)
(-0.000682389 -3.0182e-05 -0.000293234)
(-0.000708453 -9.67497e-05 -0.000340484)
(-4.1892e-05 3.53705e-06 -1.36272e-05)
(-3.34825e-05 1.03868e-06 -1.06329e-05)
(-3.34801e-05 -9.9304e-07 -1.06396e-05)
(-4.18866e-05 -3.51966e-06 -1.3645e-05)
(2.32081e-06 2.91981e-06 -5.33325e-07)
(2.74786e-06 1.12555e-06 -4.18947e-07)
(2.75071e-06 -1.12053e-06 -4.18998e-07)
(2.33041e-06 -2.91732e-06 -5.33555e-07)
(0.000106008 1.33042e-07 -2.07146e-08)
(0.000106308 5.00752e-08 -1.76773e-08)
(0.000106309 -4.76749e-08 -1.77076e-08)
(0.00010601 -1.31566e-07 -2.07238e-08)
(0.00206843 1.31214e-07 -7.37479e-10)
(0.00206846 5.30843e-08 -6.42679e-10)
(0.00206846 -5.40754e-08 -7.37241e-10)
(0.00206843 -1.3142e-07 -8.22851e-10)
(0.0306484 1.20792e-08 -3.30106e-11)
(0.0306484 3.78356e-09 2.3043e-10)
(0.0306484 -6.22031e-09 -1.32151e-10)
(0.0306484 -1.28189e-08 -2.85453e-10)
(0.309584 1.47704e-09 2.19267e-10)
(0.309584 -7.59572e-10 4.74557e-10)
(0.309584 -2.29764e-09 1.3594e-11)
(0.309584 -2.66103e-09 -4.77931e-10)
(-0.00633953 9.61649e-05 -0.0063651)
(-0.00616727 3.0414e-05 -0.00617486)
(-0.00616748 -3.02214e-05 -0.0061771)
(-0.00633952 -9.61061e-05 -0.00636976)
(-0.000708515 9.67623e-05 -0.000340084)
(-0.000682413 3.02377e-05 -0.000293078)
(-0.000682389 -3.0182e-05 -0.000293234)
(-0.000708452 -9.675e-05 -0.000340484)
(-4.18919e-05 3.53693e-06 -1.36272e-05)
(-3.34826e-05 1.03862e-06 -1.06329e-05)
(-3.348e-05 -9.93051e-07 -1.06395e-05)
(-4.18866e-05 -3.51969e-06 -1.3645e-05)
(2.32083e-06 2.91974e-06 -5.33271e-07)
(2.74804e-06 1.1255e-06 -4.18941e-07)
(2.75082e-06 -1.12053e-06 -4.19018e-07)
(2.33049e-06 -2.91738e-06 -5.33518e-07)
(0.000106008 1.33091e-07 -2.06928e-08)
(0.000106308 5.01007e-08 -1.77324e-08)
(0.000106309 -4.76971e-08 -1.76626e-08)
(0.00010601 -1.31597e-07 -2.05263e-08)
(0.00206843 1.31233e-07 -6.91263e-10)
(0.00206846 5.31668e-08 -6.42529e-10)
(0.00206846 -5.41037e-08 -7.10006e-10)
(0.00206843 -1.31471e-07 -6.98107e-10)
(0.0306484 1.21767e-08 3.41876e-11)
(0.0306484 3.99351e-09 3.48302e-10)
(0.0306484 -6.32435e-09 -5.95159e-12)
(0.0306484 -1.28875e-08 -2.1523e-10)
(0.309584 1.55044e-09 6.22545e-11)
(0.309584 -6.21718e-10 6.61452e-10)
(0.309584 -2.36487e-09 5.47535e-11)
(0.309584 -2.68774e-09 -4.19207e-10)
(-0.00633953 9.6165e-05 -0.0063651)
(-0.00616727 3.04139e-05 -0.00617486)
(-0.00616748 -3.02215e-05 -0.0061771)
(-0.00633952 -9.61057e-05 -0.00636976)
(-0.000708516 9.67625e-05 -0.000340084)
(-0.000682413 3.02375e-05 -0.000293078)
(-0.000682388 -3.01822e-05 -0.000293234)
(-0.000708452 -9.67496e-05 -0.000340484)
(-4.1892e-05 3.53693e-06 -1.36273e-05)
(-3.34824e-05 1.03864e-06 -1.06331e-05)
(-3.34801e-05 -9.93067e-07 -1.06396e-05)
(-4.18866e-05 -3.51964e-06 -1.3645e-05)
(2.32098e-06 2.91978e-06 -5.33133e-07)
(2.74807e-06 1.12548e-06 -4.18838e-07)
(2.75097e-06 -1.12058e-06 -4.19007e-07)
(2.33044e-06 -2.91731e-06 -5.33669e-07)
(0.000106008 1.33119e-07 -2.07531e-08)
(0.000106308 5.01237e-08 -1.76578e-08)
(0.000106309 -4.77018e-08 -1.76096e-08)
(0.00010601 -1.31616e-07 -2.06367e-08)
(0.00206843 1.31244e-07 -8.11247e-10)
(0.00206846 5.32388e-08 -6.35437e-10)
(0.00206846 -5.40897e-08 -6.69689e-10)
(0.00206843 -1.3156e-07 -7.41845e-10)
(0.0306484 1.21408e-08 -6.86856e-11)
(0.0306484 4.05289e-09 1.45481e-10)
(0.0306484 -6.24736e-09 9.96424e-13)
(0.0306484 -1.30173e-08 -2.10522e-10)
(0.309584 1.52486e-09 -3.11796e-10)
(0.309584 -5.90485e-10 1.02042e-10)
(0.309584 -2.31552e-09 1.33405e-10)
(0.309584 -2.77521e-09 -3.90648e-10)
)
;

boundaryField
{
    movingWall
    {
        type            fixedValue;
        value           uniform (1 0 0);
    }
    CPLReceiveMD
    {
        type            fixedValue;
        value           uniform (0.0086049 0 -0.0116141);
    }
    streamwiseIn
    {
        type            cyclic;
    }
    streamwiseOut
    {
        type            cyclic;
    }
    front
    {
        type            cyclic;
    }
    back
    {
        type            cyclic;
    }
    procBoundary0to1
    {
        type            processor;
        value           nonuniform List<vector> 
64
(
(-0.00588558 -9.61673e-05 -0.00558702)
(-0.000739101 -9.67656e-05 -0.000396148)
(-5.48326e-05 -3.54011e-06 -1.84853e-05)
(1.67049e-06 -2.91393e-06 -7.28091e-07)
(0.000105577 -1.29305e-07 -2.59962e-08)
(0.00206839 -1.31249e-07 -8.35343e-10)
(0.0306484 -1.22914e-08 -8.02903e-11)
(0.309584 -1.72924e-09 2.75294e-11)
(-0.00588558 -9.61677e-05 -0.00558702)
(-0.000739101 -9.67658e-05 -0.000396148)
(-5.48325e-05 -3.54011e-06 -1.84853e-05)
(1.67053e-06 -2.91401e-06 -7.28161e-07)
(0.000105577 -1.29266e-07 -2.61188e-08)
(0.00206839 -1.31183e-07 -9.11676e-10)
(0.0306484 -1.21696e-08 -8.555e-11)
(0.309584 -1.62922e-09 5.09079e-11)
(-0.00588558 -9.61676e-05 -0.00558702)
(-0.000739101 -9.67657e-05 -0.000396148)
(-5.48325e-05 -3.54009e-06 -1.84853e-05)
(1.67065e-06 -2.91397e-06 -7.28021e-07)
(0.000105578 -1.29263e-07 -2.59416e-08)
(0.00206839 -1.31209e-07 -8.99855e-10)
(0.0306484 -1.22336e-08 -1.83487e-10)
(0.309584 -1.6579e-09 -1.45262e-10)
(-0.00588558 -9.61675e-05 -0.00558702)
(-0.000739101 -9.67656e-05 -0.000396148)
(-5.48326e-05 -3.54002e-06 -1.84853e-05)
(1.67069e-06 -2.91396e-06 -7.27947e-07)
(0.000105578 -1.29272e-07 -2.59068e-08)
(0.00206839 -1.3125e-07 -8.34569e-10)
(0.0306484 -1.22813e-08 -2.40349e-11)
(0.309584 -1.64846e-09 1.59817e-10)
(-0.00588558 -9.61675e-05 -0.00558702)
(-0.000739101 -9.67656e-05 -0.000396148)
(-5.48325e-05 -3.54003e-06 -1.84852e-05)
(1.67068e-06 -2.91394e-06 -7.27878e-07)
(0.000105578 -1.29273e-07 -2.59618e-08)
(0.00206839 -1.31227e-07 -7.94249e-10)
(0.0306484 -1.22484e-08 1.08727e-10)
(0.309584 -1.62104e-09 1.22499e-10)
(-0.00588558 -9.61677e-05 -0.00558702)
(-0.000739101 -9.67657e-05 -0.000396148)
(-5.48325e-05 -3.54006e-06 -1.84852e-05)
(1.67064e-06 -2.91398e-06 -7.2779e-07)
(0.000105577 -1.29293e-07 -2.59157e-08)
(0.00206839 -1.31192e-07 -7.69674e-10)
(0.0306484 -1.22162e-08 8.18066e-11)
(0.309584 -1.63249e-09 1.00079e-10)
(-0.00588558 -9.61677e-05 -0.00558702)
(-0.000739101 -9.67658e-05 -0.000396148)
(-5.48326e-05 -3.54006e-06 -1.84851e-05)
(1.67061e-06 -2.91396e-06 -7.27897e-07)
(0.000105577 -1.29318e-07 -2.58699e-08)
(0.00206839 -1.31193e-07 -7.99702e-10)
(0.0306484 -1.21643e-08 6.0285e-11)
(0.309584 -1.60353e-09 -7.11041e-12)
(-0.00588558 -9.61677e-05 -0.00558702)
(-0.0007391 -9.67659e-05 -0.000396148)
(-5.48325e-05 -3.54011e-06 -1.84852e-05)
(1.67045e-06 -2.91401e-06 -7.27988e-07)
(0.000105577 -1.29309e-07 -2.58282e-08)
(0.00206839 -1.31183e-07 -8.13228e-10)
(0.0306484 -1.21763e-08 -6.69873e-11)
(0.309584 -1.63001e-09 -3.13147e-10)
)
;
    }
    procBoundary0to1throughstreamwiseIn
    {
        type            processorCyclic;
        value           nonuniform List<vector> 
64
(
(-0.00588559 9.61056e-05 -0.00558235)
(-0.000739163 9.67559e-05 -0.000395733)
(-5.48376e-05 3.52054e-06 -1.84663e-05)
(1.65857e-06 2.91296e-06 -7.2712e-07)
(0.000105575 1.28475e-07 -2.58396e-08)
(0.00206839 1.3154e-07 -8.03022e-10)
(0.0306484 1.26602e-08 9.36314e-13)
(0.309584 2.36916e-09 3.33582e-11)
(-0.00588559 9.61054e-05 -0.00558235)
(-0.000739163 9.67558e-05 -0.000395733)
(-5.48377e-05 3.5206e-06 -1.84663e-05)
(1.65865e-06 2.91295e-06 -7.27076e-07)
(0.000105575 1.2842e-07 -2.58756e-08)
(0.00206839 1.31584e-07 -8.07173e-10)
(0.0306484 1.27345e-08 2.45279e-10)
(0.309584 2.4262e-09 5.59165e-10)
(-0.00588559 9.61057e-05 -0.00558235)
(-0.000739163 9.6756e-05 -0.000395733)
(-5.48376e-05 3.52067e-06 -1.84664e-05)
(1.65865e-06 2.913e-06 -7.27154e-07)
(0.000105575 1.2839e-07 -2.58714e-08)
(0.00206839 1.31628e-07 -7.30868e-10)
(0.0306484 1.2902e-08 2.99256e-10)
(0.309584 2.55752e-09 6.0497e-10)
(-0.00588559 9.61057e-05 -0.00558235)
(-0.000739163 9.67559e-05 -0.000395733)
(-5.48377e-05 3.52067e-06 -1.84663e-05)
(1.65865e-06 2.91302e-06 -7.27344e-07)
(0.000105575 1.28392e-07 -2.59273e-08)
(0.00206839 1.3169e-07 -7.54298e-10)
(0.0306484 1.29735e-08 2.02367e-10)
(0.309584 2.6e-09 2.55096e-10)
(-0.00588559 9.61056e-05 -0.00558235)
(-0.000739163 9.67558e-05 -0.000395733)
(-5.48377e-05 3.52061e-06 -1.84661e-05)
(1.65862e-06 2.91302e-06 -7.27459e-07)
(0.000105575 1.28423e-07 -2.59458e-08)
(0.00206839 1.31715e-07 -8.38592e-10)
(0.0306484 1.30112e-08 -1.22781e-10)
(0.309584 2.61556e-09 -2.54961e-10)
(-0.00588559 9.61055e-05 -0.00558235)
(-0.000739163 9.67558e-05 -0.000395733)
(-5.48377e-05 3.52057e-06 -1.84662e-05)
(1.65857e-06 2.91296e-06 -7.27494e-07)
(0.000105575 1.28436e-07 -2.59473e-08)
(0.00206839 1.31661e-07 -8.96735e-10)
(0.0306484 1.29029e-08 -3.19502e-10)
(0.309584 2.52376e-09 -4.31219e-10)
(-0.00588559 9.61056e-05 -0.00558235)
(-0.000739163 9.67558e-05 -0.000395733)
(-5.48376e-05 3.52052e-06 -1.84662e-05)
(1.65847e-06 2.91297e-06 -7.27598e-07)
(0.000105575 1.28458e-07 -2.60422e-08)
(0.00206839 1.31611e-07 -9.55029e-10)
(0.0306484 1.28455e-08 -2.72107e-10)
(0.309584 2.51247e-09 -3.85686e-10)
(-0.00588559 9.61053e-05 -0.00558235)
(-0.000739163 9.67556e-05 -0.000395733)
(-5.48376e-05 3.52041e-06 -1.84663e-05)
(1.65852e-06 2.91289e-06 -7.27418e-07)
(0.000105575 1.28488e-07 -2.59488e-08)
(0.00206839 1.31607e-07 -8.69305e-10)
(0.0306484 1.27804e-08 -2.2284e-10)
(0.309584 2.44562e-09 -3.85361e-10)
)
;
    }
}


// ************************************************************************* //
