/*--------------------------------*- C++ -*----------------------------------*\
| =========                 |                                                 |
| \\      /  F ield         | OpenFOAM: The Open Source CFD Toolbox           |
|  \\    /   O peration     | Version:  2306                                  |
|   \\  /    A nd           | Website:  www.openfoam.com                      |
|    \\/     M anipulation  |                                                 |
\*---------------------------------------------------------------------------*/
FoamFile
{
    version     2.0;
    format      ascii;
    arch        "LSB;label=32;scalar=64";
    class       surfaceScalarField;
    location    "3";
    object      phi;
}
// * * * * * * * * * * * * * * * * * * * * * * * * * * * * * * * * * * * * * //

dimensions      [0 3 -1 0 0 0 0];

oriented        oriented;

internalField   nonuniform List<scalar> 
640
(
-0.0759876
-0.000207149
-0.0361929
-0.0759043
-8.33858e-05
-0.0298681
-0.0759885
8.42577e-05
-0.0298866
0.000207403
-0.0362587
-0.00571874
-0.000137387
-0.00115898
-0.00574079
-6.1341e-05
-0.000749586
-0.00571822
6.16876e-05
-0.000750302
0.000137539
-0.00116137
-0.000381699
-2.98769e-05
-4.47974e-05
-0.000430837
-1.22023e-05
-3.0854e-05
-0.000381469
1.23208e-05
-3.08731e-05
2.99269e-05
-4.48586e-05
-1.37264e-05
-1.08725e-05
-2.02363e-06
-2.15078e-05
-4.42112e-06
-1.75472e-06
-1.3632e-05
4.44427e-06
-1.75503e-06
1.08813e-05
-2.02519e-06
0.000472869
-2.16199e-06
-7.72855e-08
0.000469331
-8.82672e-07
-7.5875e-08
0.000472888
8.86942e-07
-7.44994e-08
2.16413e-06
-7.51375e-08
0.0121475
-6.51146e-07
-1.8402e-09
0.0121468
-2.69907e-07
-2.92199e-09
0.0121475
2.65547e-07
-2.31799e-09
6.49441e-07
-2.48782e-09
0.232312
-1.37582e-07
-4.89788e-10
0.232312
-6.04566e-08
-1.70252e-09
0.232312
5.11929e-08
1.65288e-09
1.3397e-07
1.57379e-09
3.01658
-1.62248e-09
3.01658
-4.1346e-09
3.01658
1.71048e-09
2.53647e-09
-0.0759876
-0.000207145
-0.0361929
-0.0759043
-8.33894e-05
-0.0298681
-0.0759885
8.42592e-05
-0.0298866
0.000207399
-0.0362587
-0.00571874
-0.000137383
-0.00115898
-0.00574079
-6.13426e-05
-0.000749585
-0.00571822
6.16886e-05
-0.000750299
0.00013754
-0.00116137
-0.000381699
-2.98772e-05
-4.47988e-05
-0.000430837
-1.22023e-05
-3.08566e-05
-0.000381468
1.23209e-05
-3.08743e-05
2.99279e-05
-4.48613e-05
-1.37287e-05
-1.08711e-05
-2.0223e-06
-2.15109e-05
-4.42013e-06
-1.7547e-06
-1.36342e-05
4.44454e-06
-1.75535e-06
1.08809e-05
-2.02475e-06
0.000472869
-2.1625e-06
-7.68486e-08
0.000469331
-8.82901e-07
-7.54519e-08
0.000472889
8.87334e-07
-7.46296e-08
2.16442e-06
-7.59192e-08
0.0121475
-6.51364e-07
-1.79532e-09
0.0121468
-2.70064e-07
-2.95558e-09
0.0121475
2.6591e-07
-2.49413e-09
6.49698e-07
-2.52506e-09
0.232312
-1.37303e-07
-8.42605e-10
0.232312
-6.02581e-08
-3.20836e-09
0.232312
5.17365e-08
1.03278e-09
1.34531e-07
3.2925e-09
3.01658
-2.47383e-09
3.01658
-6.02501e-09
3.01658
7.60137e-10
6.53363e-09
-0.0759876
-0.00020715
-0.0361929
-0.0759043
-8.3386e-05
-0.0298681
-0.0759885
8.42581e-05
-0.0298866
0.000207399
-0.0362587
-0.00571875
-0.000137383
-0.00115898
-0.00574079
-6.13387e-05
-0.000749583
-0.00571822
6.16891e-05
-0.000750301
0.00013754
-0.00116137
-0.000381698
-2.98781e-05
-4.47979e-05
-0.000430835
-1.22024e-05
-3.08558e-05
-0.000381468
1.23216e-05
-3.08745e-05
2.99287e-05
-4.48619e-05
-1.37307e-05
-1.08699e-05
-2.02338e-06
-2.15129e-05
-4.41983e-06
-1.75515e-06
-1.3635e-05
4.44423e-06
-1.75585e-06
1.08805e-05
-2.02603e-06
0.00047287
-2.16277e-06
-7.54899e-08
0.000469333
-8.8305e-07
-7.45816e-08
0.000472889
8.87563e-07
-7.46568e-08
2.1649e-06
-7.64659e-08
0.0121475
-6.51677e-07
-1.77053e-09
0.0121468
-2.70283e-07
-2.59815e-09
0.0121475
2.6638e-07
-2.61886e-09
6.50247e-07
-2.26997e-09
0.232312
-1.37688e-07
-7.93717e-10
0.232312
-6.08822e-08
-2.55338e-09
0.232312
5.2274e-08
-3.31052e-10
1.35434e-07
3.55618e-09
3.01658
-6.0174e-10
3.01658
-3.46906e-09
3.01658
-2.59912e-09
6.33837e-09
-0.0759876
-0.00020715
-0.0361929
-0.0759043
-8.33876e-05
-0.0298681
-0.0759885
8.426e-05
-0.0298866
0.000207397
-0.0362587
-0.00571875
-0.000137381
-0.00115898
-0.00574079
-6.13386e-05
-0.000749585
-0.00571822
6.16914e-05
-0.000750302
0.000137542
-0.00116137
-0.000381698
-2.98784e-05
-4.47955e-05
-0.000430835
-1.22027e-05
-3.08545e-05
-0.000381466
1.23219e-05
-3.08741e-05
2.99294e-05
-4.48607e-05
-1.37305e-05
-1.08697e-05
-2.02489e-06
-2.15125e-05
-4.41994e-06
-1.75585e-06
-1.36344e-05
4.44393e-06
-1.75595e-06
1.08805e-05
-2.0257e-06
0.000472872
-2.16287e-06
-7.48535e-08
0.000469334
-8.83167e-07
-7.38216e-08
0.00047289
8.87575e-07
-7.44122e-08
2.16512e-06
-7.61716e-08
0.0121475
-6.51735e-07
-1.90745e-09
0.0121469
-2.70326e-07
-2.27028e-09
0.0121475
2.66257e-07
-2.5402e-09
6.50464e-07
-2.4056e-09
0.232312
-1.37908e-07
3.51399e-10
0.232312
-6.13325e-08
-8.20423e-10
0.232312
5.20067e-08
-7.61641e-10
1.35902e-07
7.57429e-10
3.01658
2.01699e-09
3.01658
-1.36929e-09
3.01658
-1.11208e-09
4.55268e-10
-0.0759877
-0.000207149
-0.0361929
-0.0759043
-8.33868e-05
-0.0298681
-0.0759885
8.42602e-05
-0.0298866
0.000207398
-0.0362587
-0.00571875
-0.000137381
-0.00115899
-0.00574079
-6.13373e-05
-0.000749589
-0.00571822
6.16924e-05
-0.000750303
0.000137542
-0.00116137
-0.000381699
-2.98781e-05
-4.47935e-05
-0.000430836
-1.22025e-05
-3.08521e-05
-0.000381467
1.23219e-05
-3.08726e-05
2.9929e-05
-4.48601e-05
-1.37299e-05
-1.08704e-05
-2.02566e-06
-2.15117e-05
-4.42045e-06
-1.7561e-06
-1.36338e-05
4.44399e-06
-1.75596e-06
1.0881e-05
-2.02524e-06
0.000472872
-2.16266e-06
-7.46244e-08
0.000469334
-8.8309e-07
-7.33652e-08
0.00047289
8.87588e-07
-7.41582e-08
2.16515e-06
-7.54773e-08
0.0121475
-6.51384e-07
-2.26966e-09
0.0121469
-2.70308e-07
-1.9717e-09
0.0121475
2.66132e-07
-2.39012e-09
6.50363e-07
-2.33365e-09
0.232312
-1.37718e-07
9.5244e-10
0.232312
-6.14398e-08
1.56152e-09
0.232312
5.20358e-08
-1.44502e-09
1.36168e-07
-2.12525e-09
3.01658
2.94108e-09
3.01658
2.14315e-09
3.01658
2.5117e-10
-4.64335e-09
-0.0759876
-0.000207148
-0.0361929
-0.0759043
-8.33865e-05
-0.0298681
-0.0759885
8.42592e-05
-0.0298866
0.000207398
-0.0362587
-0.00571874
-0.000137381
-0.00115899
-0.00574079
-6.13374e-05
-0.00074959
-0.00571822
6.16915e-05
-0.000750303
0.000137543
-0.00116137
-0.0003817
-2.98775e-05
-4.47926e-05
-0.000430836
-1.22021e-05
-3.08511e-05
-0.000381467
1.23216e-05
-3.08716e-05
2.99282e-05
-4.48601e-05
-1.37293e-05
-1.08717e-05
-2.0244e-06
-2.15106e-05
-4.42111e-06
-1.75584e-06
-1.3633e-05
4.4442e-06
-1.75619e-06
1.08816e-05
-2.02502e-06
0.00047287
-2.16241e-06
-7.42307e-08
0.000469332
-8.82917e-07
-7.32682e-08
0.000472888
8.87512e-07
-7.42921e-08
2.16487e-06
-7.53356e-08
0.0121475
-6.50992e-07
-2.94632e-09
0.0121468
-2.70371e-07
-1.85403e-09
0.0121475
2.66007e-07
-2.27606e-09
6.49851e-07
-2.14888e-09
0.232312
-1.37625e-07
6.07374e-10
0.232312
-6.1611e-08
2.87185e-09
0.232312
5.20056e-08
-1.4071e-09
1.35494e-07
-3.42055e-09
3.01658
1.68885e-09
3.01658
6.1166e-09
3.01658
-8.8545e-10
-6.33542e-09
-0.0759876
-0.000207148
-0.0361929
-0.0759043
-8.33865e-05
-0.0298681
-0.0759885
8.42596e-05
-0.0298866
0.000207399
-0.0362587
-0.00571874
-0.000137384
-0.00115899
-0.00574079
-6.1339e-05
-0.000749589
-0.00571822
6.16913e-05
-0.000750305
0.000137541
-0.00116137
-0.0003817
-2.98769e-05
-4.47925e-05
-0.000430837
-1.22018e-05
-3.08509e-05
-0.000381468
1.23211e-05
-3.08707e-05
2.99274e-05
-4.48593e-05
-1.37282e-05
-1.08728e-05
-2.02412e-06
-2.15089e-05
-4.42175e-06
-1.75525e-06
-1.36319e-05
4.44407e-06
-1.7562e-06
1.0882e-05
-2.02655e-06
0.000472869
-2.1621e-06
-7.44064e-08
0.00046933
-8.82598e-07
-7.40042e-08
0.000472887
8.87399e-07
-7.46791e-08
2.16455e-06
-7.52595e-08
0.0121475
-6.50579e-07
-3.14676e-09
0.0121468
-2.69803e-07
-2.05808e-09
0.0121475
2.65618e-07
-2.20792e-09
6.49701e-07
-1.54897e-09
0.232312
-1.37287e-07
2.28486e-10
0.232312
-6.08139e-08
2.49343e-09
0.232312
5.12428e-08
-5.12594e-10
1.34828e-07
-2.92315e-09
3.01658
-9.10927e-10
3.01658
4.95792e-09
3.01658
8.1111e-10
-4.5138e-09
-0.0759876
-0.000207143
-0.0759043
-8.33889e-05
-0.0759885
8.4259e-05
0.0002074
-0.00571874
-0.000137384
-0.00574079
-6.13423e-05
-0.00571822
6.16891e-05
0.000137542
-0.0003817
-2.98763e-05
-0.000430837
-1.2202e-05
-0.000381468
1.23205e-05
2.99275e-05
-1.37263e-05
-1.0873e-05
-2.15069e-05
-4.42174e-06
-1.36309e-05
4.44407e-06
1.08818e-05
0.000472869
-2.162e-06
0.00046933
-8.82388e-07
0.000472887
8.87256e-07
2.16391e-06
0.0121475
-6.50589e-07
0.0121468
-2.69571e-07
0.0121475
2.65825e-07
6.49608e-07
0.232312
-1.37337e-07
0.232312
-6.04237e-08
0.232312
5.12571e-08
1.34239e-07
3.01658
3.01658
3.01658
)
;

boundaryField
{
    movingWall
    {
        type            calculated;
        value           uniform 0;
    }
    CPLReceiveMD
    {
        type            calculated;
        value           uniform 0;
    }
    streamwiseIn
    {
        type            cyclic;
        value           nonuniform List<scalar> 0();
    }
    streamwiseOut
    {
        type            cyclic;
        value           nonuniform List<scalar> 0();
    }
    front
    {
        type            cyclic;
        value           nonuniform List<scalar> 
32
(
-0.0361929
-0.00115899
-4.47939e-05
-2.02367e-06
-7.61275e-08
-2.74005e-09
-2.88024e-10
-1.40735e-09
-0.0298681
-0.000749587
-3.08534e-05
-1.75491e-06
-7.51463e-08
-2.55442e-09
6.81928e-10
3.66816e-10
-0.0298866
-0.000750303
-3.08716e-05
-1.75576e-06
-7.47743e-08
-2.29186e-09
8.92601e-10
2.05037e-09
-0.0362587
-0.00116137
-4.48574e-05
-2.02574e-06
-7.529e-08
-2.13854e-09
-6.6765e-10
-1.3307e-09
)
;
    }
    back
    {
        type            cyclic;
        value           nonuniform List<scalar> 
32
(
0.0361929
0.00115899
4.47939e-05
2.02367e-06
7.61275e-08
2.74005e-09
2.88024e-10
1.40735e-09
0.0298681
0.000749587
3.08534e-05
1.75491e-06
7.51463e-08
2.55442e-09
-6.81928e-10
-3.66816e-10
0.0298866
0.000750303
3.08716e-05
1.75576e-06
7.47743e-08
2.29186e-09
-8.92601e-10
-2.05037e-09
0.0362587
0.00116137
4.48574e-05
2.02574e-06
7.529e-08
2.13854e-09
6.6765e-10
1.3307e-09
)
;
    }
    procBoundary0to1
    {
        type            processor;
        value           nonuniform List<scalar> 
64
(
-0.0761959
-0.00564836
-0.000273856
5.41313e-06
0.000481605
0.012149
0.232313
3.01658
-0.0761959
-0.00564836
-0.000273853
5.4124e-06
0.000481606
0.012149
0.232313
3.01658
-0.0761959
-0.00564836
-0.000273856
5.41442e-06
0.000481606
0.012149
0.232313
3.01658
-0.0761959
-0.00564837
-0.000273855
5.41413e-06
0.000481605
0.012149
0.232313
3.01658
-0.0761959
-0.00564837
-0.000273854
5.41375e-06
0.000481605
0.012149
0.232313
3.01658
-0.0761959
-0.00564837
-0.000273852
5.41336e-06
0.000481605
0.012149
0.232313
3.01658
-0.0761959
-0.00564836
-0.000273855
5.41505e-06
0.000481605
0.012149
0.232313
3.01658
-0.0761959
-0.00564837
-0.000273855
5.41399e-06
0.000481605
0.012149
0.232313
3.01658
)
;
    }
    procBoundary0to1throughstreamwiseIn
    {
        type            processorCyclic;
        value           nonuniform List<scalar> 
64
(
0.0761948
0.00564898
0.000274192
-5.27803e-06
-0.000481578
-0.012149
-0.232313
-3.01658
0.0761948
0.00564898
0.000274195
-5.27871e-06
-0.000481578
-0.012149
-0.232313
-3.01658
0.0761948
0.00564898
0.000274192
-5.27647e-06
-0.000481579
-0.012149
-0.232313
-3.01658
0.0761948
0.00564898
0.000274193
-5.2767e-06
-0.000481579
-0.012149
-0.232313
-3.01658
0.0761948
0.00564898
0.000274194
-5.27714e-06
-0.00048158
-0.012149
-0.232313
-3.01658
0.0761948
0.00564898
0.000274195
-5.27776e-06
-0.000481579
-0.012149
-0.232313
-3.01658
0.0761948
0.00564898
0.000274193
-5.27612e-06
-0.000481579
-0.012149
-0.232313
-3.01658
0.0761948
0.00564898
0.000274193
-5.27737e-06
-0.000481578
-0.012149
-0.232313
-3.01658
)
;
    }
}


// ************************************************************************* //
