/*--------------------------------*- C++ -*----------------------------------*\
| =========                 |                                                 |
| \\      /  F ield         | OpenFOAM: The Open Source CFD Toolbox           |
|  \\    /   O peration     | Version:  2306                                  |
|   \\  /    A nd           | Website:  www.openfoam.com                      |
|    \\/     M anipulation  |                                                 |
\*---------------------------------------------------------------------------*/
FoamFile
{
    version     2.0;
    format      ascii;
    arch        "LSB;label=32;scalar=64";
    class       surfaceScalarField;
    location    "3";
    object      phi_0;
}
// * * * * * * * * * * * * * * * * * * * * * * * * * * * * * * * * * * * * * //

dimensions      [0 3 -1 0 0 0 0];

oriented        oriented;

internalField   nonuniform List<scalar> 
640
(
-0.0738842
-0.000199764
-0.0340587
-0.0738069
-7.72549e-05
-0.0280889
-0.073885
7.81033e-05
-0.0281055
0.000199915
-0.0341183
-0.00535955
-0.00014773
-0.000962198
-0.0053715
-6.53081e-05
-0.00058951
-0.00535904
6.56392e-05
-0.000590114
0.000147874
-0.00096427
-0.00036566
-3.01656e-05
-3.89147e-05
-0.000418607
-1.23602e-05
-2.70945e-05
-0.000365447
1.2481e-05
-2.71095e-05
3.02186e-05
-3.8963e-05
-1.46121e-05
-1.12293e-05
-1.8048e-06
-2.24188e-05
-4.55389e-06
-1.60815e-06
-1.45152e-05
4.57698e-06
-1.60921e-06
1.1238e-05
-1.80832e-06
0.000415915
-2.29412e-06
-6.81981e-08
0.000412297
-9.35106e-07
-6.80392e-08
0.000415934
9.39092e-07
-6.64059e-08
2.29626e-06
-6.52287e-08
0.011074
-6.81995e-07
-1.34695e-09
0.0110734
-2.82272e-07
-2.69738e-09
0.0110741
2.78376e-07
-2.06865e-09
6.80542e-07
-2.16985e-09
0.218892
-1.45699e-07
1.21744e-10
0.218892
-6.35412e-08
-1.52939e-09
0.218892
5.45554e-08
1.74603e-09
1.41937e-07
1.67023e-09
2.9367
-1.48667e-09
2.9367
-4.18444e-09
2.9367
1.74947e-09
2.27023e-09
-0.0738842
-0.000199759
-0.0340587
-0.0738069
-7.72608e-05
-0.0280889
-0.073885
7.81061e-05
-0.0281055
0.000199909
-0.0341183
-0.00535955
-0.000147724
-0.000962197
-0.0053715
-6.53107e-05
-0.000589507
-0.00535904
6.56412e-05
-0.000590109
0.000147874
-0.000964271
-0.000365659
-3.01667e-05
-3.89163e-05
-0.000418606
-1.23605e-05
-2.70978e-05
-0.000365445
1.24813e-05
-2.71109e-05
3.02203e-05
-3.89663e-05
-1.46149e-05
-1.12276e-05
-1.80312e-06
-2.24224e-05
-4.55267e-06
-1.60839e-06
-1.45179e-05
4.57732e-06
-1.60974e-06
1.12374e-05
-1.80766e-06
0.000415915
-2.2947e-06
-6.76323e-08
0.000412297
-9.35344e-07
-6.74699e-08
0.000415935
9.39455e-07
-6.64794e-08
2.29648e-06
-6.62976e-08
0.011074
-6.82318e-07
-1.50698e-09
0.0110734
-2.82523e-07
-2.76247e-09
0.0110741
2.78758e-07
-2.36809e-09
6.80868e-07
-2.47029e-09
0.218892
-1.4533e-07
-4.19738e-10
0.218892
-6.33062e-08
-3.00519e-09
0.218892
5.52408e-08
1.20135e-09
1.42702e-07
3.35416e-09
2.9367
-2.47599e-09
2.9367
-5.93172e-09
2.9367
5.70509e-10
6.43479e-09
-0.0738842
-0.000199768
-0.0340587
-0.0738069
-7.72562e-05
-0.028089
-0.073885
7.81034e-05
-0.0281055
0.000199909
-0.0341183
-0.00535955
-0.000147724
-0.0009622
-0.00537151
-6.53052e-05
-0.000589506
-0.00535904
6.56415e-05
-0.000590112
0.000147874
-0.000964269
-0.000365658
-3.01686e-05
-3.89149e-05
-0.000418603
-1.23607e-05
-2.70968e-05
-0.000365444
1.24824e-05
-2.71116e-05
3.02219e-05
-3.89676e-05
-1.4617e-05
-1.12261e-05
-1.80532e-06
-2.24247e-05
-4.55234e-06
-1.60911e-06
-1.45189e-05
4.57695e-06
-1.60999e-06
1.1237e-05
-1.80862e-06
0.000415916
-2.29493e-06
-6.58177e-08
0.000412298
-9.35448e-07
-6.63909e-08
0.000415936
9.39717e-07
-6.64309e-08
2.29698e-06
-6.68918e-08
0.0110741
-6.82718e-07
-1.306e-09
0.0110734
-2.82781e-07
-2.31152e-09
0.0110741
2.79217e-07
-2.41847e-09
6.81443e-07
-2.11229e-09
0.218892
-1.45732e-07
-6.66991e-10
0.218892
-6.39371e-08
-2.42243e-09
0.218892
5.58898e-08
-4.83243e-11
1.43727e-07
3.59233e-09
2.9367
-6.56164e-10
2.9367
-3.52302e-09
2.9367
-2.53517e-09
6.2712e-09
-0.0738842
-0.000199769
-0.0340587
-0.0738069
-7.72592e-05
-0.0280889
-0.073885
7.81057e-05
-0.0281055
0.000199904
-0.0341183
-0.00535956
-0.000147721
-0.000962202
-0.00537151
-6.5305e-05
-0.000589508
-0.00535905
6.56444e-05
-0.000590114
0.000147876
-0.000964271
-0.000365657
-3.0169e-05
-3.89114e-05
-0.000418603
-1.23612e-05
-2.70953e-05
-0.000365441
1.24829e-05
-2.71114e-05
3.02229e-05
-3.89666e-05
-1.46166e-05
-1.1226e-05
-1.80808e-06
-2.24242e-05
-4.55248e-06
-1.61022e-06
-1.45182e-05
4.57659e-06
-1.60968e-06
1.12369e-05
-1.80735e-06
0.000415918
-2.29502e-06
-6.50519e-08
0.0004123
-9.35526e-07
-6.54593e-08
0.000415937
9.39784e-07
-6.61141e-08
2.29725e-06
-6.65255e-08
0.0110741
-6.82746e-07
-1.43299e-09
0.0110734
-2.8281e-07
-1.91236e-09
0.0110741
2.79092e-07
-2.24457e-09
6.8164e-07
-2.09778e-09
0.218892
-1.45953e-07
3.82618e-10
0.218892
-6.43709e-08
-7.81921e-10
0.218892
5.56839e-08
-6.41411e-10
1.44222e-07
7.94077e-10
2.9367
1.97139e-09
2.9367
-1.33846e-09
2.9367
-1.07471e-09
5.32625e-10
-0.0738842
-0.000199768
-0.0340587
-0.0738069
-7.7258e-05
-0.0280889
-0.073885
7.81058e-05
-0.0281055
0.000199905
-0.0341183
-0.00535956
-0.000147721
-0.000962205
-0.00537151
-6.53032e-05
-0.000589514
-0.00535904
6.56458e-05
-0.000590116
0.000147877
-0.000964273
-0.000365658
-3.01684e-05
-3.89089e-05
-0.000418604
-1.23609e-05
-2.70923e-05
-0.000365442
1.24827e-05
-2.71095e-05
3.02221e-05
-3.89663e-05
-1.46158e-05
-1.12268e-05
-1.80963e-06
-2.24231e-05
-4.5531e-06
-1.61065e-06
-1.45173e-05
4.57668e-06
-1.60952e-06
1.12377e-05
-1.80635e-06
0.000415918
-2.29484e-06
-6.47811e-08
0.0004123
-9.35428e-07
-6.48933e-08
0.000415936
9.39858e-07
-6.58103e-08
2.29735e-06
-6.57186e-08
0.0110741
-6.82351e-07
-1.88143e-09
0.0110734
-2.82762e-07
-1.61057e-09
0.0110741
2.78964e-07
-2.01699e-09
6.81494e-07
-1.85696e-09
0.218892
-1.45749e-07
8.50654e-10
0.218892
-6.44691e-08
1.47026e-09
0.218892
5.57133e-08
-1.47072e-09
1.44469e-07
-2.11277e-09
2.9367
3.05914e-09
2.9367
2.23488e-09
2.9367
2.06706e-10
-4.48859e-09
-0.0738842
-0.000199766
-0.0340587
-0.0738069
-7.72574e-05
-0.0280889
-0.073885
7.8105e-05
-0.0281055
0.000199904
-0.0341183
-0.00535955
-0.000147721
-0.00096221
-0.0053715
-6.53033e-05
-0.000589516
-0.00535904
6.56448e-05
-0.000590116
0.000147878
-0.000964279
-0.000365661
-3.0167e-05
-3.89079e-05
-0.000418605
-1.23602e-05
-2.70906e-05
-0.000365444
1.2482e-05
-2.71082e-05
3.02205e-05
-3.89663e-05
-1.46152e-05
-1.12285e-05
-1.80797e-06
-2.24218e-05
-4.55387e-06
-1.61043e-06
-1.45163e-05
4.57697e-06
-1.60994e-06
1.12383e-05
-1.80613e-06
0.000415916
-2.29462e-06
-6.43384e-08
0.000412297
-9.35227e-07
-6.48061e-08
0.000415934
9.39849e-07
-6.59865e-08
2.29713e-06
-6.57469e-08
0.0110741
-6.81912e-07
-2.69768e-09
0.0110734
-2.82783e-07
-1.5719e-09
0.0110741
2.78834e-07
-1.86918e-09
6.80957e-07
-1.71152e-09
0.218892
-1.45645e-07
2.00961e-10
0.218892
-6.4623e-08
2.67128e-09
0.218892
5.56387e-08
-1.49029e-09
1.43758e-07
-3.44568e-09
2.9367
1.83689e-09
2.9367
6.25039e-09
2.9367
-8.2472e-10
-6.14207e-09
-0.0738842
-0.000199764
-0.0340587
-0.0738069
-7.72565e-05
-0.0280889
-0.073885
7.81055e-05
-0.0281055
0.000199907
-0.0341183
-0.00535955
-0.000147725
-0.000962211
-0.0053715
-6.53053e-05
-0.000589515
-0.00535904
6.56447e-05
-0.000590119
0.000147876
-0.000964279
-0.000365661
-3.01655e-05
-3.8908e-05
-0.000418607
-1.23596e-05
-2.70904e-05
-0.000365445
1.24814e-05
-2.71067e-05
3.02191e-05
-3.89649e-05
-1.46139e-05
-1.12297e-05
-1.80694e-06
-2.242e-05
-4.55464e-06
-1.60934e-06
-1.45153e-05
4.57678e-06
-1.61e-06
1.12389e-05
-1.80863e-06
0.000415915
-2.29429e-06
-6.44481e-08
0.000412296
-9.34888e-07
-6.57031e-08
0.000415933
9.39759e-07
-6.65095e-08
2.29681e-06
-6.56709e-08
0.011074
-6.81432e-07
-2.712e-09
0.0110734
-2.82206e-07
-1.63634e-09
0.0110741
2.78436e-07
-1.81617e-09
6.80742e-07
-8.74186e-10
0.218892
-1.45333e-07
-3.83306e-11
0.218892
-6.38816e-08
2.35303e-09
0.218892
5.47546e-08
-6.14586e-10
1.42922e-07
-2.91058e-09
2.9367
-8.12464e-10
2.9367
5.02276e-09
2.9367
9.32676e-10
-4.32634e-09
-0.0738842
-0.000199757
-0.0738069
-7.72599e-05
-0.073885
7.81058e-05
0.00019991
-0.00535955
-0.000147725
-0.0053715
-6.53099e-05
-0.00535904
6.5642e-05
0.000147877
-0.00036566
-3.01645e-05
-0.000418607
-1.23597e-05
-0.000365445
1.24806e-05
3.02191e-05
-1.46116e-05
-1.12301e-05
-2.24177e-05
-4.55464e-06
-1.45144e-05
4.57679e-06
1.12385e-05
0.000415915
-2.29424e-06
0.000412296
-9.34699e-07
0.000415934
9.39538e-07
2.29601e-06
0.011074
-6.81387e-07
0.0110734
-2.81931e-07
0.0110741
2.78633e-07
6.80685e-07
0.218892
-1.45405e-07
0.218892
-6.35237e-08
0.218892
5.45733e-08
1.42219e-07
2.9367
2.9367
2.9367
)
;

boundaryField
{
    movingWall
    {
        type            calculated;
        value           uniform 0;
    }
    CPLReceiveMD
    {
        type            calculated;
        value           uniform 0;
    }
    streamwiseIn
    {
        type            cyclic;
        value           nonuniform List<scalar> 0();
    }
    streamwiseOut
    {
        type            cyclic;
        value           nonuniform List<scalar> 0();
    }
    front
    {
        type            cyclic;
        value           nonuniform List<scalar> 
32
(
-0.0340587
-0.000962205
-3.89099e-05
-1.80564e-06
-6.65864e-08
-2.46329e-09
-2.73577e-10
-1.1992e-09
-0.0280889
-0.000589512
-2.70938e-05
-1.60843e-06
-6.71192e-08
-2.12042e-09
6.54139e-10
4.71556e-10
-0.0281055
-0.000590117
-2.71076e-05
-1.60962e-06
-6.67141e-08
-1.83099e-09
9.58152e-10
2.04184e-09
-0.0341183
-0.000964277
-3.89622e-05
-1.80834e-06
-6.56985e-08
-1.79904e-09
-7.54413e-10
-1.23472e-09
)
;
    }
    back
    {
        type            cyclic;
        value           nonuniform List<scalar> 
32
(
0.0340587
0.000962205
3.89099e-05
1.80564e-06
6.65864e-08
2.46329e-09
2.73577e-10
1.1992e-09
0.0280889
0.000589512
2.70938e-05
1.60843e-06
6.71192e-08
2.12042e-09
-6.54139e-10
-4.71556e-10
0.0281055
0.000590117
2.71076e-05
1.60962e-06
6.67141e-08
1.83099e-09
-9.58152e-10
-2.04184e-09
0.0341183
0.000964277
3.89622e-05
1.80834e-06
6.56985e-08
1.79904e-09
7.54413e-10
1.23472e-09
)
;
    }
    procBoundary0to1
    {
        type            processor;
        value           nonuniform List<scalar> 
64
(
-0.0740849
-0.00530701
-0.00024779
4.46513e-06
0.000424876
0.0110757
0.218893
2.9367
-0.0740849
-0.00530701
-0.000247787
4.46438e-06
0.000424877
0.0110757
0.218893
2.9367
-0.0740849
-0.00530701
-0.00024779
4.46689e-06
0.000424877
0.0110757
0.218893
2.9367
-0.0740849
-0.00530701
-0.000247789
4.46657e-06
0.000424876
0.0110757
0.218893
2.9367
-0.0740849
-0.00530701
-0.000247788
4.46605e-06
0.000424876
0.0110757
0.218893
2.9367
-0.0740849
-0.00530701
-0.000247786
4.46548e-06
0.000424876
0.0110757
0.218893
2.9367
-0.0740849
-0.00530701
-0.000247789
4.46741e-06
0.000424875
0.0110757
0.218893
2.9367
-0.0740849
-0.00530701
-0.00024779
4.46612e-06
0.000424876
0.0110757
0.218893
2.9367
)
;
    }
    procBoundary0to1throughstreamwiseIn
    {
        type            processorCyclic;
        value           nonuniform List<scalar> 
64
(
0.0740839
0.00530751
0.000248101
-4.325e-06
-0.000424849
-0.0110757
-0.218893
-2.9367
0.0740839
0.00530752
0.000248104
-4.32593e-06
-0.000424848
-0.0110757
-0.218893
-2.9367
0.0740839
0.00530751
0.000248101
-4.32331e-06
-0.000424849
-0.0110757
-0.218893
-2.9367
0.0740839
0.00530751
0.000248102
-4.32364e-06
-0.00042485
-0.0110757
-0.218893
-2.9367
0.0740839
0.00530751
0.000248103
-4.3242e-06
-0.00042485
-0.0110757
-0.218893
-2.9367
0.0740839
0.00530751
0.000248105
-4.32498e-06
-0.00042485
-0.0110757
-0.218893
-2.9367
0.0740839
0.00530751
0.000248101
-4.323e-06
-0.00042485
-0.0110757
-0.218893
-2.9367
0.0740839
0.00530751
0.000248102
-4.32458e-06
-0.000424849
-0.0110757
-0.218893
-2.9367
)
;
    }
}


// ************************************************************************* //
