/*--------------------------------*- C++ -*----------------------------------*\
| =========                 |                                                 |
| \\      /  F ield         | OpenFOAM: The Open Source CFD Toolbox           |
|  \\    /   O peration     | Version:  2306                                  |
|   \\  /    A nd           | Website:  www.openfoam.com                      |
|    \\/     M anipulation  |                                                 |
\*---------------------------------------------------------------------------*/
FoamFile
{
    version     2.0;
    format      ascii;
    arch        "LSB;label=32;scalar=64";
    class       volVectorField;
    location    "3";
    object      U;
}
// * * * * * * * * * * * * * * * * * * * * * * * * * * * * * * * * * * * * * //

dimensions      [0 1 -1 0 0 0 0];

internalField   nonuniform List<vector> 
256
(
(-0.00642923 -3.66147e-05 -0.0030411)
(-0.00637788 -1.64767e-05 -0.00250966)
(-0.00637794 1.6847e-05 -0.00251121)
(-0.00642933 3.67685e-05 -0.00304662)
(-0.000478163 -4.52462e-05 -9.73834e-05)
(-0.000483183 -2.00373e-05 -6.29839e-05)
(-0.000483159 2.013e-05 -6.3044e-05)
(-0.000478117 4.52853e-05 -9.75834e-05)
(-2.8611e-05 -1.21526e-05 -3.76378e-06)
(-3.66401e-05 -4.88315e-06 -2.59255e-06)
(-3.6629e-05 4.92639e-06 -2.59421e-06)
(-2.8585e-05 1.21694e-05 -3.76923e-06)
(-5.5551e-07 -3.969e-06 -1.69642e-07)
(-1.93888e-06 -1.63395e-06 -1.47117e-07)
(-1.93471e-06 1.64442e-06 -1.47526e-07)
(-5.4444e-07 3.97444e-06 -1.70615e-07)
(4.00307e-05 -6.07595e-07 -6.27726e-09)
(3.94237e-05 -2.46572e-07 -6.30383e-09)
(3.94247e-05 2.5052e-07 -6.43939e-09)
(4.0033e-05 6.10216e-07 -6.56433e-09)
(0.00102073 -2.5909e-07 -1.99073e-10)
(0.00102063 -1.07398e-07 -2.53893e-10)
(0.00102063 1.05042e-07 -2.0105e-10)
(0.00102074 2.56966e-07 -1.8145e-10)
(0.01952 -4.38202e-08 -4.39746e-11)
(0.0195199 -1.86395e-08 -5.10966e-11)
(0.0195199 1.73804e-08 1.29345e-10)
(0.01952 4.34677e-08 7.18745e-11)
(0.253467 -1.09901e-08 -7.14596e-11)
(0.253467 -5.37128e-09 -1.37991e-10)
(0.253467 3.66784e-09 4.65113e-11)
(0.253467 1.08135e-08 1.37854e-11)
(-0.00642922 -3.66132e-05 -0.0030411)
(-0.00637788 -1.64775e-05 -0.00250966)
(-0.00637794 1.68476e-05 -0.00251121)
(-0.00642933 3.67686e-05 -0.00304662)
(-0.000478163 -4.52448e-05 -9.73827e-05)
(-0.000483183 -2.00382e-05 -6.29839e-05)
(-0.000483159 2.01306e-05 -6.30437e-05)
(-0.000478117 4.52855e-05 -9.75837e-05)
(-2.86112e-05 -1.21524e-05 -3.76424e-06)
(-3.664e-05 -4.88295e-06 -2.5925e-06)
(-3.66291e-05 4.92629e-06 -2.59419e-06)
(-2.85849e-05 1.21694e-05 -3.76964e-06)
(-5.55552e-07 -3.96888e-06 -1.69265e-07)
(-1.93955e-06 -1.63392e-06 -1.47281e-07)
(-1.93499e-06 1.64442e-06 -1.47789e-07)
(-5.44762e-07 3.97443e-06 -1.70569e-07)
(4.00306e-05 -6.07797e-07 -6.2277e-09)
(3.94235e-05 -2.4664e-07 -6.30639e-09)
(3.94245e-05 2.50577e-07 -6.48579e-09)
(4.0033e-05 6.10242e-07 -6.6949e-09)
(0.00102073 -2.59098e-07 -1.4255e-10)
(0.00102063 -1.07407e-07 -2.24541e-10)
(0.00102063 1.05185e-07 -1.6256e-10)
(0.00102074 2.57102e-07 -2.16731e-10)
(0.01952 -4.37594e-08 1.6456e-11)
(0.0195199 -1.85854e-08 -2.12917e-10)
(0.0195199 1.74845e-08 2.30482e-10)
(0.01952 4.35488e-08 2.72741e-10)
(0.253467 -1.0942e-08 -8.53402e-11)
(0.253467 -5.30957e-09 -3.62898e-10)
(0.253467 3.74117e-09 3.60232e-10)
(0.253467 1.08683e-08 5.6467e-10)
(-0.00642923 -3.66134e-05 -0.00304109)
(-0.00637788 -1.64762e-05 -0.00250966)
(-0.00637794 1.68476e-05 -0.00251121)
(-0.00642933 3.67688e-05 -0.00304662)
(-0.000478163 -4.52454e-05 -9.73828e-05)
(-0.000483184 -2.0037e-05 -6.29831e-05)
(-0.000483159 2.01306e-05 -6.30437e-05)
(-0.000478117 4.52856e-05 -9.75836e-05)
(-2.8611e-05 -1.21525e-05 -3.764e-06)
(-3.66399e-05 -4.88291e-06 -2.59253e-06)
(-3.66293e-05 4.92633e-06 -2.59412e-06)
(-2.8585e-05 1.21694e-05 -3.76955e-06)
(-5.5589e-07 -3.96882e-06 -1.69816e-07)
(-1.93994e-06 -1.63394e-06 -1.47482e-07)
(-1.93529e-06 1.64439e-06 -1.47715e-07)
(-5.44756e-07 3.97443e-06 -1.70484e-07)
(4.00306e-05 -6.07875e-07 -6.35661e-09)
(3.94234e-05 -2.46659e-07 -6.32001e-09)
(3.94245e-05 2.5063e-07 -6.31593e-09)
(4.00329e-05 6.10345e-07 -6.45372e-09)
(0.00102074 -2.59127e-07 -1.52509e-10)
(0.00102063 -1.07452e-07 -2.38869e-10)
(0.00102063 1.05225e-07 -2.16062e-10)
(0.00102074 2.57202e-07 -1.67315e-10)
(0.01952 -4.38474e-08 -1.36732e-10)
(0.0195199 -1.87034e-08 -3.34014e-10)
(0.0195199 1.7608e-08 -4.1959e-11)
(0.01952 4.37403e-08 3.03478e-10)
(0.253467 -1.09903e-08 -2.51339e-10)
(0.253467 -5.36874e-09 -5.04807e-10)
(0.253467 3.86621e-09 -1.95225e-10)
(0.253467 1.10218e-08 6.48039e-10)
(-0.00642923 -3.66128e-05 -0.0030411)
(-0.00637788 -1.6476e-05 -0.00250965)
(-0.00637794 1.68485e-05 -0.00251121)
(-0.00642933 3.67693e-05 -0.00304662)
(-0.000478163 -4.52448e-05 -9.7383e-05)
(-0.000483184 -2.00372e-05 -6.29832e-05)
(-0.000483159 2.01313e-05 -6.30437e-05)
(-0.000478117 4.5286e-05 -9.75835e-05)
(-2.86111e-05 -1.21524e-05 -3.7639e-06)
(-3.664e-05 -4.88307e-06 -2.59259e-06)
(-3.66292e-05 4.9263e-06 -2.59424e-06)
(-2.85851e-05 1.21695e-05 -3.76957e-06)
(-5.55973e-07 -3.96884e-06 -1.70187e-07)
(-1.93999e-06 -1.6339e-06 -1.4758e-07)
(-1.93529e-06 1.64442e-06 -1.47529e-07)
(-5.44702e-07 3.97448e-06 -1.70155e-07)
(4.00306e-05 -6.07877e-07 -6.39614e-09)
(3.94235e-05 -2.46658e-07 -6.26663e-09)
(3.94245e-05 2.50639e-07 -6.21903e-09)
(4.0033e-05 6.10357e-07 -6.32406e-09)
(0.00102074 -2.59147e-07 -1.41693e-10)
(0.00102063 -1.07504e-07 -2.02752e-10)
(0.00102063 1.05204e-07 -2.08449e-10)
(0.00102074 2.57258e-07 -1.84578e-10)
(0.01952 -4.39266e-08 -3.08352e-11)
(0.0195199 -1.87941e-08 -1.90444e-10)
(0.0195199 1.75234e-08 -5.34892e-11)
(0.01952 4.38366e-08 2.34041e-10)
(0.253467 -1.09981e-08 9.29945e-11)
(0.253467 -5.43146e-09 -2.039e-10)
(0.253467 3.77478e-09 -4.18596e-10)
(0.253467 1.10835e-08 2.98976e-10)
(-0.00642923 -3.66126e-05 -0.0030411)
(-0.00637788 -1.64756e-05 -0.00250966)
(-0.00637794 1.68488e-05 -0.00251121)
(-0.00642933 3.67696e-05 -0.00304662)
(-0.000478163 -4.52448e-05 -9.7383e-05)
(-0.000483184 -2.00368e-05 -6.29838e-05)
(-0.000483159 2.01315e-05 -6.30439e-05)
(-0.000478117 4.52862e-05 -9.75833e-05)
(-2.86112e-05 -1.21525e-05 -3.76381e-06)
(-3.66401e-05 -4.88307e-06 -2.59251e-06)
(-3.66293e-05 4.92636e-06 -2.59431e-06)
(-2.8585e-05 1.21694e-05 -3.76939e-06)
(-5.55965e-07 -3.96884e-06 -1.70401e-07)
(-1.93982e-06 -1.63389e-06 -1.47639e-07)
(-1.93516e-06 1.64447e-06 -1.47445e-07)
(-5.44605e-07 3.97453e-06 -1.69976e-07)
(4.00307e-05 -6.07813e-07 -6.30532e-09)
(3.94235e-05 -2.46627e-07 -6.17887e-09)
(3.94245e-05 2.50626e-07 -6.2281e-09)
(4.00329e-05 6.10331e-07 -6.36835e-09)
(0.00102074 -2.59122e-07 -1.4948e-10)
(0.00102063 -1.07517e-07 -1.68933e-10)
(0.00102063 1.05198e-07 -2.32779e-10)
(0.00102074 2.57283e-07 -2.39855e-10)
(0.01952 -4.38917e-08 1.10056e-10)
(0.0195199 -1.88376e-08 4.26081e-11)
(0.0195199 1.7515e-08 -7.43883e-11)
(0.01952 4.38955e-08 -9.44532e-11)
(0.253467 -1.09618e-08 1.98094e-10)
(0.253467 -5.45792e-09 -1.10084e-10)
(0.253467 3.74085e-09 1.58245e-10)
(0.253467 1.11046e-08 -2.67719e-10)
(-0.00642923 -3.66126e-05 -0.0030411)
(-0.00637788 -1.64756e-05 -0.00250966)
(-0.00637794 1.68485e-05 -0.00251121)
(-0.00642933 3.67697e-05 -0.00304662)
(-0.000478163 -4.52447e-05 -9.73834e-05)
(-0.000483184 -2.00368e-05 -6.29841e-05)
(-0.000483159 2.01311e-05 -6.3044e-05)
(-0.000478117 4.52863e-05 -9.75835e-05)
(-2.86113e-05 -1.21526e-05 -3.76374e-06)
(-3.66403e-05 -4.88308e-06 -2.59239e-06)
(-3.66292e-05 4.92637e-06 -2.594e-06)
(-2.85848e-05 1.21695e-05 -3.76913e-06)
(-5.55855e-07 -3.96886e-06 -1.70576e-07)
(-1.93957e-06 -1.63385e-06 -1.47701e-07)
(-1.93492e-06 1.64452e-06 -1.47458e-07)
(-5.44484e-07 3.97449e-06 -1.6988e-07)
(4.00307e-05 -6.07739e-07 -6.32726e-09)
(3.94235e-05 -2.46593e-07 -6.14738e-09)
(3.94244e-05 2.50595e-07 -6.16741e-09)
(4.00329e-05 6.10257e-07 -6.24709e-09)
(0.00102074 -2.5912e-07 -2.00259e-10)
(0.00102063 -1.07518e-07 -1.53714e-10)
(0.00102063 1.05163e-07 -2.15662e-10)
(0.00102074 2.57232e-07 -2.00823e-10)
(0.01952 -4.38393e-08 3.05223e-11)
(0.0195199 -1.8893e-08 2.43347e-10)
(0.0195199 1.75253e-08 -1.66663e-10)
(0.01952 4.37769e-08 -2.84033e-10)
(0.253467 -1.0949e-08 2.83249e-10)
(0.253467 -5.50225e-09 4.49694e-10)
(0.253467 3.76212e-09 -8.10148e-11)
(0.253467 1.09913e-08 -4.81121e-10)
(-0.00642922 -3.66135e-05 -0.0030411)
(-0.00637788 -1.64761e-05 -0.00250965)
(-0.00637794 1.68483e-05 -0.00251121)
(-0.00642933 3.6769e-05 -0.00304662)
(-0.000478163 -4.52453e-05 -9.73837e-05)
(-0.000483184 -2.00371e-05 -6.2984e-05)
(-0.000483159 2.01311e-05 -6.30437e-05)
(-0.000478117 4.52856e-05 -9.75837e-05)
(-2.86113e-05 -1.21527e-05 -3.76402e-06)
(-3.66401e-05 -4.8831e-06 -2.59223e-06)
(-3.66292e-05 4.92635e-06 -2.59367e-06)
(-2.85849e-05 1.21695e-05 -3.76917e-06)
(-5.55731e-07 -3.96889e-06 -1.70403e-07)
(-1.93924e-06 -1.63388e-06 -1.47721e-07)
(-1.93463e-06 1.64446e-06 -1.47429e-07)
(-5.4429e-07 3.97449e-06 -1.697e-07)
(4.00307e-05 -6.0763e-07 -6.45267e-09)
(3.94235e-05 -2.46533e-07 -6.21809e-09)
(3.94245e-05 2.50592e-07 -6.04114e-09)
(4.00329e-05 6.10209e-07 -6.01684e-09)
(0.00102074 -2.59114e-07 -2.43543e-10)
(0.00102063 -1.07469e-07 -1.24918e-10)
(0.00102063 1.05095e-07 -1.36816e-10)
(0.00102074 2.57138e-07 -1.56242e-10)
(0.01952 -4.37294e-08 5.28654e-11)
(0.0195199 -1.8692e-08 3.22847e-10)
(0.0195199 1.7383e-08 -3.26619e-11)
(0.01952 4.369e-08 -2.98705e-10)
(0.253467 -1.08607e-08 1.24354e-10)
(0.253467 -5.36284e-09 7.5248e-10)
(0.253467 3.66761e-09 -9.93623e-12)
(0.253467 1.09558e-08 -3.94462e-10)
(-0.00642923 -3.66133e-05 -0.00304109)
(-0.00637788 -1.64773e-05 -0.00250966)
(-0.00637794 1.68477e-05 -0.00251121)
(-0.00642933 3.67691e-05 -0.00304662)
(-0.000478163 -4.52449e-05 -9.73837e-05)
(-0.000483183 -2.0038e-05 -6.29837e-05)
(-0.000483159 2.01306e-05 -6.3044e-05)
(-0.000478117 4.52858e-05 -9.75834e-05)
(-2.86113e-05 -1.21527e-05 -3.76372e-06)
(-3.66398e-05 -4.88317e-06 -2.59235e-06)
(-3.66293e-05 4.92623e-06 -2.59388e-06)
(-2.85847e-05 1.21696e-05 -3.76902e-06)
(-5.55361e-07 -3.96886e-06 -1.70234e-07)
(-1.93913e-06 -1.63393e-06 -1.47395e-07)
(-1.9342e-06 1.64444e-06 -1.47339e-07)
(-5.44446e-07 3.97454e-06 -1.70171e-07)
(4.00307e-05 -6.07636e-07 -6.44076e-09)
(3.94237e-05 -2.46481e-07 -6.3004e-09)
(3.94247e-05 2.50579e-07 -6.15234e-09)
(4.0033e-05 6.10084e-07 -6.13719e-09)
(0.00102073 -2.59058e-07 -2.60104e-10)
(0.00102063 -1.07412e-07 -2.05606e-10)
(0.00102063 1.05065e-07 -2.00036e-10)
(0.00102074 2.56994e-07 -1.42729e-10)
(0.01952 -4.37315e-08 -3.39283e-11)
(0.0195199 -1.86185e-08 1.40359e-10)
(0.0195199 1.74406e-08 -2.99942e-11)
(0.01952 4.35873e-08 -2.40555e-10)
(0.253467 -1.08944e-08 -2.91254e-10)
(0.253467 -5.30698e-09 1.16701e-10)
(0.253467 3.71939e-09 1.38974e-10)
(0.253467 1.09037e-08 -3.82882e-10)
)
;

boundaryField
{
    movingWall
    {
        type            fixedValue;
        value           uniform (1 0 0);
    }
    CPLReceiveMD
    {
        type            fixedValue;
        value           uniform (-0.0296202 0 -0.00928017);
    }
    streamwiseIn
    {
        type            cyclic;
    }
    streamwiseOut
    {
        type            cyclic;
    }
    front
    {
        type            cyclic;
    }
    back
    {
        type            cyclic;
    }
    procBoundary0to1
    {
        type            processor;
        value           nonuniform List<vector> 
64
(
(-0.00637542 3.66091e-05 -0.00515202)
(-0.000471034 4.52499e-05 -0.00018418)
(-1.74328e-05 1.21536e-05 -6.50186e-06)
(1.4577e-06 3.96868e-06 -2.27689e-07)
(4.09002e-05 6.09616e-07 -7.1291e-09)
(0.00102089 2.57098e-07 -2.23672e-10)
(0.01952 4.40484e-08 -6.66699e-11)
(0.253467 1.18583e-08 -8.38422e-11)
(-0.00637542 3.66083e-05 -0.00515202)
(-0.000471034 4.52492e-05 -0.00018418)
(-1.74327e-05 1.21535e-05 -6.50172e-06)
(1.45775e-06 3.96863e-06 -2.27954e-07)
(4.09003e-05 6.0979e-07 -7.26769e-09)
(0.00102089 2.57192e-07 -2.2437e-10)
(0.01952 4.41057e-08 3.75572e-11)
(0.253467 1.19044e-08 -6.47348e-11)
(-0.00637542 3.6609e-05 -0.00515202)
(-0.000471035 4.525e-05 -0.000184179)
(-1.74328e-05 1.21536e-05 -6.50178e-06)
(1.45807e-06 3.96861e-06 -2.27503e-07)
(4.09004e-05 6.09814e-07 -7.08924e-09)
(0.00102089 2.57232e-07 -2.99144e-10)
(0.01952 4.40604e-08 -1.32468e-10)
(0.253467 1.18629e-08 -2.50082e-10)
(-0.00637542 3.66091e-05 -0.00515202)
(-0.000471035 4.525e-05 -0.000184179)
(-1.74327e-05 1.21536e-05 -6.50168e-06)
(1.45815e-06 3.96866e-06 -2.27224e-07)
(4.09004e-05 6.09793e-07 -6.93559e-09)
(0.00102089 2.57194e-07 -2.02747e-10)
(0.01952 4.39947e-08 -5.1387e-12)
(0.253467 1.18507e-08 8.92333e-11)
(-0.00637542 3.66092e-05 -0.00515202)
(-0.000471035 4.52501e-05 -0.000184179)
(-1.74326e-05 1.21536e-05 -6.50156e-06)
(1.45815e-06 3.96866e-06 -2.27073e-07)
(4.09004e-05 6.09749e-07 -6.9663e-09)
(0.00102089 2.57225e-07 -1.39121e-10)
(0.01952 4.40402e-08 1.35801e-10)
(0.253467 1.18844e-08 1.99817e-10)
(-0.00637542 3.6609e-05 -0.00515202)
(-0.000471035 4.52498e-05 -0.000184179)
(-1.74325e-05 1.21537e-05 -6.50142e-06)
(1.45805e-06 3.96864e-06 -2.26987e-07)
(4.09004e-05 6.09696e-07 -6.84427e-09)
(0.00102089 2.57254e-07 -1.10318e-10)
(0.01952 4.40835e-08 2.83137e-11)
(0.253467 1.18941e-08 2.76219e-10)
(-0.00637542 3.66091e-05 -0.00515202)
(-0.000471034 4.52499e-05 -0.000184179)
(-1.74325e-05 1.21537e-05 -6.50112e-06)
(1.45794e-06 3.96863e-06 -2.27234e-07)
(4.09002e-05 6.0963e-07 -6.5988e-09)
(0.00102089 2.57202e-07 -4.89636e-11)
(0.01952 4.41714e-08 4.7955e-11)
(0.253467 1.19822e-08 1.33822e-10)
(-0.00637542 3.66088e-05 -0.00515202)
(-0.000471034 4.52496e-05 -0.000184179)
(-1.74325e-05 1.21536e-05 -6.5015e-06)
(1.45758e-06 3.96859e-06 -2.27334e-07)
(4.09002e-05 6.09691e-07 -6.73589e-09)
(0.00102089 2.57147e-07 -1.73465e-10)
(0.01952 4.41244e-08 -7.6114e-11)
(0.253467 1.19435e-08 -3.01003e-10)
)
;
    }
    procBoundary0to1throughstreamwiseIn
    {
        type            processorCyclic;
        value           nonuniform List<vector> 
64
(
(-0.00637531 -3.67686e-05 -0.00514646)
(-0.00047108 -4.52872e-05 -0.000183958)
(-1.74588e-05 -1.21742e-05 -6.49517e-06)
(1.44641e-06 -3.97043e-06 -2.26649e-07)
(4.08981e-05 -6.09298e-07 -6.8223e-09)
(0.00102089 -2.58866e-07 -1.70668e-10)
(0.01952 -4.32889e-08 7.05937e-11)
(0.253467 -1.00264e-08 1.23984e-11)
(-0.00637532 -3.67692e-05 -0.00514646)
(-0.00047108 -4.52879e-05 -0.000183958)
(-1.74589e-05 -1.2174e-05 -6.49502e-06)
(1.44673e-06 -3.97041e-06 -2.26622e-07)
(4.08982e-05 -6.09351e-07 -6.78357e-09)
(0.00102089 -2.58849e-07 -4.69976e-11)
(0.01952 -4.32461e-08 2.81103e-10)
(0.253467 -9.97716e-09 5.72974e-10)
(-0.00637531 -3.67684e-05 -0.00514646)
(-0.00047108 -4.52873e-05 -0.000183958)
(-1.74588e-05 -1.21739e-05 -6.49514e-06)
(1.44673e-06 -3.97034e-06 -2.26783e-07)
(4.08983e-05 -6.09468e-07 -6.9507e-09)
(0.00102089 -2.58813e-07 -6.32489e-11)
(0.01952 -4.30793e-08 2.827e-10)
(0.253467 -9.823e-09 6.36202e-10)
(-0.00637532 -3.67682e-05 -0.00514646)
(-0.000471079 -4.52873e-05 -0.000183958)
(-1.74587e-05 -1.2174e-05 -6.49487e-06)
(1.44668e-06 -3.97034e-06 -2.27229e-07)
(4.08983e-05 -6.09468e-07 -7.00174e-09)
(0.00102089 -2.58734e-07 -9.82764e-11)
(0.01952 -4.30001e-08 2.20733e-10)
(0.253467 -9.75962e-09 3.01803e-10)
(-0.00637532 -3.67682e-05 -0.00514646)
(-0.000471079 -4.52873e-05 -0.000183958)
(-1.74588e-05 -1.2174e-05 -6.49478e-06)
(1.44658e-06 -3.97039e-06 -2.27482e-07)
(4.08983e-05 -6.09433e-07 -6.93427e-09)
(0.00102089 -2.58705e-07 -2.04303e-10)
(0.01952 -4.29518e-08 -1.15217e-10)
(0.253467 -9.73491e-09 -2.73789e-10)
(-0.00637531 -3.67685e-05 -0.00514646)
(-0.00047108 -4.52876e-05 -0.000183958)
(-1.7459e-05 -1.21741e-05 -6.49483e-06)
(1.44646e-06 -3.9704e-06 -2.27662e-07)
(4.08983e-05 -6.09379e-07 -6.95004e-09)
(0.00102089 -2.58779e-07 -3.0379e-10)
(0.01952 -4.30714e-08 -3.03673e-10)
(0.253467 -9.84761e-09 -4.93469e-10)
(-0.00637531 -3.67684e-05 -0.00514646)
(-0.00047108 -4.52872e-05 -0.000183958)
(-1.74589e-05 -1.21742e-05 -6.49468e-06)
(1.44625e-06 -3.97044e-06 -2.27942e-07)
(4.08983e-05 -6.09314e-07 -7.06233e-09)
(0.00102089 -2.58817e-07 -2.72392e-10)
(0.01952 -4.3118e-08 -2.53437e-10)
(0.253467 -9.87936e-09 -3.7509e-10)
(-0.00637532 -3.67694e-05 -0.00514646)
(-0.00047108 -4.52881e-05 -0.000183958)
(-1.7459e-05 -1.21744e-05 -6.49506e-06)
(1.44642e-06 -3.97054e-06 -2.27343e-07)
(4.08981e-05 -6.09145e-07 -7.03425e-09)
(0.00102089 -2.58832e-07 -2.61548e-10)
(0.01952 -4.32003e-08 -2.13524e-10)
(0.253467 -9.934e-09 -3.81588e-10)
)
;
    }
}


// ************************************************************************* //
