/*--------------------------------*- C++ -*----------------------------------*\
| =========                 |                                                 |
| \\      /  F ield         | OpenFOAM: The Open Source CFD Toolbox           |
|  \\    /   O peration     | Version:  2306                                  |
|   \\  /    A nd           | Website:  www.openfoam.com                      |
|    \\/     M anipulation  |                                                 |
\*---------------------------------------------------------------------------*/
FoamFile
{
    version     2.0;
    format      ascii;
    arch        "LSB;label=32;scalar=64";
    class       volVectorField;
    location    "3";
    object      U_0;
}
// * * * * * * * * * * * * * * * * * * * * * * * * * * * * * * * * * * * * * //

dimensions      [0 1 -1 0 0 0 0];

internalField   nonuniform List<vector> 
256
(
(-0.00626408 -3.6132e-05 -0.00286177)
(-0.00620136 -1.67348e-05 -0.00236016)
(-0.0062014 1.7105e-05 -0.00236155)
(-0.00626419 3.62878e-05 -0.00286678)
(-0.000448588 -4.41184e-05 -8.08489e-05)
(-0.000452816 -1.99892e-05 -4.95337e-05)
(-0.000452791 2.00814e-05 -4.95844e-05)
(-0.000448547 4.41581e-05 -8.10226e-05)
(-2.69111e-05 -1.17759e-05 -3.26938e-06)
(-3.56036e-05 -4.68313e-06 -2.27669e-06)
(-3.55932e-05 4.7242e-06 -2.27799e-06)
(-2.6887e-05 1.17911e-05 -3.2739e-06)
(-6.51508e-07 -4.23706e-06 -1.51205e-07)
(-2.05363e-06 -1.73914e-06 -1.34737e-07)
(-2.04959e-06 1.74899e-06 -1.35274e-07)
(-6.40257e-07 4.24229e-06 -1.52471e-07)
(3.52528e-05 -6.10899e-07 -5.42803e-09)
(3.46306e-05 -2.47503e-07 -5.62416e-09)
(3.46317e-05 2.5179e-07 -5.81238e-09)
(3.5255e-05 6.1392e-07 -5.82027e-09)
(0.000930546 -2.65311e-07 -1.77355e-10)
(0.000930431 -1.09872e-07 -2.5239e-10)
(0.000930431 1.07533e-07 -1.9971e-10)
(0.000930547 2.63152e-07 -1.48439e-10)
(0.0183924 -4.65306e-08 -6.07576e-11)
(0.0183923 -1.97273e-08 -7.04474e-11)
(0.0183923 1.84983e-08 1.246e-10)
(0.0183924 4.61454e-08 8.40291e-11)
(0.246755 -1.14208e-08 -6.95101e-11)
(0.246755 -5.50116e-09 -1.50986e-10)
(0.246755 3.9116e-09 4.87999e-11)
(0.246755 1.12902e-08 3.22849e-12)
(-0.00626408 -3.61298e-05 -0.00286177)
(-0.00620135 -1.67361e-05 -0.00236016)
(-0.0062014 1.7106e-05 -0.00236155)
(-0.00626419 3.62878e-05 -0.00286678)
(-0.000448588 -4.41164e-05 -8.0848e-05)
(-0.000452815 -1.99906e-05 -4.95337e-05)
(-0.000452791 2.00823e-05 -4.95838e-05)
(-0.000448548 4.41582e-05 -8.10229e-05)
(-2.69113e-05 -1.17756e-05 -3.26998e-06)
(-3.56035e-05 -4.6829e-06 -2.27661e-06)
(-3.55932e-05 4.72403e-06 -2.27801e-06)
(-2.68869e-05 1.17912e-05 -3.27437e-06)
(-6.5159e-07 -4.23691e-06 -1.50693e-07)
(-2.05454e-06 -1.73909e-06 -1.34942e-07)
(-2.04999e-06 1.74899e-06 -1.35613e-07)
(-6.40677e-07 4.24224e-06 -1.52428e-07)
(3.52526e-05 -6.11188e-07 -5.37229e-09)
(3.46303e-05 -2.47587e-07 -5.60629e-09)
(3.46314e-05 2.5186e-07 -5.84846e-09)
(3.52551e-05 6.13955e-07 -5.99449e-09)
(0.000930546 -2.65338e-07 -1.42824e-10)
(0.000930431 -1.09887e-07 -1.90574e-10)
(0.000930432 1.07692e-07 -1.36284e-10)
(0.000930547 2.63318e-07 -2.18289e-10)
(0.0183924 -4.64589e-08 -1.42726e-11)
(0.0183923 -1.96748e-08 -2.02459e-10)
(0.0183923 1.86108e-08 2.48136e-10)
(0.0183924 4.62368e-08 2.87826e-10)
(0.246755 -1.13621e-08 -1.03975e-10)
(0.246755 -5.43886e-09 -3.67874e-10)
(0.246755 3.98691e-09 3.81728e-10)
(0.246755 1.13429e-08 5.66706e-10)
(-0.00626408 -3.61303e-05 -0.00286177)
(-0.00620136 -1.67342e-05 -0.00236016)
(-0.0062014 1.71059e-05 -0.00236155)
(-0.00626419 3.62882e-05 -0.00286678)
(-0.000448588 -4.41173e-05 -8.08481e-05)
(-0.000452816 -1.99888e-05 -4.95325e-05)
(-0.000452791 2.00821e-05 -4.95839e-05)
(-0.000448548 4.41585e-05 -8.10227e-05)
(-2.6911e-05 -1.17757e-05 -3.26966e-06)
(-3.56033e-05 -4.68286e-06 -2.27666e-06)
(-3.55935e-05 4.72405e-06 -2.2779e-06)
(-2.6887e-05 1.17911e-05 -3.27429e-06)
(-6.52033e-07 -4.23682e-06 -1.51411e-07)
(-2.05507e-06 -1.73912e-06 -1.35194e-07)
(-2.05041e-06 1.74895e-06 -1.3551e-07)
(-6.40684e-07 4.24225e-06 -1.52295e-07)
(3.52526e-05 -6.11297e-07 -5.52888e-09)
(3.46302e-05 -2.47615e-07 -5.63796e-09)
(3.46313e-05 2.51935e-07 -5.63824e-09)
(3.5255e-05 6.14097e-07 -5.66266e-09)
(0.000930546 -2.65376e-07 -1.08676e-10)
(0.000930432 -1.09926e-07 -2.06275e-10)
(0.000930432 1.07741e-07 -1.8601e-10)
(0.000930547 2.63433e-07 -1.38646e-10)
(0.0183924 -4.65544e-08 -1.18441e-10)
(0.0183923 -1.97956e-08 -3.10357e-10)
(0.0183923 1.87367e-08 -2.2173e-11)
(0.0183924 4.64331e-08 3.17748e-10)
(0.246755 -1.14144e-08 -2.6054e-10)
(0.246755 -5.50415e-09 -5.07569e-10)
(0.246755 4.11153e-09 -1.79035e-10)
(0.246755 1.14978e-08 6.57517e-10)
(-0.00626408 -3.61294e-05 -0.00286177)
(-0.00620136 -1.67341e-05 -0.00236016)
(-0.0062014 1.71071e-05 -0.00236155)
(-0.00626419 3.62888e-05 -0.00286678)
(-0.000448588 -4.41166e-05 -8.08484e-05)
(-0.000452816 -1.99892e-05 -4.95327e-05)
(-0.000452792 2.00831e-05 -4.95839e-05)
(-0.000448548 4.41589e-05 -8.10226e-05)
(-2.69112e-05 -1.17757e-05 -3.26951e-06)
(-3.56034e-05 -4.6831e-06 -2.27675e-06)
(-3.55934e-05 4.724e-06 -2.27807e-06)
(-2.68871e-05 1.17912e-05 -3.27435e-06)
(-6.52147e-07 -4.23685e-06 -1.51935e-07)
(-2.05516e-06 -1.73907e-06 -1.35343e-07)
(-2.05042e-06 1.74899e-06 -1.35252e-07)
(-6.40627e-07 4.2423e-06 -1.51837e-07)
(3.52526e-05 -6.11307e-07 -5.59978e-09)
(3.46303e-05 -2.47612e-07 -5.58259e-09)
(3.46314e-05 2.51948e-07 -5.52004e-09)
(3.5255e-05 6.14113e-07 -5.49812e-09)
(0.000930547 -2.65387e-07 -1.03479e-10)
(0.000930432 -1.09972e-07 -1.76186e-10)
(0.000930432 1.07722e-07 -1.89671e-10)
(0.000930547 2.63487e-07 -1.68884e-10)
(0.0183924 -4.66316e-08 -1.87452e-11)
(0.0183923 -1.98833e-08 -1.81612e-10)
(0.0183923 1.86545e-08 -4.33504e-11)
(0.0183924 4.6529e-08 2.29346e-10)
(0.246755 -1.14247e-08 9.18196e-11)
(0.246755 -5.5671e-09 -2.03496e-10)
(0.246755 4.0197e-09 -4.13928e-10)
(0.246755 1.15584e-08 2.89624e-10)
(-0.00626408 -3.61293e-05 -0.00286177)
(-0.00620136 -1.67336e-05 -0.00236016)
(-0.0062014 1.71074e-05 -0.00236155)
(-0.00626419 3.62892e-05 -0.00286678)
(-0.000448588 -4.41166e-05 -8.08485e-05)
(-0.000452816 -1.99888e-05 -4.95336e-05)
(-0.000452792 2.00833e-05 -4.95842e-05)
(-0.000448548 4.41591e-05 -8.10224e-05)
(-2.69114e-05 -1.17758e-05 -3.26939e-06)
(-3.56035e-05 -4.6831e-06 -2.27664e-06)
(-3.55936e-05 4.72407e-06 -2.27821e-06)
(-2.68869e-05 1.17912e-05 -3.27416e-06)
(-6.52126e-07 -4.23685e-06 -1.52268e-07)
(-2.05492e-06 -1.73905e-06 -1.35431e-07)
(-2.05024e-06 1.74906e-06 -1.35131e-07)
(-6.40498e-07 4.24238e-06 -1.51563e-07)
(3.52527e-05 -6.11221e-07 -5.49639e-09)
(3.46303e-05 -2.47574e-07 -5.4771e-09)
(3.46314e-05 2.51926e-07 -5.52244e-09)
(3.5255e-05 6.14074e-07 -5.54488e-09)
(0.000930547 -2.65361e-07 -1.11563e-10)
(0.000930432 -1.09986e-07 -1.44201e-10)
(0.000930432 1.07713e-07 -2.18326e-10)
(0.000930547 2.63505e-07 -2.27893e-10)
(0.0183924 -4.65993e-08 1.0117e-10)
(0.0183923 -1.99259e-08 3.90609e-11)
(0.0183923 1.8648e-08 -7.80655e-11)
(0.0183924 4.65893e-08 -9.82121e-11)
(0.246755 -1.13888e-08 1.9274e-10)
(0.246755 -5.59402e-09 -1.08231e-10)
(0.246755 3.98493e-09 1.54462e-10)
(0.246755 1.15796e-08 -2.5375e-10)
(-0.00626408 -3.61292e-05 -0.00286177)
(-0.00620136 -1.67336e-05 -0.00236016)
(-0.0062014 1.7107e-05 -0.00236155)
(-0.00626419 3.62893e-05 -0.00286678)
(-0.000448588 -4.41164e-05 -8.08491e-05)
(-0.000452816 -1.99887e-05 -4.95339e-05)
(-0.000452792 2.00828e-05 -4.95844e-05)
(-0.000448548 4.41592e-05 -8.10227e-05)
(-2.69115e-05 -1.1776e-05 -3.2693e-06)
(-3.56039e-05 -4.6831e-06 -2.27648e-06)
(-3.55934e-05 4.72408e-06 -2.27777e-06)
(-2.68867e-05 1.17912e-05 -3.27385e-06)
(-6.51956e-07 -4.23688e-06 -1.52508e-07)
(-2.05455e-06 -1.739e-06 -1.35511e-07)
(-2.04989e-06 1.74914e-06 -1.35137e-07)
(-6.40328e-07 4.24233e-06 -1.51425e-07)
(3.52527e-05 -6.11112e-07 -5.52567e-09)
(3.46303e-05 -2.47526e-07 -5.43366e-09)
(3.46313e-05 2.51883e-07 -5.44601e-09)
(3.52549e-05 6.13966e-07 -5.39222e-09)
(0.000930546 -2.65363e-07 -1.5074e-10)
(0.000930431 -1.09992e-07 -1.09187e-10)
(0.000930432 1.07674e-07 -1.80318e-10)
(0.000930547 2.63453e-07 -1.59169e-10)
(0.0183924 -4.65499e-08 3.778e-11)
(0.0183923 -1.99789e-08 2.35186e-10)
(0.0183923 1.86609e-08 -1.75038e-10)
(0.0183924 4.64792e-08 -2.87567e-10)
(0.246755 -1.13746e-08 3.06068e-10)
(0.246755 -5.63644e-09 4.50813e-10)
(0.246755 4.00708e-09 -8.83929e-11)
(0.246755 1.14716e-08 -4.77139e-10)
(-0.00626408 -3.61303e-05 -0.00286177)
(-0.00620136 -1.67341e-05 -0.00236016)
(-0.0062014 1.71067e-05 -0.00236155)
(-0.00626419 3.62884e-05 -0.00286678)
(-0.000448588 -4.41173e-05 -8.08496e-05)
(-0.000452816 -1.9989e-05 -4.95339e-05)
(-0.000452791 2.00828e-05 -4.9584e-05)
(-0.000448548 4.41584e-05 -8.10231e-05)
(-2.69114e-05 -1.1776e-05 -3.26967e-06)
(-3.56036e-05 -4.68311e-06 -2.27623e-06)
(-3.55934e-05 4.72412e-06 -2.27734e-06)
(-2.68869e-05 1.17913e-05 -3.27385e-06)
(-6.51772e-07 -4.23693e-06 -1.52252e-07)
(-2.05408e-06 -1.73904e-06 -1.35533e-07)
(-2.04949e-06 1.74906e-06 -1.35107e-07)
(-6.40073e-07 4.24235e-06 -1.51225e-07)
(3.52528e-05 -6.10951e-07 -5.70129e-09)
(3.46304e-05 -2.47446e-07 -5.52339e-09)
(3.46313e-05 2.51877e-07 -5.29259e-09)
(3.52549e-05 6.13901e-07 -5.13596e-09)
(0.000930546 -2.65348e-07 -2.27824e-10)
(0.000930431 -1.0995e-07 -6.76859e-11)
(0.000930432 1.07596e-07 -6.65818e-11)
(0.000930547 2.63342e-07 -1.10645e-10)
(0.0183924 -4.64394e-08 6.36936e-11)
(0.0183923 -1.9788e-08 3.25701e-10)
(0.0183923 1.85118e-08 -4.04109e-11)
(0.0183924 4.63793e-08 -3.17917e-10)
(0.246755 -1.12851e-08 1.37039e-10)
(0.246755 -5.49936e-09 7.66471e-10)
(0.246755 3.91058e-09 -2.45438e-11)
(0.246755 1.1431e-08 -4.07272e-10)
(-0.00626408 -3.613e-05 -0.00286177)
(-0.00620135 -1.67357e-05 -0.00236016)
(-0.0062014 1.71061e-05 -0.00236155)
(-0.00626419 3.62885e-05 -0.00286678)
(-0.000448588 -4.41166e-05 -8.08495e-05)
(-0.000452815 -1.99903e-05 -4.95335e-05)
(-0.000452792 2.00823e-05 -4.95844e-05)
(-0.000448548 4.41587e-05 -8.10226e-05)
(-2.69114e-05 -1.17759e-05 -3.2693e-06)
(-3.56032e-05 -4.68316e-06 -2.27639e-06)
(-3.55935e-05 4.72395e-06 -2.27758e-06)
(-2.68867e-05 1.17915e-05 -3.27364e-06)
(-6.51301e-07 -4.2369e-06 -1.52e-07)
(-2.05394e-06 -1.73912e-06 -1.351e-07)
(-2.04892e-06 1.74904e-06 -1.35019e-07)
(-6.40264e-07 4.2424e-06 -1.51864e-07)
(3.52528e-05 -6.10965e-07 -5.65686e-09)
(3.46307e-05 -2.47376e-07 -5.64007e-09)
(3.46316e-05 2.51865e-07 -5.45113e-09)
(3.5255e-05 6.13737e-07 -5.27893e-09)
(0.000930546 -2.65276e-07 -2.28375e-10)
(0.000930431 -1.09887e-07 -1.94605e-10)
(0.000930431 1.07551e-07 -1.64354e-10)
(0.000930547 2.63182e-07 -7.92811e-11)
(0.0183924 -4.64336e-08 -1.90973e-11)
(0.0183923 -1.97139e-08 1.32844e-10)
(0.0183923 1.85535e-08 -4.57964e-11)
(0.0183924 4.62775e-08 -2.43956e-10)
(0.246755 -1.13215e-08 -2.94184e-10)
(0.246755 -5.4413e-09 1.20242e-10)
(0.246755 3.95908e-09 1.20276e-10)
(0.246755 1.13816e-08 -3.79467e-10)
)
;

boundaryField
{
    movingWall
    {
        type            fixedValue;
        value           uniform (1 0 0);
    }
    CPLReceiveMD
    {
        type            fixedValue;
        value           uniform (-0.00619225 0 -0.0315959);
    }
    streamwiseIn
    {
        type            cyclic;
    }
    streamwiseOut
    {
        type            cyclic;
    }
    front
    {
        type            cyclic;
    }
    back
    {
        type            cyclic;
    }
    procBoundary0to1
    {
        type            processor;
        value           nonuniform List<vector> 
64
(
(-0.00618584 3.61245e-05 -0.00479416)
(-0.000443224 4.41189e-05 -0.000161694)
(-1.47374e-05 1.17776e-05 -5.70619e-06)
(1.3919e-06 4.2389e-06 -1.98862e-07)
(3.61447e-05 6.12981e-07 -6.13485e-09)
(0.00093071 2.63247e-07 -1.9385e-10)
(0.0183924 4.67016e-08 -5.46837e-11)
(0.246755 1.2284e-08 -7.60629e-11)
(-0.00618584 3.61235e-05 -0.00479416)
(-0.000443225 4.41181e-05 -0.000161694)
(-1.47373e-05 1.17775e-05 -5.70599e-06)
(1.392e-06 4.23885e-06 -1.99217e-07)
(3.61449e-05 6.13214e-07 -6.29376e-09)
(0.000930711 2.63358e-07 -1.96864e-10)
(0.0183924 4.67565e-08 5.68837e-11)
(0.246755 1.2329e-08 -6.24404e-11)
(-0.00618584 3.61244e-05 -0.00479416)
(-0.000443225 4.4119e-05 -0.000161694)
(-1.47375e-05 1.17775e-05 -5.70606e-06)
(1.39242e-06 4.23881e-06 -1.98636e-07)
(3.6145e-05 6.13254e-07 -6.07996e-09)
(0.000930711 2.63415e-07 -2.88529e-10)
(0.0183924 4.67146e-08 -1.21278e-10)
(0.246755 1.22835e-08 -2.64056e-10)
(-0.00618584 3.61246e-05 -0.00479416)
(-0.000443225 4.41191e-05 -0.000161694)
(-1.47373e-05 1.17775e-05 -5.70598e-06)
(1.39252e-06 4.23886e-06 -1.98241e-07)
(3.6145e-05 6.13238e-07 -5.88221e-09)
(0.000930711 2.63378e-07 -1.81824e-10)
(0.0183924 4.66513e-08 3.01092e-14)
(0.246755 1.22696e-08 8.41148e-11)
(-0.00618584 3.61247e-05 -0.00479416)
(-0.000443225 4.41192e-05 -0.000161694)
(-1.47371e-05 1.17776e-05 -5.70589e-06)
(1.39251e-06 4.23887e-06 -1.98006e-07)
(3.6145e-05 6.13171e-07 -5.91811e-09)
(0.000930711 2.63407e-07 -1.21131e-10)
(0.0183924 4.66996e-08 1.29298e-10)
(0.246755 1.23038e-08 1.99198e-10)
(-0.00618584 3.61243e-05 -0.00479416)
(-0.000443225 4.41188e-05 -0.000161694)
(-1.4737e-05 1.17777e-05 -5.70572e-06)
(1.39236e-06 4.23887e-06 -1.97885e-07)
(3.6145e-05 6.1309e-07 -5.77688e-09)
(0.000930711 2.63434e-07 -8.99847e-11)
(0.0183924 4.67447e-08 1.12116e-11)
(0.246755 1.23158e-08 2.94253e-10)
(-0.00618584 3.61246e-05 -0.00479416)
(-0.000443224 4.4119e-05 -0.000161693)
(-1.4737e-05 1.17777e-05 -5.7053e-06)
(1.39218e-06 4.23886e-06 -1.98214e-07)
(3.61448e-05 6.12989e-07 -5.46657e-09)
(0.000930711 2.63369e-07 2.21818e-11)
(0.0183924 4.68386e-08 3.46023e-11)
(0.246755 1.2412e-08 1.40707e-10)
(-0.00618584 3.61242e-05 -0.00479416)
(-0.000443224 4.41186e-05 -0.000161694)
(-1.4737e-05 1.17776e-05 -5.70575e-06)
(1.39174e-06 4.23881e-06 -1.98376e-07)
(3.61447e-05 6.13072e-07 -5.64663e-09)
(0.00093071 2.6329e-07 -1.12656e-10)
(0.0183924 4.67717e-08 -8.01869e-11)
(0.246755 1.23693e-08 -3.16141e-10)
)
;
    }
    procBoundary0to1throughstreamwiseIn
    {
        type            processorCyclic;
        value           nonuniform List<vector> 
64
(
(-0.00618573 -3.62869e-05 -0.00478913)
(-0.000443265 -4.41576e-05 -0.000161499)
(-1.47614e-05 -1.17973e-05 -5.70047e-06)
(1.3803e-06 -4.24028e-06 -1.9752e-07)
(3.61427e-05 -6.1243e-07 -5.72965e-09)
(0.00093071 -2.65097e-07 -1.50338e-10)
(0.0183924 -4.60044e-08 5.72036e-11)
(0.246755 -1.04821e-08 -6.98788e-12)
(-0.00618574 -3.62877e-05 -0.00478913)
(-0.000443265 -4.41586e-05 -0.000161499)
(-1.47615e-05 -1.17971e-05 -5.70028e-06)
(1.38074e-06 -4.24024e-06 -1.97486e-07)
(3.61427e-05 -6.12505e-07 -5.65862e-09)
(0.00093071 -2.65104e-07 -1.14903e-11)
(0.0183924 -4.59765e-08 2.79407e-10)
(0.246755 -1.04382e-08 5.65793e-10)
(-0.00618573 -3.62866e-05 -0.00478913)
(-0.000443264 -4.41577e-05 -0.000161498)
(-1.47615e-05 -1.17969e-05 -5.70041e-06)
(1.38076e-06 -4.24015e-06 -1.97707e-07)
(3.61429e-05 -6.1268e-07 -5.90137e-09)
(0.00093071 -2.65075e-07 -4.92901e-11)
(0.0183924 -4.57972e-08 2.79487e-10)
(0.246755 -1.02771e-08 6.46007e-10)
(-0.00618573 -3.62865e-05 -0.00478913)
(-0.000443264 -4.41578e-05 -0.000161498)
(-1.47614e-05 -1.17971e-05 -5.70006e-06)
(1.38071e-06 -4.24015e-06 -1.98321e-07)
(3.61429e-05 -6.12688e-07 -5.97716e-09)
(0.000930711 -2.64992e-07 -5.76348e-11)
(0.0183924 -4.57201e-08 2.1986e-10)
(0.246755 -1.02139e-08 2.96136e-10)
(-0.00618573 -3.62864e-05 -0.00478913)
(-0.000443264 -4.41577e-05 -0.000161499)
(-1.47615e-05 -1.17971e-05 -5.69997e-06)
(1.38058e-06 -4.24023e-06 -1.98695e-07)
(3.61429e-05 -6.12638e-07 -5.89743e-09)
(0.000930711 -2.6496e-07 -1.56806e-10)
(0.0183924 -4.56758e-08 -1.13869e-10)
(0.246755 -1.019e-08 -2.6474e-10)
(-0.00618573 -3.62869e-05 -0.00478913)
(-0.000443264 -4.41581e-05 -0.000161499)
(-1.47617e-05 -1.17972e-05 -5.70003e-06)
(1.3804e-06 -4.24023e-06 -1.98939e-07)
(3.61429e-05 -6.12544e-07 -5.92749e-09)
(0.00093071 -2.65034e-07 -2.72367e-10)
(0.0183924 -4.57952e-08 -3.03982e-10)
(0.246755 -1.03e-08 -4.94416e-10)
(-0.00618573 -3.62866e-05 -0.00478913)
(-0.000443265 -4.41575e-05 -0.000161499)
(-1.47615e-05 -1.17972e-05 -5.69986e-06)
(1.38012e-06 -4.2403e-06 -1.99263e-07)
(3.61429e-05 -6.12447e-07 -6.05986e-09)
(0.00093071 -2.65064e-07 -2.24664e-10)
(0.0183924 -4.58428e-08 -2.34866e-10)
(0.246755 -1.03367e-08 -3.74489e-10)
(-0.00618573 -3.6288e-05 -0.00478913)
(-0.000443265 -4.41588e-05 -0.000161499)
(-1.47617e-05 -1.17975e-05 -5.70035e-06)
(1.38033e-06 -4.24041e-06 -1.98438e-07)
(3.61427e-05 -6.12216e-07 -6.02503e-09)
(0.00093071 -2.65064e-07 -2.39607e-10)
(0.0183924 -4.59294e-08 -2.0733e-10)
(0.246755 -1.03949e-08 -3.67723e-10)
)
;
    }
}


// ************************************************************************* //
