/*--------------------------------*- C++ -*----------------------------------*\
| =========                 |                                                 |
| \\      /  F ield         | OpenFOAM: The Open Source CFD Toolbox           |
|  \\    /   O peration     | Version:  2306                                  |
|   \\  /    A nd           | Website:  www.openfoam.com                      |
|    \\/     M anipulation  |                                                 |
\*---------------------------------------------------------------------------*/
FoamFile
{
    version     2.0;
    format      ascii;
    arch        "LSB;label=32;scalar=64";
    class       volScalarField;
    location    "1";
    object      p;
}
// * * * * * * * * * * * * * * * * * * * * * * * * * * * * * * * * * * * * * //

dimensions      [0 2 -2 0 0 0 0];

internalField   nonuniform List<scalar> 
256
(
0.000687399
-3.83002e-07
-0.000643198
-0.00133092
-0.000157196
-0.000258238
-0.00038546
-0.00048646
-0.00029344
-0.000310349
-0.000333279
-0.000350173
-0.000318409
-0.000320476
-0.000323132
-0.000325194
-0.000320686
-0.000321365
-0.000322258
-0.000322943
-0.000321801
-0.000321789
-0.000321767
-0.000321757
-0.000321746
-0.000321761
-0.00032178
-0.000321792
-0.000321815
-0.000321817
-0.000321821
-0.000321825
0.000687383
-3.86937e-07
-0.000643193
-0.00133092
-0.0001572
-0.000258238
-0.000385451
-0.000486448
-0.00029344
-0.000310349
-0.000333278
-0.000350171
-0.000318404
-0.000320475
-0.000323133
-0.000325197
-0.000320676
-0.000321359
-0.000322256
-0.000322943
-0.000321797
-0.000321788
-0.000321769
-0.000321762
-0.000321748
-0.000321763
-0.000321784
-0.000321798
-0.000321812
-0.000321814
-0.000321818
-0.000321823
0.000687361
-3.95471e-07
-0.000643197
-0.00133093
-0.0001572
-0.000258234
-0.000385447
-0.000486441
-0.000293437
-0.000310344
-0.000333274
-0.00035017
-0.000318402
-0.000320475
-0.000323136
-0.000325199
-0.000320668
-0.000321356
-0.000322257
-0.000322945
-0.000321794
-0.000321788
-0.000321774
-0.000321769
-0.00032175
-0.000321767
-0.000321789
-0.000321804
-0.00032181
-0.000321812
-0.000321816
-0.000321821
0.000687356
-4.02285e-07
-0.000643209
-0.00133094
-0.000157195
-0.00025823
-0.000385446
-0.00048644
-0.000293432
-0.000310339
-0.00033327
-0.00035017
-0.000318402
-0.000320476
-0.000323137
-0.000325201
-0.000320665
-0.000321356
-0.000322259
-0.000322947
-0.000321792
-0.000321788
-0.000321777
-0.000321773
-0.000321751
-0.000321768
-0.000321792
-0.000321808
-0.000321808
-0.000321811
-0.000321816
-0.000321819
0.000687351
-4.10406e-07
-0.000643218
-0.00133094
-0.000157192
-0.000258228
-0.000385445
-0.000486445
-0.00029343
-0.000310336
-0.000333268
-0.000350171
-0.000318405
-0.000320477
-0.000323137
-0.0003252
-0.000320667
-0.000321357
-0.000322259
-0.000322946
-0.000321793
-0.000321789
-0.000321777
-0.000321774
-0.000321751
-0.000321768
-0.000321791
-0.000321807
-0.000321808
-0.000321811
-0.000321815
-0.000321819
0.000687348
-4.16051e-07
-0.000643222
-0.00133094
-0.000157192
-0.00025823
-0.000385451
-0.000486453
-0.000293432
-0.000310338
-0.000333269
-0.000350171
-0.000318409
-0.000320479
-0.000323136
-0.000325197
-0.000320674
-0.000321361
-0.000322261
-0.000322946
-0.000321795
-0.00032179
-0.000321776
-0.000321771
-0.00032175
-0.000321767
-0.000321789
-0.000321804
-0.00032181
-0.000321813
-0.000321817
-0.00032182
0.000687357
-4.10124e-07
-0.000643218
-0.00133094
-0.000157192
-0.000258234
-0.000385459
-0.000486463
-0.000293436
-0.000310341
-0.000333271
-0.000350173
-0.000318413
-0.000320481
-0.000323135
-0.000325195
-0.000320682
-0.000321367
-0.000322263
-0.000322945
-0.000321799
-0.000321792
-0.000321774
-0.000321764
-0.000321748
-0.000321764
-0.000321785
-0.000321798
-0.000321812
-0.000321816
-0.000321819
-0.000321823
0.000687383
-3.9611e-07
-0.000643206
-0.00133094
-0.000157192
-0.000258238
-0.000385464
-0.000486467
-0.000293439
-0.000310345
-0.000333275
-0.000350174
-0.000318412
-0.000320479
-0.000323133
-0.000325193
-0.000320687
-0.00032137
-0.000322262
-0.000322942
-0.000321801
-0.000321792
-0.00032177
-0.000321757
-0.000321746
-0.000321762
-0.00032178
-0.000321792
-0.000321815
-0.000321817
-0.000321821
-0.000321825
)
;

boundaryField
{
    movingWall
    {
        type            zeroGradient;
    }
    CPLReceiveMD
    {
        type            zeroGradient;
    }
    streamwiseIn
    {
        type            cyclic;
    }
    streamwiseOut
    {
        type            cyclic;
    }
    front
    {
        type            cyclic;
    }
    back
    {
        type            cyclic;
    }
    procBoundary1to0
    {
        type            processor;
        value           nonuniform List<scalar> 
64
(
0.000687802
-0.000157383
-0.00029347
-0.000318399
-0.000320579
-0.000321798
-0.000321746
-0.000321813
0.000687787
-0.000157389
-0.000293468
-0.000318394
-0.000320571
-0.000321796
-0.000321748
-0.000321812
0.000687746
-0.000157393
-0.000293467
-0.00031839
-0.000320561
-0.000321792
-0.000321751
-0.000321809
0.000687729
-0.000157391
-0.000293467
-0.000318389
-0.000320556
-0.00032179
-0.000321752
-0.000321808
0.000687732
-0.000157388
-0.000293468
-0.000318392
-0.000320557
-0.00032179
-0.000321751
-0.000321808
0.000687732
-0.000157388
-0.000293472
-0.000318397
-0.000320562
-0.000321791
-0.000321749
-0.000321808
0.000687752
-0.000157386
-0.000293473
-0.000318401
-0.000320571
-0.000321794
-0.000321747
-0.000321811
0.000687795
-0.000157383
-0.000293471
-0.000318402
-0.00032058
-0.000321798
-0.000321745
-0.000321813
)
;
    }
    procBoundary1to0throughstreamwiseOut
    {
        type            processorCyclic;
        value           nonuniform List<scalar> 
64
(
-0.00133118
-0.000486197
-0.000350126
-0.000325194
-0.00032305
-0.000321762
-0.000321793
-0.000321826
-0.00133118
-0.000486187
-0.000350123
-0.000325197
-0.000323052
-0.000321768
-0.000321799
-0.000321823
-0.00133121
-0.000486182
-0.000350123
-0.000325198
-0.000323052
-0.000321775
-0.000321805
-0.00032182
-0.00133121
-0.000486183
-0.000350127
-0.000325198
-0.000323051
-0.000321778
-0.000321808
-0.000321819
-0.00133121
-0.000486188
-0.000350131
-0.000325197
-0.00032305
-0.000321777
-0.000321808
-0.000321819
-0.00133121
-0.000486195
-0.000350133
-0.000325195
-0.000323049
-0.000321773
-0.000321804
-0.00032182
-0.00133121
-0.000486205
-0.000350132
-0.000325193
-0.000323047
-0.000321767
-0.000321798
-0.000321823
-0.00133119
-0.000486207
-0.000350128
-0.000325194
-0.000323049
-0.000321762
-0.000321793
-0.000321826
)
;
    }
}


// ************************************************************************* //
