/*--------------------------------*- C++ -*----------------------------------*\
| =========                 |                                                 |
| \\      /  F ield         | OpenFOAM: The Open Source CFD Toolbox           |
|  \\    /   O peration     | Version:  2306                                  |
|   \\  /    A nd           | Website:  www.openfoam.com                      |
|    \\/     M anipulation  |                                                 |
\*---------------------------------------------------------------------------*/
FoamFile
{
    version     2.0;
    format      ascii;
    arch        "LSB;label=32;scalar=64";
    class       surfaceScalarField;
    location    "1";
    object      phi;
}
// * * * * * * * * * * * * * * * * * * * * * * * * * * * * * * * * * * * * * //

dimensions      [0 3 -1 0 0 0 0];

oriented        oriented;

internalField   nonuniform List<scalar> 
640
(
-0.025706
0.00022319
-0.0118353
-0.0257861
8.00503e-05
-0.0109252
-0.025706
-8.00966e-05
-0.0109255
-0.000223216
-0.0118365
-0.000423938
0.00012446
-0.000172638
-0.000387513
4.3632e-05
-0.000135027
-0.000423959
-4.3649e-05
-0.00013502
-0.00012447
-0.000172637
9.62192e-05
2.03043e-05
-1.27649e-06
0.000132469
7.3814e-06
-5.55106e-07
9.62069e-05
-7.38659e-06
-5.55727e-07
-2.03063e-05
-1.27599e-06
1.34334e-05
6.8956e-06
-3.34447e-09
1.81385e-05
2.67639e-06
6.63961e-09
1.34294e-05
-2.67743e-06
6.59869e-09
-6.89561e-06
-3.65789e-09
1.36356e-05
1.38079e-06
-5.65095e-10
1.57612e-05
5.50174e-07
3.72199e-10
1.3634e-05
-5.50778e-07
3.42916e-10
-1.38095e-06
-5.25933e-10
0.000565704
3.59984e-07
-8.73946e-11
0.000566106
1.46709e-07
2.67392e-10
0.000565702
-1.46759e-07
7.82526e-11
-3.60447e-07
-7.65237e-10
0.0308708
8.06329e-08
-4.88914e-10
0.0308709
3.38768e-08
-3.30043e-10
0.0308708
-3.34819e-08
2.79709e-10
-8.13403e-08
1.29197e-10
1.16377
-4.78287e-10
1.16377
-1.7432e-09
1.16377
5.76473e-10
6.00839e-10
-0.025706
0.000223193
-0.0118353
-0.0257861
8.00506e-05
-0.0109252
-0.025706
-8.00952e-05
-0.0109255
-0.000223216
-0.0118365
-0.000423931
0.000124463
-0.000172644
-0.00038751
4.36326e-05
-0.00013503
-0.000423951
-4.36487e-05
-0.000135025
-0.00012447
-0.000172638
9.62189e-05
2.03048e-05
-1.27633e-06
0.00013247
7.38196e-06
-5.5593e-07
9.6208e-05
-7.38649e-06
-5.55612e-07
-2.03066e-05
-1.27551e-06
1.3433e-05
6.89553e-06
-3.46636e-09
1.81388e-05
2.67649e-06
6.282e-09
1.343e-05
-2.67746e-06
6.3539e-09
-6.89589e-06
-3.96279e-09
1.36355e-05
1.38088e-06
-1.93053e-10
1.57616e-05
5.50262e-07
5.05114e-10
1.36345e-05
-5.50653e-07
6.37349e-10
-1.38086e-06
-3.07644e-10
0.000565704
3.60195e-07
9.46905e-11
0.000566107
1.46814e-07
4.91674e-10
0.000565703
-1.46464e-07
3.19003e-10
-3.60212e-07
-7.94355e-10
0.0308708
8.10491e-08
-4.22624e-10
0.0308709
3.3904e-08
-2.76323e-10
0.0308708
-3.32383e-08
4.42364e-10
-8.10925e-08
1.78128e-10
1.16377
-1.60387e-09
1.16377
-2.17298e-09
1.16377
9.82861e-10
1.67138e-09
-0.025706
0.000223194
-0.0118353
-0.0257861
8.00522e-05
-0.0109252
-0.025706
-8.00949e-05
-0.0109255
-0.000223215
-0.0118365
-0.000423926
0.000124463
-0.000172647
-0.000387509
4.36334e-05
-0.000135029
-0.000423951
-4.3649e-05
-0.000135029
-0.00012447
-0.000172632
9.62197e-05
2.03052e-05
-1.27633e-06
0.000132471
7.38208e-06
-5.55709e-07
9.6208e-05
-7.38651e-06
-5.5529e-07
-2.03066e-05
-1.27485e-06
1.34331e-05
6.89557e-06
-3.34907e-09
1.81389e-05
2.67645e-06
6.05227e-09
1.34304e-05
-2.67756e-06
5.9722e-09
-6.89603e-06
-3.72858e-09
1.36354e-05
1.38094e-06
8.51152e-10
1.57617e-05
5.50353e-07
3.1006e-10
1.36349e-05
-5.50534e-07
3.79268e-10
-1.38073e-06
5.18213e-10
0.000565704
3.60272e-07
6.66502e-10
0.000566108
1.4686e-07
2.37677e-10
0.000565704
-1.46261e-07
9.12114e-11
-3.59896e-07
-6.62854e-11
0.0308708
8.11195e-08
-1.52283e-10
0.0308709
3.36518e-08
-3.52772e-10
0.0308708
-3.30185e-08
4.44959e-10
-8.05725e-08
4.29259e-10
1.16377
-7.01238e-10
1.16377
-1.22523e-09
1.16377
-6.40074e-11
1.37408e-09
-0.025706
0.000223195
-0.0118353
-0.0257861
8.00519e-05
-0.0109252
-0.025706
-8.00946e-05
-0.0109255
-0.000223213
-0.0118365
-0.000423928
0.000124463
-0.000172644
-0.000387509
4.36327e-05
-0.000135029
-0.000423961
-4.36489e-05
-0.000135023
-0.00012447
-0.00017263
9.62198e-05
2.03052e-05
-1.27578e-06
0.00013247
7.38186e-06
-5.55394e-07
9.62078e-05
-7.38658e-06
-5.55127e-07
-2.03062e-05
-1.27441e-06
1.34334e-05
6.89548e-06
-3.48529e-09
1.8139e-05
2.67636e-06
6.0347e-09
1.343e-05
-2.67765e-06
6.01296e-09
-6.89607e-06
-3.24734e-09
1.36357e-05
1.38097e-06
6.58587e-10
1.57618e-05
5.50355e-07
1.58931e-10
1.36349e-05
-5.50485e-07
1.3853e-10
-1.38063e-06
4.01073e-10
0.000565704
3.6032e-07
3.44158e-10
0.000566108
1.46918e-07
-8.10958e-11
0.000565704
-1.46187e-07
-7.40178e-11
-3.59788e-07
2.82903e-10
0.0308708
8.1191e-08
2.91914e-10
0.0308709
3.36235e-08
-1.43307e-11
0.0308708
-3.29819e-08
5.73177e-11
-8.04411e-08
1.86535e-10
1.16377
2.33005e-10
1.16377
-2.1017e-10
1.16377
-1.72732e-10
1.31496e-10
-0.025706
0.000223195
-0.0118353
-0.0257861
8.00527e-05
-0.0109252
-0.025706
-8.00942e-05
-0.0109255
-0.000223214
-0.0118365
-0.000423931
0.000124463
-0.000172642
-0.000387512
4.36334e-05
-0.000135029
-0.000423959
-4.36482e-05
-0.000135021
-0.000124471
-0.000172631
9.62197e-05
2.03052e-05
-1.27522e-06
0.00013247
7.38214e-06
-5.54641e-07
9.6208e-05
-7.3862e-06
-5.54825e-07
-2.0306e-05
-1.27467e-06
1.34334e-05
6.89546e-06
-3.2187e-09
1.8139e-05
2.67628e-06
6.28264e-09
1.34298e-05
-2.67767e-06
6.68597e-09
-6.89598e-06
-2.79288e-09
1.36359e-05
1.38098e-06
2.39e-10
1.57618e-05
5.50365e-07
1.90648e-10
1.36347e-05
-5.50454e-07
-3.97404e-11
-1.38063e-06
3.68819e-10
0.000565705
3.60321e-07
1.34987e-11
0.000566108
1.46893e-07
-1.16615e-10
0.000565704
-1.46217e-07
-1.09279e-10
-3.59829e-07
6.83695e-10
0.0308708
8.121e-08
5.00062e-10
0.0308709
3.36497e-08
4.20533e-10
0.0308708
-3.29371e-08
-3.81171e-10
-8.03956e-08
-3.5354e-11
1.16377
9.66403e-10
1.16377
1.05676e-09
1.16377
-2.64118e-10
-1.05621e-09
-0.025706
0.000223196
-0.0118353
-0.0257861
8.00529e-05
-0.0109252
-0.025706
-8.00952e-05
-0.0109255
-0.000223213
-0.0118365
-0.00042393
0.000124463
-0.000172643
-0.00038751
4.36342e-05
-0.00013503
-0.000423955
-4.36486e-05
-0.000135023
-0.000124471
-0.000172628
9.62192e-05
2.03052e-05
-1.2749e-06
0.000132471
7.38246e-06
-5.54804e-07
9.62085e-05
-7.38605e-06
-5.54829e-07
-2.03063e-05
-1.27497e-06
1.34334e-05
6.89545e-06
-2.934e-09
1.81389e-05
2.67634e-06
6.95691e-09
1.34299e-05
-2.67753e-06
7.1462e-09
-6.89587e-06
-2.60167e-09
1.36355e-05
1.38099e-06
-8.89468e-10
1.57616e-05
5.50353e-07
8.44743e-11
1.36344e-05
-5.50527e-07
1.81759e-10
-1.3807e-06
-6.01468e-10
0.000565704
3.60222e-07
-7.32947e-10
0.000566108
1.468e-07
-6.50694e-11
0.000565703
-1.46346e-07
1.56335e-10
-3.6002e-07
2.56276e-10
0.0308708
8.10663e-08
1.9572e-10
0.0308709
3.36893e-08
5.05045e-10
0.0308708
-3.29227e-08
-3.88958e-10
-8.05478e-08
-4.08436e-10
1.16377
1.22905e-09
1.16377
2.33535e-09
1.16377
-7.26296e-10
-1.77001e-09
-0.025706
0.000223196
-0.0118353
-0.0257861
8.00512e-05
-0.0109252
-0.025706
-8.00945e-05
-0.0109255
-0.000223215
-0.0118365
-0.000423923
0.000124463
-0.000172645
-0.000387511
4.36333e-05
-0.000135025
-0.000423959
-4.36483e-05
-0.000135021
-0.000124471
-0.000172627
9.6219e-05
2.03053e-05
-1.27514e-06
0.00013247
7.38227e-06
-5.55144e-07
9.62084e-05
-7.38627e-06
-5.54902e-07
-2.0306e-05
-1.27555e-06
1.34331e-05
6.89546e-06
-2.57368e-09
1.81387e-05
2.67638e-06
7.28655e-09
1.34297e-05
-2.67745e-06
7.34259e-09
-6.89566e-06
-2.85832e-09
1.36351e-05
1.38092e-06
-1.01958e-09
1.57613e-05
5.50279e-07
-1.1071e-11
1.36346e-05
-5.50645e-07
5.49535e-11
-1.38081e-06
-7.69159e-10
0.000565703
3.60199e-07
-7.20553e-10
0.000566107
1.46738e-07
-2.34776e-10
0.000565703
-1.46607e-07
9.10895e-11
-3.60251e-07
-3.71704e-11
0.0308708
8.09425e-08
9.94278e-11
0.0308709
3.38597e-08
2.69741e-10
0.0308708
-3.32429e-08
-3.45815e-10
-8.09873e-08
-6.84347e-10
1.16377
4.56437e-10
1.16377
1.56211e-09
1.16377
-4.16966e-10
-8.0893e-10
-0.025706
0.000223193
-0.0257861
8.00514e-05
-0.025706
-8.0096e-05
-0.000223215
-0.00042393
0.000124462
-0.000387515
4.36325e-05
-0.000423964
-4.36489e-05
-0.00012447
9.62185e-05
2.03045e-05
0.00013247
7.38157e-06
9.6208e-05
-7.38647e-06
-2.03063e-05
1.34328e-05
6.89533e-06
1.81385e-05
2.67639e-06
1.34301e-05
-2.67742e-06
-6.89574e-06
1.36347e-05
1.38085e-06
1.57612e-05
5.50226e-07
1.36348e-05
-5.50698e-07
-1.3809e-06
0.000565702
3.60143e-07
0.000566106
1.46734e-07
0.000565703
-1.46711e-07
-3.6034e-07
0.0308708
8.07358e-08
0.0308709
3.38926e-08
0.0308708
-3.3392e-08
-8.12839e-08
1.16377
1.16377
1.16377
)
;

boundaryField
{
    movingWall
    {
        type            calculated;
        value           uniform 0;
    }
    CPLReceiveMD
    {
        type            calculated;
        value           uniform 0;
    }
    streamwiseIn
    {
        type            cyclic;
        value           nonuniform List<scalar> 0();
    }
    streamwiseOut
    {
        type            cyclic;
        value           nonuniform List<scalar> 0();
    }
    front
    {
        type            cyclic;
        value           nonuniform List<scalar> 
32
(
-0.0118353
-0.000172643
-1.27399e-06
-2.58674e-09
8.89722e-10
6.22521e-10
4.62571e-11
-1.7836e-10
-0.0109252
-0.00013502
-5.55404e-07
6.78469e-09
-3.05561e-10
-7.56995e-10
-2.17587e-10
8.52759e-11
-0.0109255
-0.000135019
-5.55789e-07
6.68423e-09
-2.50051e-10
-4.54793e-10
-1.79281e-10
2.50507e-10
-0.0118365
-0.00017263
-1.27474e-06
-3.06253e-09
1.00146e-09
4.76548e-10
1.69983e-11
-1.54852e-10
)
;
    }
    back
    {
        type            cyclic;
        value           nonuniform List<scalar> 
32
(
0.0118353
0.000172643
1.27399e-06
2.58674e-09
-8.89722e-10
-6.22521e-10
-4.62571e-11
1.7836e-10
0.0109252
0.00013502
5.55404e-07
-6.78469e-09
3.05561e-10
7.56995e-10
2.17587e-10
-8.52759e-11
0.0109255
0.000135019
5.55789e-07
-6.68423e-09
2.50051e-10
4.54793e-10
1.79281e-10
-2.50507e-10
0.0118365
0.00017263
1.27474e-06
3.06253e-09
-1.00146e-09
-4.76548e-10
-1.69983e-11
1.54852e-10
)
;
    }
    procBoundary1to0
    {
        type            processor;
        value           nonuniform List<scalar> 
64
(
0.0254828
0.000522663
7.93918e-06
-2.38178e-08
-8.11937e-06
-0.000564682
-0.0308705
-1.16377
0.0254828
0.000522667
7.93904e-06
-2.35964e-08
-8.12115e-06
-0.000564683
-0.0308705
-1.16377
0.0254828
0.00052266
7.93846e-06
-2.35831e-08
-8.12176e-06
-0.000564684
-0.0308705
-1.16377
0.0254828
0.000522656
7.93793e-06
-2.36159e-08
-8.12092e-06
-0.000564683
-0.0308705
-1.16377
0.0254828
0.000522661
7.93786e-06
-2.38643e-08
-8.12094e-06
-0.000564684
-0.0308705
-1.16377
0.0254828
0.000522663
7.93862e-06
-2.39318e-08
-8.11991e-06
-0.000564683
-0.0308705
-1.16377
0.0254828
0.000522659
7.93909e-06
-2.36779e-08
-8.12041e-06
-0.000564683
-0.0308705
-1.16377
0.0254828
0.000522659
7.93791e-06
-2.36131e-08
-8.122e-06
-0.000564683
-0.0308705
-1.16377
)
;
    }
    procBoundary1to0throughstreamwiseOut
    {
        type            processorCyclic;
        value           nonuniform List<scalar> 
64
(
-0.0254828
-0.000522699
-7.95563e-06
1.9222e-08
8.12071e-06
0.000564682
0.0308705
1.16377
-0.0254828
-0.000522697
-7.95552e-06
1.95953e-08
8.11917e-06
0.000564682
0.0308705
1.16377
-0.0254828
-0.000522701
-7.95627e-06
1.95653e-08
8.11878e-06
0.000564682
0.0308705
1.16377
-0.0254828
-0.000522706
-7.95676e-06
1.94227e-08
8.11959e-06
0.000564683
0.0308705
1.16377
-0.0254828
-0.000522702
-7.95646e-06
1.93306e-08
8.11942e-06
0.000564683
0.0308705
1.16377
-0.0254828
-0.0005227
-7.95586e-06
1.93326e-08
8.12021e-06
0.000564683
0.0308705
1.16377
-0.0254828
-0.000522703
-7.95566e-06
1.96508e-08
8.11991e-06
0.000564683
0.0308705
1.16377
-0.0254828
-0.000522707
-7.9562e-06
1.96673e-08
8.1181e-06
0.000564682
0.0308705
1.16377
)
;
    }
}


// ************************************************************************* //
