/*--------------------------------*- C++ -*----------------------------------*\
| =========                 |                                                 |
| \\      /  F ield         | OpenFOAM: The Open Source CFD Toolbox           |
|  \\    /   O peration     | Version:  2306                                  |
|   \\  /    A nd           | Website:  www.openfoam.com                      |
|    \\/     M anipulation  |                                                 |
\*---------------------------------------------------------------------------*/
FoamFile
{
    version     2.0;
    format      ascii;
    arch        "LSB;label=32;scalar=64";
    class       surfaceScalarField;
    location    "1";
    object      phi_0;
}
// * * * * * * * * * * * * * * * * * * * * * * * * * * * * * * * * * * * * * //

dimensions      [0 3 -1 0 0 0 0];

oriented        oriented;

internalField   nonuniform List<scalar> 
640
(
-0.022924
0.00019217
-0.0116872
-0.0229939
6.98854e-05
-0.0107474
-0.0229239
-6.99204e-05
-0.0107476
-0.00019219
-0.0116882
-0.00033081
0.000121847
-0.000110126
-0.00030245
4.15346e-05
-7.94867e-05
-0.000330821
-4.15478e-05
-7.94809e-05
-0.000121855
-0.00011013
9.66533e-05
1.9659e-05
-4.56907e-07
0.000131093
7.09462e-06
4.35822e-08
9.66427e-05
-7.09847e-06
4.30374e-08
-1.96603e-05
-4.56164e-07
1.28707e-05
6.80891e-06
2.48556e-09
1.73358e-05
2.62918e-06
9.1063e-09
1.28676e-05
-2.63033e-06
8.82263e-09
-6.80887e-06
2.61976e-09
1.09183e-05
1.40825e-06
-8.97863e-10
1.29853e-05
5.61824e-07
-3.24377e-11
1.09168e-05
-5.62127e-07
-2.46337e-10
-1.40799e-06
-9.32087e-10
0.000421694
3.57999e-07
1.7089e-10
0.000422108
1.4616e-07
4.62577e-10
0.000421692
-1.46086e-07
2.00567e-10
-3.58565e-07
-7.72492e-10
0.0252991
8.06762e-08
-7.21701e-11
0.0252992
3.40483e-08
1.01427e-10
0.0252991
-3.40794e-08
4.45918e-10
-8.21177e-08
1.79714e-10
1.05529
-7.48645e-10
1.05529
-1.39896e-09
1.05529
-2.18354e-11
1.01662e-10
-0.022924
0.000192172
-0.0116872
-0.0229939
6.98863e-05
-0.0107474
-0.0229239
-6.99185e-05
-0.0107476
-0.000192189
-0.0116882
-0.000330802
0.00012185
-0.000110133
-0.000302448
4.15353e-05
-7.94902e-05
-0.000330812
-4.15475e-05
-7.94875e-05
-0.000121855
-0.000110132
9.66528e-05
1.96594e-05
-4.55926e-07
0.000131094
7.09516e-06
4.28423e-08
9.66441e-05
-7.09816e-06
4.32697e-08
-1.96608e-05
-4.54918e-07
1.28702e-05
6.80875e-06
2.32989e-09
1.73361e-05
2.6295e-06
8.81403e-09
1.28682e-05
-2.63015e-06
8.68779e-09
-6.80924e-06
2.01849e-09
1.09182e-05
1.40822e-06
-1.09228e-09
1.29859e-05
5.61757e-07
-2.85349e-11
1.09175e-05
-5.62127e-07
1.5436e-10
-1.408e-06
-1.0815e-09
0.000421694
3.58269e-07
1.68877e-10
0.000422109
1.46195e-07
7.51624e-10
0.000421693
-1.45907e-07
5.14004e-10
-3.58197e-07
-9.35166e-10
0.0252991
8.13611e-08
8.14603e-11
0.0252992
3.41926e-08
2.45974e-10
0.0252991
-3.3771e-08
7.23428e-10
-8.16333e-08
2.55911e-10
1.05529
-1.5812e-09
1.05529
-1.90376e-09
1.05529
2.57387e-10
7.1881e-10
-0.022924
0.000192174
-0.0116872
-0.0229939
6.98877e-05
-0.0107474
-0.0229239
-6.99183e-05
-0.0107476
-0.000192188
-0.0116882
-0.000330796
0.00012185
-0.000110136
-0.000302446
4.15361e-05
-7.94889e-05
-0.000330811
-4.15481e-05
-7.94921e-05
-0.000121856
-0.000110125
9.66537e-05
1.96598e-05
-4.56414e-07
0.000131094
7.09519e-06
4.31417e-08
9.66444e-05
-7.09843e-06
4.3531e-08
-1.96608e-05
-4.54691e-07
1.28703e-05
6.80908e-06
2.76605e-09
1.73362e-05
2.62966e-06
8.39877e-09
1.28684e-05
-2.63011e-06
8.17522e-09
-6.80923e-06
2.12613e-09
1.09181e-05
1.40809e-06
6.66048e-10
1.29861e-05
5.61713e-07
-2.70312e-11
1.09181e-05
-5.62114e-07
1.03719e-10
-1.40803e-06
4.93662e-10
0.000421694
3.58292e-07
9.40039e-10
0.00042211
1.46211e-07
3.40892e-10
0.000421694
-1.45758e-07
1.83233e-10
-3.57988e-07
2.12943e-10
0.0252991
8.1765e-08
2.88429e-10
0.0252992
3.41413e-08
5.10032e-11
0.0252991
-3.34137e-08
5.19164e-10
-8.10511e-08
5.68637e-10
1.05529
-7.18196e-10
1.05529
-1.052e-09
1.05529
-3.98045e-10
7.04471e-10
-0.022924
0.000192174
-0.0116872
-0.0229939
6.98878e-05
-0.0107474
-0.022924
-6.9918e-05
-0.0107476
-0.000192186
-0.0116882
-0.000330798
0.00012185
-0.000110132
-0.000302446
4.15352e-05
-7.94885e-05
-0.000330824
-4.1548e-05
-7.9484e-05
-0.000121857
-0.000110122
9.66535e-05
1.96597e-05
-4.56115e-07
0.000131094
7.09475e-06
4.3305e-08
9.66446e-05
-7.09873e-06
4.34692e-08
-1.96603e-05
-4.54679e-07
1.28708e-05
6.80913e-06
2.42461e-09
1.73362e-05
2.62966e-06
8.08104e-09
1.28679e-05
-2.63019e-06
7.9669e-09
-6.80931e-06
2.4967e-09
1.09184e-05
1.40803e-06
8.88796e-10
1.29862e-05
5.61662e-07
1.28873e-10
1.09181e-05
-5.62126e-07
1.67335e-10
-1.40802e-06
6.52761e-10
0.000421694
3.58295e-07
4.18812e-10
0.00042211
1.46279e-07
-1.65712e-10
0.000421694
-1.45692e-07
-1.15101e-10
-3.57882e-07
4.24463e-10
0.0252991
8.19616e-08
3.03085e-10
0.0252992
3.42218e-08
1.36062e-11
0.0252991
-3.32783e-08
2.25689e-11
-8.0805e-08
2.47372e-10
1.05529
2.0699e-10
1.05529
-1.20858e-10
1.05529
-1.41986e-10
1.32449e-10
-0.022924
0.000192174
-0.0116872
-0.0229939
6.98887e-05
-0.0107474
-0.0229239
-6.99174e-05
-0.0107476
-0.000192187
-0.0116882
-0.000330801
0.00012185
-0.00011013
-0.000302449
4.1536e-05
-7.94882e-05
-0.000330821
-4.15473e-05
-7.94815e-05
-0.000121857
-0.000110121
9.66534e-05
1.96597e-05
-4.55832e-07
0.000131094
7.09499e-06
4.37919e-08
9.66448e-05
-7.09827e-06
4.34417e-08
-1.96601e-05
-4.55561e-07
1.28707e-05
6.80915e-06
2.63103e-09
1.73362e-05
2.62956e-06
7.99316e-09
1.28675e-05
-2.63024e-06
8.58749e-09
-6.80922e-06
2.88979e-09
1.09187e-05
1.40806e-06
7.78697e-10
1.29862e-05
5.617e-07
4.83136e-10
1.09178e-05
-5.6209e-07
3.31755e-10
-1.40802e-06
8.83437e-10
0.000421694
3.58283e-07
-5.16191e-11
0.00042211
1.46247e-07
-3.28814e-10
0.000421694
-1.45731e-07
-2.89492e-10
-3.57929e-07
6.76623e-10
0.0252991
8.19603e-08
1.48521e-10
0.0252992
3.4243e-08
6.97336e-12
0.0252991
-3.3243e-08
-5.15174e-10
-8.07699e-08
-7.00134e-11
1.05529
1.03771e-09
1.05529
9.21043e-10
1.05529
1.23559e-10
-4.18212e-10
-0.022924
0.000192176
-0.0116872
-0.0229939
6.98889e-05
-0.0107474
-0.0229239
-6.99185e-05
-0.0107476
-0.000192187
-0.0116882
-0.0003308
0.000121849
-0.00011013
-0.000302447
4.15367e-05
-7.94891e-05
-0.000330817
-4.15475e-05
-7.94826e-05
-0.000121857
-0.000110118
9.66524e-05
1.96596e-05
-4.55347e-07
0.000131094
7.09534e-06
4.3136e-08
9.66453e-05
-7.09805e-06
4.3082e-08
-1.96605e-05
-4.56131e-07
1.28708e-05
6.80902e-06
2.63769e-09
1.7336e-05
2.6295e-06
8.61521e-09
1.28676e-05
-2.63018e-06
9.06377e-09
-6.80915e-06
2.78753e-09
1.09184e-05
1.40821e-06
-8.74786e-10
1.29861e-05
5.618e-07
5.30778e-10
1.09176e-05
-5.62058e-07
6.46374e-10
-1.40802e-06
-2.97215e-10
0.000421694
3.58215e-07
-1.26823e-09
0.00042211
1.46184e-07
-3.49847e-10
0.000421693
-1.45821e-07
1.29323e-11
-3.58115e-07
-1.52925e-10
0.0252991
8.16729e-08
-3.98898e-10
0.0252992
3.41803e-08
-3.78463e-11
0.0252991
-3.33296e-08
-5.82343e-10
-8.10347e-08
-6.58729e-10
1.05529
1.29396e-09
1.05529
2.01944e-09
1.05529
-1.06115e-10
-8.5093e-10
-0.022924
0.000192176
-0.0116872
-0.0229939
6.98866e-05
-0.0107474
-0.0229239
-6.99181e-05
-0.0107476
-0.000192188
-0.0116882
-0.000330793
0.000121849
-0.000110133
-0.000302448
4.15358e-05
-7.94832e-05
-0.000330821
-4.15471e-05
-7.94808e-05
-0.000121856
-0.000110118
9.66525e-05
1.96599e-05
-4.56345e-07
0.000131093
7.09521e-06
4.27482e-08
9.66447e-05
-7.09833e-06
4.30175e-08
-1.966e-05
-4.57173e-07
1.28705e-05
6.80888e-06
3.25283e-09
1.73359e-05
2.62935e-06
9.11417e-09
1.28675e-05
-2.63025e-06
9.34143e-09
-6.80897e-06
2.75954e-09
1.09178e-05
1.4083e-06
-7.71308e-10
1.29855e-05
5.61897e-07
2.9401e-10
1.09177e-05
-5.6201e-07
2.2212e-10
-1.40796e-06
-2.69766e-10
0.000421693
3.58181e-07
-1.01488e-09
0.000422109
1.46125e-07
-4.17108e-10
0.000421693
-1.46022e-07
-5.85804e-13
-3.58321e-07
-1.70873e-10
0.0252991
8.11346e-08
-4.25421e-10
0.0252992
3.41463e-08
-1.56457e-10
0.0252991
-3.37499e-08
-4.11747e-10
-8.1607e-08
-7.82062e-10
1.05529
5.93224e-10
1.05529
1.3181e-09
1.05529
9.4654e-11
-3.22961e-10
-0.022924
0.000192172
-0.0229939
6.98871e-05
-0.0229239
-6.99197e-05
-0.00019219
-0.0003308
0.000121848
-0.000302453
4.15352e-05
-0.000330827
-4.15474e-05
-0.000121855
9.66522e-05
1.9659e-05
0.000131093
7.0946e-06
9.66442e-05
-7.09831e-06
-1.96606e-05
1.28701e-05
6.80838e-06
1.73358e-05
2.62927e-06
1.28683e-05
-2.63027e-06
-6.80932e-06
1.09172e-05
1.4084e-06
1.29852e-05
5.61916e-07
1.09177e-05
-5.61976e-07
-1.4079e-06
0.000421692
3.58336e-07
0.000422108
1.46102e-07
0.000421693
-1.46144e-07
-3.58266e-07
0.0252991
8.08532e-08
0.0252992
3.3999e-08
0.0252991
-3.40579e-08
-8.19703e-08
1.05529
1.05529
1.05529
)
;

boundaryField
{
    movingWall
    {
        type            calculated;
        value           uniform 0;
    }
    CPLReceiveMD
    {
        type            calculated;
        value           uniform 0;
    }
    streamwiseIn
    {
        type            cyclic;
        value           nonuniform List<scalar> 0();
    }
    streamwiseOut
    {
        type            cyclic;
        value           nonuniform List<scalar> 0();
    }
    front
    {
        type            cyclic;
        value           nonuniform List<scalar> 
32
(
-0.0116872
-0.00011013
-4.54839e-07
3.26428e-09
1.07059e-09
7.78555e-10
1.48025e-10
-1.00128e-10
-0.0107474
-7.94781e-05
4.2897e-08
8.76657e-09
-4.45242e-10
-7.53443e-10
-2.20292e-10
-1.43686e-11
-0.0107476
-7.94793e-05
4.23961e-08
8.75524e-09
-5.17196e-10
-4.51458e-10
-2.28972e-10
7.17487e-11
-0.0116882
-0.000110122
-4.55595e-07
2.78603e-09
1.18562e-09
6.01511e-10
4.26446e-11
-3.447e-12
)
;
    }
    back
    {
        type            cyclic;
        value           nonuniform List<scalar> 
32
(
0.0116872
0.00011013
4.54839e-07
-3.26428e-09
-1.07059e-09
-7.78555e-10
-1.48025e-10
1.00128e-10
0.0107474
7.94781e-05
-4.2897e-08
-8.76657e-09
4.45242e-10
7.53443e-10
2.20292e-10
1.43686e-11
0.0107476
7.94793e-05
-4.23961e-08
-8.75524e-09
5.17196e-10
4.51458e-10
2.28972e-10
-7.17487e-11
0.0116882
0.000110122
4.55595e-07
-2.78603e-09
-1.18562e-09
-6.01511e-10
-4.26446e-11
3.447e-12
)
;
    }
    procBoundary1to0
    {
        type            processor;
        value           nonuniform List<scalar> 
64
(
0.0227318
0.000401127
5.53711e-06
-1.9844e-08
-5.5157e-06
-0.000420643
-0.0252988
-1.05529
0.0227318
0.000401132
5.53648e-06
-1.93785e-08
-5.51748e-06
-0.000420644
-0.0252988
-1.05529
0.0227318
0.000401123
5.53709e-06
-1.99712e-08
-5.51891e-06
-0.000420645
-0.0252988
-1.05529
0.0227318
0.000401118
5.53647e-06
-1.98835e-08
-5.5175e-06
-0.000420644
-0.0252988
-1.05529
0.0227318
0.000401124
5.53639e-06
-2.03209e-08
-5.51747e-06
-0.000420644
-0.0252988
-1.05529
0.0227318
0.000401127
5.53689e-06
-2.01971e-08
-5.51594e-06
-0.000420643
-0.0252988
-1.05529
0.0227318
0.000401122
5.53786e-06
-2.01101e-08
-5.51737e-06
-0.000420644
-0.0252988
-1.05529
0.0227318
0.000401122
5.53552e-06
-1.94886e-08
-5.51903e-06
-0.000420644
-0.0252988
-1.05529
)
;
    }
    procBoundary1to0throughstreamwiseOut
    {
        type            processorCyclic;
        value           nonuniform List<scalar> 
64
(
-0.0227318
-0.000401148
-5.55142e-06
1.63906e-08
5.51804e-06
0.000420644
0.0252988
1.05529
-0.0227318
-0.000401145
-5.55138e-06
1.72638e-08
5.51641e-06
0.000420643
0.0252988
1.05529
-0.0227318
-0.00040115
-5.55119e-06
1.67108e-08
5.51534e-06
0.000420643
0.0252988
1.05529
-0.0227318
-0.000401157
-5.55176e-06
1.64955e-08
5.51662e-06
0.000420644
0.0252988
1.05529
-0.0227318
-0.000401151
-5.55137e-06
1.62314e-08
5.51642e-06
0.000420643
0.0252988
1.05529
-0.0227318
-0.000401149
-5.551e-06
1.64088e-08
5.51766e-06
0.000420644
0.0252988
1.05529
-0.0227318
-0.000401153
-5.55041e-06
1.65063e-08
5.51668e-06
0.000420644
0.0252988
1.05529
-0.0227318
-0.000401158
-5.55176e-06
1.7085e-08
5.5148e-06
0.000420643
0.0252988
1.05529
)
;
    }
}


// ************************************************************************* //
