/*--------------------------------*- C++ -*----------------------------------*\
| =========                 |                                                 |
| \\      /  F ield         | OpenFOAM: The Open Source CFD Toolbox           |
|  \\    /   O peration     | Version:  2306                                  |
|   \\  /    A nd           | Website:  www.openfoam.com                      |
|    \\/     M anipulation  |                                                 |
\*---------------------------------------------------------------------------*/
FoamFile
{
    version     2.0;
    format      ascii;
    arch        "LSB;label=32;scalar=64";
    class       volVectorField;
    location    "1";
    object      U;
}
// * * * * * * * * * * * * * * * * * * * * * * * * * * * * * * * * * * * * * //

dimensions      [0 1 -1 0 0 0 0];

internalField   nonuniform List<vector> 
256
(
(-0.00217426 4.84319e-05 -0.000994458)
(-0.00215958 1.74629e-05 -0.000917984)
(-0.00215958 -1.74857e-05 -0.000918009)
(-0.00217425 -4.84453e-05 -0.000994554)
(-3.92437e-05 5.14966e-05 -1.45066e-05)
(-3.21562e-05 1.83956e-05 -1.13462e-05)
(-3.21572e-05 -1.83973e-05 -1.13453e-05)
(-3.92449e-05 -5.14976e-05 -1.45052e-05)
(4.45299e-06 5.84214e-06 -1.07241e-07)
(1.10634e-05 2.00181e-06 -4.66585e-08)
(1.10629e-05 -2.00316e-06 -4.66586e-08)
(4.45164e-06 -5.84204e-06 -1.07101e-07)
(6.84586e-07 3.03894e-06 -1.99897e-10)
(1.57391e-06 1.17869e-06 5.89197e-10)
(1.57375e-06 -1.18022e-06 5.46819e-10)
(6.84213e-07 -3.04025e-06 -3.06628e-10)
(9.46716e-07 3.88863e-07 9.19135e-11)
(1.30849e-06 1.52921e-07 6.53636e-11)
(1.30847e-06 -1.52853e-07 4.28641e-11)
(9.46376e-07 -3.88616e-07 7.18213e-11)
(4.74961e-05 1.58208e-07 6.11659e-11)
(4.7564e-05 6.43301e-08 -9.37865e-12)
(4.75643e-05 -6.37563e-08 -4.4397e-11)
(4.74962e-05 -1.57528e-07 -2.93191e-11)
(0.00259389 2.80562e-08 -2.8302e-11)
(0.00259391 1.15576e-08 -4.43029e-11)
(0.00259391 -1.15658e-08 -2.01637e-11)
(0.00259389 -2.83347e-08 -5.25823e-12)
(0.0977851 4.88948e-09 3.76144e-11)
(0.0977851 1.69008e-09 -5.30155e-11)
(0.0977851 -3.04849e-09 2.1899e-11)
(0.0977851 -6.62544e-09 -2.59296e-12)
(-0.00217426 4.84327e-05 -0.000994459)
(-0.00215958 1.74629e-05 -0.000917985)
(-0.00215958 -1.74854e-05 -0.000918009)
(-0.00217425 -4.8445e-05 -0.000994554)
(-3.92437e-05 5.14975e-05 -1.45069e-05)
(-3.21558e-05 1.83958e-05 -1.13459e-05)
(-3.21567e-05 -1.83971e-05 -1.13451e-05)
(-3.9245e-05 -5.14975e-05 -1.45051e-05)
(4.45299e-06 5.84235e-06 -1.07303e-07)
(1.10634e-05 2.00199e-06 -4.6802e-08)
(1.10631e-05 -2.00315e-06 -4.66668e-08)
(4.4517e-06 -5.84208e-06 -1.07086e-07)
(6.84593e-07 3.03893e-06 -2.41294e-10)
(1.57386e-06 1.17874e-06 5.51736e-10)
(1.57369e-06 -1.18019e-06 4.75637e-10)
(6.84213e-07 -3.0403e-06 -3.66801e-10)
(9.46615e-07 3.88837e-07 -1.01454e-11)
(1.30855e-06 1.52926e-07 5.76279e-11)
(1.30836e-06 -1.52847e-07 2.88193e-11)
(9.46484e-07 -3.88645e-07 -7.39344e-11)
(4.7496e-05 1.58211e-07 -1.44434e-11)
(4.7564e-05 6.43095e-08 6.46869e-11)
(4.75642e-05 -6.37519e-08 4.78218e-12)
(4.74962e-05 -1.57507e-07 -1.55151e-10)
(0.00259389 2.81003e-08 -6.74345e-11)
(0.00259391 1.15703e-08 -3.67279e-11)
(0.00259391 -1.14918e-08 1.73304e-11)
(0.0025939 -2.82747e-08 -4.48215e-11)
(0.0977851 4.97066e-09 -1.04041e-10)
(0.0977851 1.75409e-09 -1.5771e-10)
(0.0977851 -2.94752e-09 1.48581e-10)
(0.0977851 -6.54228e-09 1.16821e-10)
(-0.00217426 4.8433e-05 -0.000994457)
(-0.00215958 1.74634e-05 -0.000917984)
(-0.00215958 -1.74852e-05 -0.000918009)
(-0.00217425 -4.84447e-05 -0.000994554)
(-3.92433e-05 5.14977e-05 -1.45062e-05)
(-3.21555e-05 1.83961e-05 -1.13451e-05)
(-3.21568e-05 -1.83971e-05 -1.13449e-05)
(-3.92451e-05 -5.14975e-05 -1.45056e-05)
(4.45299e-06 5.84241e-06 -1.07233e-07)
(1.10636e-05 2.00195e-06 -4.66721e-08)
(1.10631e-05 -2.0032e-06 -4.65695e-08)
(4.45171e-06 -5.84211e-06 -1.07112e-07)
(6.84552e-07 3.03898e-06 -2.71119e-10)
(1.57381e-06 1.17876e-06 5.06551e-10)
(1.57365e-06 -1.18021e-06 4.67663e-10)
(6.84215e-07 -3.04031e-06 -3.70056e-10)
(9.4659e-07 3.88849e-07 6.55239e-11)
(1.30852e-06 1.52944e-07 1.97615e-11)
(1.30835e-06 -1.52823e-07 2.85992e-11)
(9.4648e-07 -3.88637e-07 2.59842e-11)
(4.7496e-05 1.58191e-07 5.90274e-11)
(4.7564e-05 6.43026e-08 2.66486e-11)
(4.75641e-05 -6.37522e-08 1.03378e-11)
(4.74962e-05 -1.57512e-07 -4.59053e-11)
(0.0025939 2.80658e-08 -2.84277e-11)
(0.00259391 1.15207e-08 -3.9426e-11)
(0.00259391 -1.14492e-08 2.05249e-11)
(0.0025939 -2.81632e-08 1.38167e-11)
(0.0977851 4.98424e-09 -1.31051e-10)
(0.0977851 1.7481e-09 -1.93861e-10)
(0.0977851 -2.87162e-09 5.18538e-12)
(0.0977851 -6.40645e-09 1.98382e-10)
(-0.00217426 4.84332e-05 -0.000994457)
(-0.00215958 1.74635e-05 -0.000917984)
(-0.00215958 -1.7485e-05 -0.000918009)
(-0.00217425 -4.84444e-05 -0.000994554)
(-3.92434e-05 5.14978e-05 -1.4506e-05)
(-3.21556e-05 1.8396e-05 -1.13454e-05)
(-3.21575e-05 -1.8397e-05 -1.13454e-05)
(-3.92454e-05 -5.14972e-05 -1.45056e-05)
(4.45296e-06 5.84235e-06 -1.07176e-07)
(1.10636e-05 2.00179e-06 -4.66323e-08)
(1.10632e-05 -2.00328e-06 -4.66358e-08)
(4.45164e-06 -5.84199e-06 -1.07191e-07)
(6.84518e-07 3.03898e-06 -2.89197e-10)
(1.57378e-06 1.17875e-06 5.05706e-10)
(1.57364e-06 -1.18022e-06 5.05824e-10)
(6.84206e-07 -3.04031e-06 -2.94647e-10)
(9.46592e-07 3.8886e-07 5.12182e-11)
(1.30851e-06 1.52952e-07 2.05055e-11)
(1.30838e-06 -1.52812e-07 2.89415e-11)
(9.46467e-07 -3.88624e-07 5.34305e-11)
(4.7496e-05 1.58179e-07 4.7229e-11)
(4.7564e-05 6.42945e-08 4.53719e-12)
(4.75641e-05 -6.37472e-08 3.92422e-13)
(4.74962e-05 -1.57508e-07 1.79208e-11)
(0.0025939 2.80545e-08 5.46552e-12)
(0.00259391 1.15156e-08 -2.29355e-11)
(0.00259391 -1.14454e-08 3.31195e-11)
(0.0025939 -2.81359e-08 3.99883e-11)
(0.0977851 5.0004e-09 6.75799e-12)
(0.0977851 1.75724e-09 -3.34681e-11)
(0.0977851 -2.86047e-09 -4.32739e-11)
(0.0977851 -6.36649e-09 3.98894e-11)
(-0.00217426 4.84333e-05 -0.000994458)
(-0.00215958 1.74637e-05 -0.000917985)
(-0.00215958 -1.74849e-05 -0.000918009)
(-0.00217425 -4.84445e-05 -0.000994554)
(-3.92434e-05 5.14977e-05 -1.45062e-05)
(-3.2156e-05 1.83962e-05 -1.13461e-05)
(-3.21573e-05 -1.83969e-05 -1.13456e-05)
(-3.92453e-05 -5.14973e-05 -1.4505e-05)
(4.45294e-06 5.84231e-06 -1.0721e-07)
(1.10636e-05 2.00186e-06 -4.67383e-08)
(1.10631e-05 -2.00316e-06 -4.68055e-08)
(4.4517e-06 -5.84199e-06 -1.07221e-07)
(6.84532e-07 3.039e-06 -3.27649e-10)
(1.57379e-06 1.17875e-06 5.00256e-10)
(1.57366e-06 -1.18021e-06 5.37774e-10)
(6.84221e-07 -3.04028e-06 -2.22914e-10)
(9.46631e-07 3.88874e-07 4.11065e-11)
(1.30849e-06 1.52962e-07 1.82038e-11)
(1.3084e-06 -1.52807e-07 9.87798e-12)
(9.46439e-07 -3.8862e-07 3.86158e-11)
(4.74961e-05 1.58177e-07 2.40023e-11)
(4.7564e-05 6.42924e-08 -8.62848e-12)
(4.75641e-05 -6.37445e-08 -9.95831e-12)
(4.74962e-05 -1.57514e-07 4.56127e-11)
(0.0025939 2.80562e-08 4.67792e-11)
(0.00259391 1.15149e-08 2.67653e-11)
(0.00259391 -1.14432e-08 -9.399e-12)
(0.0025939 -2.8136e-08 -4.58336e-12)
(0.0977851 5.00393e-09 2.2031e-11)
(0.0977851 1.75705e-09 9.82809e-12)
(0.0977851 -2.86351e-09 3.49995e-11)
(0.0977851 -6.36302e-09 -2.52238e-11)
(-0.00217426 4.84335e-05 -0.000994459)
(-0.00215958 1.74637e-05 -0.000917984)
(-0.00215958 -1.74852e-05 -0.000918009)
(-0.00217425 -4.84445e-05 -0.000994554)
(-3.92433e-05 5.1498e-05 -1.45065e-05)
(-3.21561e-05 1.83963e-05 -1.13459e-05)
(-3.21567e-05 -1.83971e-05 -1.13451e-05)
(-3.92454e-05 -5.14973e-05 -1.45053e-05)
(4.45294e-06 5.84228e-06 -1.07163e-07)
(1.10635e-05 2.00196e-06 -4.67254e-08)
(1.10632e-05 -2.00313e-06 -4.68096e-08)
(4.45175e-06 -5.8421e-06 -1.07242e-07)
(6.84555e-07 3.03901e-06 -3.32568e-10)
(1.57383e-06 1.17878e-06 5.25611e-10)
(1.57373e-06 -1.18017e-06 5.75883e-10)
(6.84248e-07 -3.04027e-06 -1.90262e-10)
(9.46642e-07 3.88891e-07 -2.8005e-11)
(1.30846e-06 1.52967e-07 -6.3557e-12)
(1.30841e-06 -1.52812e-07 -2.64103e-11)
(9.46424e-07 -3.88623e-07 2.36434e-12)
(4.74961e-05 1.58183e-07 -3.27254e-11)
(4.7564e-05 6.43026e-08 -2.03916e-11)
(4.75642e-05 -6.37497e-08 -1.68836e-11)
(4.74962e-05 -1.57522e-07 6.53632e-11)
(0.0025939 2.80522e-08 3.02943e-11)
(0.00259391 1.15138e-08 4.41187e-11)
(0.00259391 -1.14498e-08 -4.43435e-11)
(0.0025939 -2.81771e-08 6.94664e-12)
(0.0977851 4.97455e-09 1.50892e-10)
(0.0977851 1.73311e-09 1.44184e-10)
(0.0977851 -2.88477e-09 -9.24558e-11)
(0.0977851 -6.41511e-09 -1.48683e-10)
(-0.00217426 4.84335e-05 -0.000994457)
(-0.00215958 1.74633e-05 -0.000917984)
(-0.00215958 -1.74851e-05 -0.000918009)
(-0.00217425 -4.84449e-05 -0.000994554)
(-3.92434e-05 5.1498e-05 -1.45063e-05)
(-3.21557e-05 1.83959e-05 -1.13451e-05)
(-3.2157e-05 -1.83969e-05 -1.1345e-05)
(-3.92452e-05 -5.14974e-05 -1.45055e-05)
(4.45293e-06 5.84234e-06 -1.07006e-07)
(1.10634e-05 2.00194e-06 -4.656e-08)
(1.10631e-05 -2.0032e-06 -4.65832e-08)
(4.45177e-06 -5.84199e-06 -1.07191e-07)
(6.84565e-07 3.03899e-06 -2.70254e-10)
(1.57388e-06 1.17877e-06 6.0292e-10)
(1.57376e-06 -1.18017e-06 6.46533e-10)
(6.84279e-07 -3.04025e-06 -1.69179e-10)
(9.4667e-07 3.88886e-07 -1.7641e-10)
(1.30848e-06 1.52963e-07 -4.49574e-11)
(1.30841e-06 -1.52823e-07 -2.2973e-11)
(9.46446e-07 -3.88624e-07 -1.14291e-10)
(4.74961e-05 1.58199e-07 -1.43734e-10)
(4.7564e-05 6.43151e-08 -7.82479e-12)
(4.75642e-05 -6.37479e-08 4.48342e-11)
(4.74962e-05 -1.57512e-07 3.00728e-11)
(0.00259389 2.80998e-08 9.95632e-12)
(0.00259391 1.15463e-08 5.69726e-11)
(0.00259391 -1.15195e-08 9.0469e-12)
(0.0025939 -2.82631e-08 -3.9693e-12)
(0.0977851 4.97722e-09 7.14055e-11)
(0.0977851 1.72634e-09 2.37048e-10)
(0.0977851 -2.97909e-09 -6.20838e-11)
(0.0977851 -6.53175e-09 -1.70565e-10)
(-0.00217426 4.84327e-05 -0.000994456)
(-0.00215958 1.74633e-05 -0.000917985)
(-0.00215958 -1.74855e-05 -0.000918008)
(-0.00217425 -4.84451e-05 -0.000994554)
(-3.92436e-05 5.14973e-05 -1.45058e-05)
(-3.21559e-05 1.83958e-05 -1.13453e-05)
(-3.21574e-05 -1.83973e-05 -1.13453e-05)
(-3.92452e-05 -5.14975e-05 -1.45052e-05)
(4.45297e-06 5.84224e-06 -1.07048e-07)
(1.10634e-05 2.00176e-06 -4.64692e-08)
(1.1063e-05 -2.00319e-06 -4.65047e-08)
(4.45165e-06 -5.84202e-06 -1.07106e-07)
(6.84624e-07 3.03888e-06 -2.0586e-10)
(1.57393e-06 1.17872e-06 6.15872e-10)
(1.57377e-06 -1.18021e-06 6.41446e-10)
(6.8424e-07 -3.0403e-06 -2.17068e-10)
(9.46578e-07 3.88839e-07 9.06574e-12)
(1.30861e-06 1.52944e-07 -1.34061e-11)
(1.30835e-06 -1.52831e-07 2.70178e-11)
(9.46529e-07 -3.88649e-07 4.02698e-11)
(4.7496e-05 1.58252e-07 4.00964e-13)
(4.75641e-05 6.43437e-08 -4.80158e-11)
(4.75642e-05 -6.37353e-08 1.25257e-11)
(4.74962e-05 -1.57482e-07 7.23279e-11)
(0.00259389 2.80927e-08 3.16805e-11)
(0.00259391 1.15595e-08 1.55538e-11)
(0.00259391 -1.15486e-08 -6.09733e-12)
(0.00259389 -2.83143e-08 -2.10763e-12)
(0.0977851 4.8978e-09 -5.36088e-11)
(0.0977851 1.69825e-09 4.69939e-11)
(0.0977851 -3.03827e-09 -1.28512e-11)
(0.0977851 -6.62561e-09 -8.02727e-12)
)
;

boundaryField
{
    movingWall
    {
        type            fixedValue;
        value           uniform (1 0 0);
    }
    CPLReceiveMD
    {
        type            fixedValue;
        value           uniform (-0.0232884 0 0.00280786);
    }
    streamwiseIn
    {
        type            cyclic;
    }
    streamwiseOut
    {
        type            cyclic;
    }
    front
    {
        type            cyclic;
    }
    back
    {
        type            cyclic;
    }
    procBoundary1to0
    {
        type            processor;
        value           nonuniform List<vector> 
64
(
(-0.00210987 4.85697e-05 -0.00106016)
(-4.80668e-05 5.16205e-05 -2.57926e-05)
(-5.7815e-06 5.83592e-06 -3.37024e-07)
(-6.79854e-07 3.03835e-06 -3.14546e-09)
(4.09989e-07 3.89576e-07 -8.78046e-12)
(4.73982e-05 1.59074e-07 9.83683e-12)
(0.00259387 2.81193e-08 8.65788e-12)
(0.097785 4.8568e-09 -2.15961e-11)
(-0.00210987 4.85694e-05 -0.00106015)
(-4.80673e-05 5.16201e-05 -2.57928e-05)
(-5.78148e-06 5.83611e-06 -3.37151e-07)
(-6.79835e-07 3.03844e-06 -3.18e-09)
(4.0987e-07 3.89617e-07 1.48851e-10)
(4.73982e-05 1.59048e-07 1.63773e-10)
(0.00259387 2.80952e-08 7.20088e-11)
(0.097785 4.89879e-09 1.27165e-10)
(-0.00210987 4.8571e-05 -0.00106016)
(-4.8067e-05 5.16215e-05 -2.57919e-05)
(-5.78146e-06 5.83628e-06 -3.36996e-07)
(-6.79826e-07 3.03847e-06 -3.1836e-09)
(4.09893e-07 3.89624e-07 6.00213e-12)
(4.73982e-05 1.59039e-07 4.25506e-11)
(0.00259387 2.81649e-08 3.31289e-11)
(0.0977851 5.00829e-09 1.79547e-10)
(-0.00210987 4.85715e-05 -0.00106015)
(-4.80666e-05 5.16216e-05 -2.57919e-05)
(-5.78138e-06 5.83615e-06 -3.36928e-07)
(-6.79824e-07 3.03845e-06 -3.24008e-09)
(4.09904e-07 3.89621e-07 -5.90509e-11)
(4.73982e-05 1.5905e-07 -2.61696e-11)
(0.00259387 2.81851e-08 1.83465e-11)
(0.0977851 5.04072e-09 2.74572e-11)
(-0.00210987 4.85717e-05 -0.00106015)
(-4.80667e-05 5.16218e-05 -2.57927e-05)
(-5.7814e-06 5.83622e-06 -3.37064e-07)
(-6.79827e-07 3.03843e-06 -3.30243e-09)
(4.09943e-07 3.89623e-07 -7.15341e-11)
(4.73983e-05 1.59059e-07 -6.21442e-11)
(0.00259387 2.82003e-08 -4.17733e-11)
(0.0977851 5.04764e-09 -2.95794e-11)
(-0.00210987 4.85714e-05 -0.00106016)
(-4.80665e-05 5.16217e-05 -2.57924e-05)
(-5.78144e-06 5.83635e-06 -3.37057e-07)
(-6.79861e-07 3.03846e-06 -3.27311e-09)
(4.09958e-07 3.8963e-07 -8.74112e-11)
(4.73983e-05 1.59052e-07 -8.01666e-11)
(0.00259387 2.81839e-08 -4.5566e-11)
(0.0977851 5.00978e-09 -1.43552e-10)
(-0.00210987 4.85714e-05 -0.00106015)
(-4.80666e-05 5.16217e-05 -2.57913e-05)
(-5.78148e-06 5.83626e-06 -3.36928e-07)
(-6.79901e-07 3.03843e-06 -3.23223e-09)
(4.09921e-07 3.89615e-07 -2.43065e-11)
(4.73982e-05 1.59064e-07 9.13097e-12)
(0.00259387 2.81354e-08 -1.66268e-14)
(0.097785 4.91998e-09 -1.28371e-10)
(-0.00210987 4.85697e-05 -0.00106016)
(-4.80668e-05 5.16201e-05 -2.57915e-05)
(-5.78135e-06 5.83593e-06 -3.36875e-07)
(-6.79866e-07 3.03843e-06 -3.17053e-09)
(4.0981e-07 3.89639e-07 -1.01008e-10)
(4.73981e-05 1.59049e-07 -5.8063e-11)
(0.00259387 2.80806e-08 -4.47925e-11)
(0.097785 4.84452e-09 -1.10705e-11)
)
;
    }
    procBoundary1to0throughstreamwiseOut
    {
        type            processorCyclic;
        value           nonuniform List<vector> 
64
(
(-0.00210986 -4.85663e-05 -0.00106025)
(-4.80683e-05 -5.16198e-05 -2.57889e-05)
(-5.78278e-06 -5.83395e-06 -3.36883e-07)
(-6.80106e-07 -3.03943e-06 -3.24451e-09)
(4.09779e-07 -3.89335e-07 -4.34573e-11)
(4.73978e-05 -1.58343e-07 -7.61954e-11)
(0.00259387 -2.83964e-08 -6.85282e-11)
(0.097785 -6.71739e-09 4.01604e-11)
(-0.00210986 -4.85656e-05 -0.00106025)
(-4.80684e-05 -5.16193e-05 -2.57891e-05)
(-5.78281e-06 -5.83389e-06 -3.36865e-07)
(-6.80124e-07 -3.03939e-06 -3.28731e-09)
(4.0989e-07 -3.89322e-07 8.91867e-11)
(4.73979e-05 -1.58388e-07 -3.8859e-11)
(0.00259387 -2.83526e-08 -5.979e-11)
(0.097785 -6.61842e-09 -6.11049e-11)
(-0.00210986 -4.85644e-05 -0.00106025)
(-4.80688e-05 -5.16184e-05 -2.57892e-05)
(-5.7829e-06 -5.83389e-06 -3.36894e-07)
(-6.8009e-07 -3.03941e-06 -3.30455e-09)
(4.09912e-07 -3.89323e-07 -2.93519e-11)
(4.7398e-05 -1.58405e-07 -8.02438e-11)
(0.00259387 -2.83508e-08 -7.26068e-11)
(0.0977851 -6.57896e-09 -1.23355e-10)
(-0.00210986 -4.85642e-05 -0.00106025)
(-4.80689e-05 -5.16184e-05 -2.57894e-05)
(-5.78295e-06 -5.83383e-06 -3.36913e-07)
(-6.80065e-07 -3.0394e-06 -3.25331e-09)
(4.09909e-07 -3.89319e-07 -5.15996e-11)
(4.7398e-05 -1.58412e-07 -5.18056e-11)
(0.00259387 -2.83388e-08 -3.13158e-11)
(0.0977851 -6.54985e-09 -1.99127e-12)
(-0.00210986 -4.8564e-05 -0.00106025)
(-4.80689e-05 -5.16181e-05 -2.57895e-05)
(-5.78291e-06 -5.83374e-06 -3.36973e-07)
(-6.80072e-07 -3.03942e-06 -3.1852e-09)
(4.0987e-07 -3.89328e-07 -7.21747e-11)
(4.7398e-05 -1.58406e-07 -1.15543e-11)
(0.00259387 -2.83269e-08 2.00299e-11)
(0.0977851 -6.54235e-09 3.45603e-12)
(-0.00210986 -4.85644e-05 -0.00106025)
(-4.80691e-05 -5.16183e-05 -2.57889e-05)
(-5.7829e-06 -5.83365e-06 -3.3701e-07)
(-6.80083e-07 -3.0394e-06 -3.13057e-09)
(4.09853e-07 -3.89334e-07 -5.64216e-11)
(4.7398e-05 -1.58388e-07 5.55594e-11)
(0.00259387 -2.83398e-08 4.52707e-11)
(0.0977851 -6.57912e-09 1.26898e-10)
(-0.00210986 -4.85645e-05 -0.00106025)
(-4.8069e-05 -5.16184e-05 -2.57887e-05)
(-5.78286e-06 -5.83379e-06 -3.36949e-07)
(-6.80074e-07 -3.0394e-06 -3.12616e-09)
(4.09857e-07 -3.89338e-07 4.63916e-11)
(4.73979e-05 -1.58379e-07 1.67368e-10)
(0.00259387 -2.83349e-08 1.21102e-10)
(0.097785 -6.60314e-09 7.9739e-11)
(-0.00210986 -4.85652e-05 -0.00106025)
(-4.80689e-05 -5.16187e-05 -2.57888e-05)
(-5.78279e-06 -5.83381e-06 -3.3691e-07)
(-6.80119e-07 -3.03937e-06 -3.18924e-09)
(4.09956e-07 -3.89305e-07 -7.97579e-11)
(4.73979e-05 -1.58371e-07 3.44797e-11)
(0.00259387 -2.84223e-08 4.58319e-11)
(0.097785 -6.72155e-09 -6.38022e-11)
)
;
    }
}


// ************************************************************************* //
