/*--------------------------------*- C++ -*----------------------------------*\
| =========                 |                                                 |
| \\      /  F ield         | OpenFOAM: The Open Source CFD Toolbox           |
|  \\    /   O peration     | Version:  2306                                  |
|   \\  /    A nd           | Website:  www.openfoam.com                      |
|    \\/     M anipulation  |                                                 |
\*---------------------------------------------------------------------------*/
FoamFile
{
    version     2.0;
    format      ascii;
    arch        "LSB;label=32;scalar=64";
    class       volVectorField;
    location    "1";
    object      U_0;
}
// * * * * * * * * * * * * * * * * * * * * * * * * * * * * * * * * * * * * * //

dimensions      [0 1 -1 0 0 0 0];

internalField   nonuniform List<vector> 
256
(
(-0.00193434 4.59825e-05 -0.00098201)
(-0.00192435 1.65351e-05 -0.000903042)
(-0.00192436 -1.65524e-05 -0.00090306)
(-0.00193433 -4.59924e-05 -0.000982096)
(-3.01451e-05 4.82117e-05 -9.25396e-06)
(-2.45734e-05 1.71133e-05 -6.67951e-06)
(-2.45738e-05 -1.71142e-05 -6.67881e-06)
(-3.01453e-05 -4.82121e-05 -9.25301e-06)
(4.58087e-06 4.9488e-06 -3.84264e-08)
(1.10133e-05 1.61824e-06 3.67654e-09)
(1.10127e-05 -1.61949e-06 3.66952e-09)
(4.57968e-06 -4.949e-06 -3.82631e-08)
(6.62266e-07 2.97011e-06 3.20639e-10)
(1.51987e-06 1.14324e-06 7.5782e-10)
(1.5198e-06 -1.14437e-06 7.20346e-10)
(6.61954e-07 -2.97087e-06 1.97975e-10)
(7.223e-07 3.73805e-07 7.70082e-11)
(1.07553e-06 1.46671e-07 -3.03346e-11)
(1.07579e-06 -1.46627e-07 -3.04956e-11)
(7.21926e-07 -3.73555e-07 9.96177e-11)
(3.53942e-05 1.53532e-07 7.79689e-11)
(3.54634e-05 6.23057e-08 -2.91033e-11)
(3.54639e-05 -6.21942e-08 -6.0175e-11)
(3.53943e-05 -1.53395e-07 1.98133e-11)
(0.00212573 2.88154e-08 6.10009e-12)
(0.00212575 1.19909e-08 -2.07515e-11)
(0.00212575 -1.16432e-08 -3.99215e-12)
(0.00212573 -2.88064e-08 2.90628e-11)
(0.0886707 5.02859e-09 -2.46257e-11)
(0.0886707 1.88335e-09 -6.08741e-11)
(0.0886707 -2.77509e-09 -2.37657e-11)
(0.0886707 -6.30762e-09 -1.20362e-11)
(-0.00193434 4.59829e-05 -0.000982011)
(-0.00192435 1.65352e-05 -0.000903043)
(-0.00192435 -1.6552e-05 -0.00090306)
(-0.00193433 -4.59923e-05 -0.000982095)
(-3.01451e-05 4.82124e-05 -9.25451e-06)
(-2.4573e-05 1.71135e-05 -6.67917e-06)
(-2.45734e-05 -1.71139e-05 -6.67859e-06)
(-3.01452e-05 -4.82121e-05 -9.25304e-06)
(4.58094e-06 4.94906e-06 -3.83292e-08)
(1.10132e-05 1.61839e-06 3.45007e-09)
(1.1013e-05 -1.6194e-06 3.62175e-09)
(4.5797e-06 -4.94903e-06 -3.81027e-08)
(6.62269e-07 2.96998e-06 2.55834e-10)
(1.51985e-06 1.14331e-06 7.93904e-10)
(1.51969e-06 -1.14434e-06 6.88014e-10)
(6.61962e-07 -2.97101e-06 1.09046e-10)
(7.22115e-07 3.73762e-07 -1.90584e-10)
(1.07578e-06 1.46673e-07 3.96102e-11)
(1.07555e-06 -1.4661e-07 3.807e-11)
(7.22132e-07 -3.73595e-07 -1.77159e-10)
(3.53941e-05 1.53606e-07 -4.76006e-11)
(3.54636e-05 6.23041e-08 1.2079e-10)
(3.54637e-05 -6.21813e-08 7.73657e-11)
(3.53944e-05 -1.53325e-07 -1.58886e-10)
(0.00212573 2.88666e-08 -5.14723e-12)
(0.00212575 1.19884e-08 4.5517e-11)
(0.00212575 -1.16103e-08 8.59494e-11)
(0.00212573 -2.87305e-08 -1.28407e-11)
(0.0886707 5.08633e-09 -1.24897e-10)
(0.0886707 1.92842e-09 -1.45975e-10)
(0.0886707 -2.71065e-09 5.99025e-11)
(0.0886707 -6.23235e-09 2.78323e-11)
(-0.00193434 4.59833e-05 -0.000982009)
(-0.00192435 1.65356e-05 -0.000903042)
(-0.00192435 -1.6552e-05 -0.000903059)
(-0.00193433 -4.5992e-05 -0.000982096)
(-3.01447e-05 4.82127e-05 -9.2537e-06)
(-2.45727e-05 1.71138e-05 -6.67835e-06)
(-2.45734e-05 -1.7114e-05 -6.67819e-06)
(-3.01455e-05 -4.8212e-05 -9.25354e-06)
(4.58086e-06 4.94914e-06 -3.83796e-08)
(1.10133e-05 1.61841e-06 3.61473e-09)
(1.1013e-05 -1.61948e-06 3.74827e-09)
(4.5798e-06 -4.94904e-06 -3.81974e-08)
(6.62247e-07 2.97004e-06 2.54844e-10)
(1.51979e-06 1.14332e-06 7.12363e-10)
(1.51962e-06 -1.14436e-06 6.64582e-10)
(6.6193e-07 -2.97101e-06 1.24969e-10)
(7.22157e-07 3.73774e-07 5.20723e-11)
(1.07575e-06 1.4669e-07 -1.61001e-11)
(1.07558e-06 -1.46585e-07 8.31151e-12)
(7.22083e-07 -3.73573e-07 4.31072e-11)
(3.53941e-05 1.53605e-07 1.00335e-10)
(3.54636e-05 6.23142e-08 4.82993e-11)
(3.54636e-05 -6.21696e-08 3.42497e-11)
(3.53943e-05 -1.53329e-07 1.20534e-12)
(0.00212573 2.88329e-08 2.84712e-11)
(0.00212575 1.19398e-08 1.13241e-11)
(0.00212575 -1.15895e-08 5.124e-11)
(0.00212573 -2.86707e-08 4.27431e-11)
(0.0886707 5.09388e-09 -1.21241e-10)
(0.0886707 1.91885e-09 -1.67429e-10)
(0.0886707 -2.65745e-09 -2.87807e-11)
(0.0886707 -6.14215e-09 9.68238e-11)
(-0.00193434 4.59834e-05 -0.000982009)
(-0.00192435 1.65357e-05 -0.000903042)
(-0.00192435 -1.65518e-05 -0.00090306)
(-0.00193433 -4.59918e-05 -0.000982096)
(-3.01447e-05 4.82127e-05 -9.25351e-06)
(-2.45726e-05 1.71136e-05 -6.67861e-06)
(-2.45743e-05 -1.7114e-05 -6.67881e-06)
(-3.01458e-05 -4.82117e-05 -9.25349e-06)
(4.58079e-06 4.9491e-06 -3.83094e-08)
(1.10134e-05 1.61823e-06 3.6675e-09)
(1.10131e-05 -1.61956e-06 3.66575e-09)
(4.57976e-06 -4.94888e-06 -3.8295e-08)
(6.6221e-07 2.97003e-06 2.15531e-10)
(1.51976e-06 1.1433e-06 6.86674e-10)
(1.5196e-06 -1.14439e-06 6.74649e-10)
(6.61921e-07 -2.97103e-06 1.91284e-10)
(7.22152e-07 3.73786e-07 4.94305e-11)
(1.07573e-06 1.46695e-07 -3.1525e-12)
(1.07562e-06 -1.46575e-07 1.10425e-11)
(7.22074e-07 -3.73559e-07 5.64514e-11)
(3.53941e-05 1.53601e-07 6.10202e-11)
(3.54635e-05 6.232e-08 1.96952e-12)
(3.54637e-05 -6.21591e-08 -4.60613e-12)
(3.53943e-05 -1.53321e-07 2.92827e-11)
(0.00212573 2.88126e-08 1.83208e-11)
(0.00212575 1.19373e-08 -8.69714e-12)
(0.00212575 -1.15892e-08 2.42979e-11)
(0.00212573 -2.86492e-08 4.51239e-11)
(0.0886707 5.10049e-09 -1.87828e-11)
(0.0886707 1.92663e-09 -3.29468e-11)
(0.0886707 -2.65042e-09 -5.76243e-11)
(0.0886707 -6.11007e-09 2.96446e-11)
(-0.00193434 4.59835e-05 -0.00098201)
(-0.00192435 1.65359e-05 -0.000903043)
(-0.00192435 -1.65518e-05 -0.00090306)
(-0.00193433 -4.59919e-05 -0.000982095)
(-3.01447e-05 4.82127e-05 -9.25353e-06)
(-2.45731e-05 1.71139e-05 -6.67945e-06)
(-2.45741e-05 -1.71138e-05 -6.67909e-06)
(-3.01457e-05 -4.82118e-05 -9.25261e-06)
(4.58076e-06 4.94907e-06 -3.83402e-08)
(1.10134e-05 1.61832e-06 3.5507e-09)
(1.1013e-05 -1.61941e-06 3.44186e-09)
(4.57986e-06 -4.94889e-06 -3.83923e-08)
(6.62224e-07 2.97006e-06 1.65361e-10)
(1.51975e-06 1.1433e-06 6.62619e-10)
(1.51963e-06 -1.14437e-06 6.92161e-10)
(6.61937e-07 -2.971e-06 2.51624e-10)
(7.222e-07 3.73798e-07 6.80299e-11)
(1.07571e-06 1.46704e-07 2.07008e-11)
(1.07564e-06 -1.46569e-07 8.56621e-12)
(7.22034e-07 -3.73551e-07 6.34241e-11)
(3.53942e-05 1.53596e-07 2.22104e-11)
(3.54635e-05 6.23171e-08 -2.40474e-11)
(3.54637e-05 -6.21596e-08 -2.15421e-11)
(3.53943e-05 -1.5333e-07 5.34553e-11)
(0.00212573 2.88114e-08 3.64926e-11)
(0.00212575 1.19353e-08 9.37347e-12)
(0.00212575 -1.15904e-08 -1.93798e-11)
(0.00212573 -2.8653e-08 -2.53186e-12)
(0.0886707 5.10133e-09 4.29117e-11)
(0.0886707 1.9252e-09 7.90968e-12)
(0.0886707 -2.6549e-09 2.92158e-11)
(0.0886707 -6.10885e-09 -1.81607e-11)
(-0.00193434 4.59838e-05 -0.000982011)
(-0.00192435 1.65359e-05 -0.000903042)
(-0.00192435 -1.6552e-05 -0.00090306)
(-0.00193433 -4.59919e-05 -0.000982096)
(-3.01446e-05 4.82129e-05 -9.2539e-06)
(-2.45733e-05 1.7114e-05 -6.6791e-06)
(-2.45732e-05 -1.71141e-05 -6.6783e-06)
(-3.01459e-05 -4.82118e-05 -9.25291e-06)
(4.58075e-06 4.94901e-06 -3.83125e-08)
(1.10132e-05 1.61843e-06 3.5326e-09)
(1.10131e-05 -1.61938e-06 3.40847e-09)
(4.5799e-06 -4.94905e-06 -3.84833e-08)
(6.62235e-07 2.97006e-06 1.42272e-10)
(1.51978e-06 1.14333e-06 6.71771e-10)
(1.5197e-06 -1.14432e-06 7.35351e-10)
(6.61972e-07 -2.97098e-06 2.9195e-10)
(7.22205e-07 3.73815e-07 7.06969e-11)
(1.07566e-06 1.46709e-07 4.59398e-11)
(1.07566e-06 -1.46572e-07 2.23853e-12)
(7.22028e-07 -3.73551e-07 6.25832e-11)
(3.53942e-05 1.53591e-07 -2.60953e-11)
(3.54635e-05 6.23198e-08 -3.67038e-11)
(3.54637e-05 -6.21657e-08 -3.36712e-11)
(3.53943e-05 -1.53344e-07 6.80699e-11)
(0.00212573 2.88159e-08 -1.14788e-11)
(0.00212575 1.19397e-08 -1.16302e-12)
(0.00212575 -1.15886e-08 -6.26127e-11)
(0.00212573 -2.86895e-08 -3.05531e-12)
(0.0886707 5.08339e-09 1.46618e-10)
(0.0886707 1.9054e-09 1.38491e-10)
(0.0886707 -2.67061e-09 -1.55162e-11)
(0.0886707 -6.15333e-09 -6.00083e-11)
(-0.00193434 4.59838e-05 -0.000982009)
(-0.00192435 1.65355e-05 -0.000903042)
(-0.00192435 -1.65518e-05 -0.00090306)
(-0.00193433 -4.59921e-05 -0.000982096)
(-3.01447e-05 4.8213e-05 -9.25376e-06)
(-2.45727e-05 1.71135e-05 -6.67802e-06)
(-2.45736e-05 -1.71139e-05 -6.67821e-06)
(-3.01456e-05 -4.82119e-05 -9.25319e-06)
(4.58073e-06 4.94909e-06 -3.80879e-08)
(1.10132e-05 1.61839e-06 3.66886e-09)
(1.10129e-05 -1.61951e-06 3.64938e-09)
(4.57992e-06 -4.94894e-06 -3.8364e-08)
(6.62253e-07 2.97008e-06 1.3999e-10)
(1.51984e-06 1.14334e-06 7.62025e-10)
(1.51975e-06 -1.1443e-06 8.17545e-10)
(6.61998e-07 -2.97091e-06 3.06047e-10)
(7.22283e-07 3.73818e-07 -1.70132e-10)
(1.07563e-06 1.4671e-07 7.32342e-11)
(1.07566e-06 -1.46585e-07 6.11155e-11)
(7.22001e-07 -3.73553e-07 -1.79175e-10)
(3.53942e-05 1.53567e-07 -2.00147e-10)
(3.54635e-05 6.23027e-08 5.40782e-12)
(3.54638e-05 -6.21811e-08 4.80237e-11)
(3.53943e-05 -1.53353e-07 -7.4107e-11)
(0.00212573 2.88486e-08 -7.106e-11)
(0.00212575 1.19703e-08 5.9412e-14)
(0.00212575 -1.16278e-08 -2.78626e-11)
(0.00212573 -2.87453e-08 -6.92702e-11)
(0.0886707 5.08724e-09 1.02955e-10)
(0.0886707 1.90721e-09 2.20394e-10)
(0.0886707 -2.73125e-09 2.33306e-11)
(0.0886707 -6.23468e-09 -6.66268e-11)
(-0.00193434 4.59829e-05 -0.000982008)
(-0.00192435 1.65356e-05 -0.000903042)
(-0.00192435 -1.65522e-05 -0.000903059)
(-0.00193433 -4.59924e-05 -0.000982096)
(-3.01449e-05 4.82122e-05 -9.25303e-06)
(-2.4573e-05 1.71135e-05 -6.67845e-06)
(-2.45742e-05 -1.71142e-05 -6.6786e-06)
(-3.01454e-05 -4.82121e-05 -9.25292e-06)
(4.5809e-06 4.94895e-06 -3.8283e-08)
(1.1013e-05 1.61813e-06 3.86066e-09)
(1.1013e-05 -1.6195e-06 3.81306e-09)
(4.57967e-06 -4.949e-06 -3.83358e-08)
(6.62295e-07 2.96991e-06 2.67197e-10)
(1.51995e-06 1.14334e-06 7.42478e-10)
(1.51974e-06 -1.14431e-06 7.96621e-10)
(6.62e-07 -2.97103e-06 2.88334e-10)
(7.22077e-07 3.7377e-07 9.74344e-11)
(1.07589e-06 1.46696e-07 -3.48972e-11)
(1.07542e-06 -1.46589e-07 -3.85342e-12)
(7.22157e-07 -3.73611e-07 8.50979e-11)
(3.53941e-05 1.53629e-07 1.30427e-11)
(3.54637e-05 6.22952e-08 -8.54992e-11)
(3.54636e-05 -6.21967e-08 -3.8532e-11)
(3.53944e-05 -1.53303e-07 6.19e-11)
(0.00212573 2.88854e-08 -1.69091e-12)
(0.00212575 1.19749e-08 -3.56514e-11)
(0.00212575 -1.16529e-08 -4.76291e-11)
(0.00212573 -2.87483e-08 -2.9224e-11)
(0.0886707 5.04342e-09 -2.93806e-12)
(0.0886707 1.88333e-09 4.04302e-11)
(0.0886707 -2.77539e-09 1.32381e-11)
(0.0886707 -6.29738e-09 2.53138e-12)
)
;

boundaryField
{
    movingWall
    {
        type            fixedValue;
        value           uniform (1 0 0);
    }
    CPLReceiveMD
    {
        type            fixedValue;
        value           uniform (-0.0374324 0 -0.001389);
    }
    streamwiseIn
    {
        type            cyclic;
    }
    streamwiseOut
    {
        type            cyclic;
    }
    front
    {
        type            cyclic;
    }
    back
    {
        type            cyclic;
    }
    procBoundary1to0
    {
        type            processor;
        value           nonuniform List<vector> 
64
(
(-0.00188781 4.61475e-05 -0.00114082)
(-3.66814e-05 4.83619e-05 -2.06672e-05)
(-5.50687e-06 4.93998e-06 -2.2308e-07)
(-6.58293e-07 2.97045e-06 -1.74085e-09)
(2.02966e-07 3.74509e-07 -9.089e-11)
(3.52946e-05 1.53881e-07 -6.53141e-12)
(0.00212571 2.88769e-08 2.65345e-11)
(0.0886707 4.99757e-09 -3.90741e-11)
(-0.00188781 4.61475e-05 -0.00114082)
(-3.66821e-05 4.83617e-05 -2.06674e-05)
(-5.50679e-06 4.94017e-06 -2.23249e-07)
(-6.58296e-07 2.97061e-06 -1.71183e-09)
(2.02742e-07 3.74559e-07 1.61696e-10)
(3.52945e-05 1.53843e-07 2.22198e-10)
(0.00212571 2.88296e-08 1.32219e-10)
(0.0886707 5.02213e-09 4.33549e-11)
(-0.00188781 4.61487e-05 -0.00114082)
(-3.66816e-05 4.83629e-05 -2.06665e-05)
(-5.50686e-06 4.94037e-06 -2.2295e-07)
(-6.58246e-07 2.97058e-06 -1.75311e-09)
(2.02822e-07 3.74558e-07 -7.54758e-11)
(3.52946e-05 1.53868e-07 3.54493e-11)
(0.00212571 2.88652e-08 4.98559e-11)
(0.0886707 5.08804e-09 6.61758e-11)
(-0.00188781 4.61493e-05 -0.00114082)
(-3.66813e-05 4.83631e-05 -2.06664e-05)
(-5.50681e-06 4.94023e-06 -2.22944e-07)
(-6.58245e-07 2.97054e-06 -1.81477e-09)
(2.02825e-07 3.74555e-07 -6.97047e-11)
(3.52946e-05 1.53886e-07 -2.60063e-11)
(0.00212571 2.88775e-08 2.07398e-11)
(0.0886707 5.11108e-09 1.28574e-11)
(-0.00188781 4.61494e-05 -0.00114082)
(-3.66814e-05 4.83633e-05 -2.06674e-05)
(-5.50687e-06 4.94033e-06 -2.23122e-07)
(-6.58242e-07 2.9705e-06 -1.8868e-09)
(2.02872e-07 3.74554e-07 -5.56393e-11)
(3.52946e-05 1.53898e-07 -7.69249e-11)
(0.00212571 2.88936e-08 -5.06383e-11)
(0.0886707 5.11689e-09 -2.14214e-11)
(-0.00188781 4.61492e-05 -0.00114082)
(-3.66812e-05 4.83631e-05 -2.06668e-05)
(-5.50689e-06 4.94048e-06 -2.23149e-07)
(-6.58285e-07 2.97054e-06 -1.88245e-09)
(2.02878e-07 3.74558e-07 -6.12555e-11)
(3.52946e-05 1.53883e-07 -1.21948e-10)
(0.00212571 2.88859e-08 -8.16196e-11)
(0.0886707 5.09e-09 -5.57356e-11)
(-0.00188781 4.61491e-05 -0.00114082)
(-3.66813e-05 4.83631e-05 -2.06655e-05)
(-5.50694e-06 4.94034e-06 -2.23185e-07)
(-6.58316e-07 2.97051e-06 -1.82309e-09)
(2.02908e-07 3.74539e-07 1.75269e-10)
(3.52946e-05 1.53884e-07 4.77637e-11)
(0.00212571 2.88795e-08 -2.5753e-11)
(0.0886707 5.04151e-09 -5.68022e-12)
(-0.0018878 4.61479e-05 -0.00114082)
(-3.66816e-05 4.83618e-05 -2.06659e-05)
(-5.50665e-06 4.93996e-06 -2.22995e-07)
(-6.58336e-07 2.97064e-06 -1.79479e-09)
(2.0272e-07 3.74584e-07 -7.74725e-11)
(3.52945e-05 1.53802e-07 -7.44865e-11)
(0.00212571 2.88149e-08 -7.13398e-11)
(0.0886707 4.98458e-09 -4.7671e-13)
)
;
    }
    procBoundary1to0throughstreamwiseOut
    {
        type            processorCyclic;
        value           nonuniform List<vector> 
64
(
(-0.0018878 -4.61455e-05 -0.0011409)
(-3.6682e-05 -4.83615e-05 -2.06638e-05)
(-5.508e-06 -4.93878e-06 -2.22957e-07)
(-6.58461e-07 -2.97123e-06 -1.84215e-09)
(2.02716e-07 -3.74316e-07 -8.11311e-11)
(3.52942e-05 -1.53588e-07 -6.63356e-11)
(0.00212571 -2.8795e-08 -3.68117e-11)
(0.0886707 -6.36198e-09 -2.27116e-11)
(-0.0018878 -4.61448e-05 -0.00114091)
(-3.66823e-05 -4.8361e-05 -2.0664e-05)
(-5.50808e-06 -4.93871e-06 -2.2292e-07)
(-6.5849e-07 -2.97113e-06 -1.86045e-09)
(2.02896e-07 -3.74273e-07 1.68856e-10)
(3.52944e-05 -1.53651e-07 7.18177e-11)
(0.00212571 -2.87997e-08 3.75348e-11)
(0.0886707 -6.29809e-09 -6.22076e-11)
(-0.0018878 -4.61437e-05 -0.00114091)
(-3.66826e-05 -4.83601e-05 -2.06641e-05)
(-5.50811e-06 -4.93867e-06 -2.22845e-07)
(-6.58468e-07 -2.9712e-06 -1.90056e-09)
(2.02854e-07 -3.74267e-07 -7.4627e-11)
(3.52944e-05 -1.53639e-07 -7.3742e-11)
(0.00212571 -2.87878e-08 -3.94435e-11)
(0.0886707 -6.25985e-09 -1.14593e-10)
(-0.0018878 -4.61436e-05 -0.00114091)
(-3.66827e-05 -4.83601e-05 -2.06642e-05)
(-5.50814e-06 -4.9386e-06 -2.22923e-07)
(-6.58442e-07 -2.97122e-06 -1.84255e-09)
(2.02859e-07 -3.74263e-07 -6.16661e-11)
(3.52944e-05 -1.53641e-07 -5.51181e-11)
(0.00212571 -2.87821e-08 -2.97759e-11)
(0.0886707 -6.23756e-09 -2.911e-11)
(-0.0018878 -4.61434e-05 -0.00114091)
(-3.66828e-05 -4.83598e-05 -2.06643e-05)
(-5.50809e-06 -4.9385e-06 -2.23078e-07)
(-6.58444e-07 -2.97126e-06 -1.78041e-09)
(2.02812e-07 -3.74272e-07 -6.02829e-11)
(3.52944e-05 -1.53631e-07 -2.28637e-11)
(0.00212571 -2.87703e-08 6.83673e-12)
(0.0886707 -6.23219e-09 1.8158e-11)
(-0.0018878 -4.61437e-05 -0.00114091)
(-3.66831e-05 -4.836e-05 -2.06635e-05)
(-5.50808e-06 -4.93839e-06 -2.23194e-07)
(-6.5844e-07 -2.97121e-06 -1.72755e-09)
(2.02799e-07 -3.74279e-07 -5.27173e-11)
(3.52944e-05 -1.53621e-07 1.62414e-12)
(0.00212571 -2.87762e-08 -8.98657e-12)
(0.0886707 -6.25902e-09 1.09018e-10)
(-0.0018878 -4.61438e-05 -0.00114091)
(-3.66828e-05 -4.83601e-05 -2.0663e-05)
(-5.50802e-06 -4.93862e-06 -2.23234e-07)
(-6.58431e-07 -2.97121e-06 -1.67875e-09)
(2.0276e-07 -3.74298e-07 1.69318e-10)
(3.52942e-05 -1.5362e-07 1.62698e-10)
(0.00212571 -2.87676e-08 6.94175e-11)
(0.0886707 -6.28001e-09 1.19147e-10)
(-0.0018878 -4.61443e-05 -0.0011409)
(-3.66829e-05 -4.83604e-05 -2.06635e-05)
(-5.50805e-06 -4.93868e-06 -2.23078e-07)
(-6.58477e-07 -2.97107e-06 -1.77133e-09)
(2.0296e-07 -3.74263e-07 -1.01196e-10)
(3.52943e-05 -1.53664e-07 -1.85669e-11)
(0.00212571 -2.8847e-08 1.2268e-12)
(0.0886707 -6.37139e-09 -1.77008e-11)
)
;
    }
}


// ************************************************************************* //
