/*--------------------------------*- C++ -*----------------------------------*\
| =========                 |                                                 |
| \\      /  F ield         | OpenFOAM: The Open Source CFD Toolbox           |
|  \\    /   O peration     | Version:  2306                                  |
|   \\  /    A nd           | Website:  www.openfoam.com                      |
|    \\/     M anipulation  |                                                 |
\*---------------------------------------------------------------------------*/
FoamFile
{
    version     2.0;
    format      ascii;
    arch        "LSB;label=32;scalar=64";
    class       volScalarField;
    location    "2";
    object      p;
}
// * * * * * * * * * * * * * * * * * * * * * * * * * * * * * * * * * * * * * //

dimensions      [0 2 -2 0 0 0 0];

internalField   nonuniform List<scalar> 
256
(
0.00113333
0.000559097
6.0746e-11
-0.000574346
0.000477009
0.000360087
0.000199262
8.20337e-05
0.000283631
0.000282141
0.000276799
0.000275268
0.000281765
0.000280512
0.00027839
0.000277137
0.000278245
0.000278958
0.000279918
0.000280628
0.000279213
0.000279323
0.000279472
0.000279578
0.000279314
0.000279372
0.000279449
0.0002795
0.000279416
0.000279444
0.000279476
0.000279497
0.00113337
0.000559111
6.58295e-08
-0.000574332
0.000477003
0.000360086
0.000199267
8.20521e-05
0.000283619
0.000282135
0.000276802
0.000275283
0.00028173
0.000280494
0.000278399
0.000277164
0.000278229
0.000278951
0.000279924
0.00028064
0.000279216
0.000279326
0.000279475
0.00027958
0.00027932
0.000279376
0.00027945
0.0002795
0.000279417
0.000279445
0.000279477
0.000279494
0.0011334
0.00055918
1.26837e-07
-0.000574269
0.000476983
0.000360077
0.000199275
8.20767e-05
0.00028361
0.000282132
0.000276812
0.000275302
0.000281699
0.000280483
0.000278412
0.000277192
0.000278212
0.000278941
0.000279925
0.000280649
0.000279215
0.000279326
0.000279475
0.000279582
0.000279324
0.000279378
0.00027945
0.000279499
0.000279416
0.000279444
0.000279474
0.00027949
0.00113341
0.000559216
1.75256e-07
-0.000574224
0.000476965
0.000360061
0.000199277
8.20923e-05
0.000283604
0.000282135
0.000276822
0.000275316
0.00028169
0.000280484
0.000278422
0.000277205
0.000278205
0.000278937
0.000279924
0.000280651
0.000279214
0.000279324
0.000279475
0.000279583
0.000279325
0.000279377
0.000279448
0.000279499
0.000279415
0.000279441
0.000279469
0.000279486
0.00113341
0.000559218
1.94944e-07
-0.000574213
0.000476954
0.000360057
0.000199281
8.20946e-05
0.000283606
0.000282143
0.000276832
0.000275321
0.000281702
0.000280495
0.000278424
0.000277199
0.000278209
0.000278939
0.000279922
0.000280647
0.000279213
0.000279323
0.000279474
0.000279585
0.000279325
0.000279376
0.000279448
0.0002795
0.000279415
0.000279439
0.000279466
0.000279485
0.0011334
0.000559217
1.79299e-07
-0.000574214
0.000476959
0.000360068
0.000199285
8.20856e-05
0.000283614
0.000282152
0.000276835
0.000275312
0.000281729
0.000280509
0.000278418
0.000277178
0.00027822
0.000278942
0.000279918
0.00028064
0.000279211
0.000279321
0.000279473
0.000279584
0.000279322
0.000279374
0.000279448
0.000279501
0.000279416
0.000279439
0.000279468
0.000279488
0.00113338
0.000559171
1.41208e-07
-0.000574254
0.000476983
0.000360082
0.000199279
8.20662e-05
0.000283626
0.000282156
0.000276824
0.000275292
0.00028176
0.00028052
0.000278406
0.000277149
0.000278236
0.000278947
0.000279912
0.00028063
0.00027921
0.000279318
0.000279469
0.000279582
0.000279318
0.000279372
0.000279447
0.000279502
0.000279419
0.000279442
0.000279472
0.000279495
0.00113335
0.000559106
7.16996e-08
-0.000574315
0.000477005
0.000360086
0.000199263
8.2044e-05
0.000283634
0.000282151
0.000276807
0.000275271
0.000281776
0.000280522
0.000278394
0.00027713
0.000278249
0.000278954
0.000279912
0.000280625
0.000279212
0.000279318
0.000279468
0.000279579
0.000279314
0.00027937
0.000279447
0.000279501
0.000279419
0.000279445
0.000279477
0.0002795
)
;

boundaryField
{
    movingWall
    {
        type            zeroGradient;
    }
    CPLReceiveMD
    {
        type            zeroGradient;
    }
    streamwiseIn
    {
        type            cyclic;
    }
    streamwiseOut
    {
        type            cyclic;
    }
    front
    {
        type            cyclic;
    }
    back
    {
        type            cyclic;
    }
    procBoundary0to1
    {
        type            processor;
        value           nonuniform List<scalar> 
64
(
-0.000574839
8.18378e-05
0.000275453
0.000277142
0.00028063
0.000279579
0.000279498
0.000279495
-0.000574833
8.18649e-05
0.000275475
0.000277172
0.000280637
0.000279578
0.000279497
0.000279492
-0.000574783
8.18968e-05
0.000275496
0.000277197
0.000280645
0.00027958
0.000279497
0.000279488
-0.000574761
8.19137e-05
0.000275504
0.000277205
0.000280648
0.000279583
0.000279498
0.000279485
-0.00057476
8.19124e-05
0.0002755
0.000277194
0.000280647
0.000279586
0.000279499
0.000279485
-0.000574769
8.18945e-05
0.000275484
0.000277171
0.000280643
0.000279589
0.000279501
0.000279488
-0.000574785
8.18634e-05
0.000275462
0.000277146
0.000280636
0.000279588
0.000279502
0.000279495
-0.000574825
8.18386e-05
0.000275447
0.000277132
0.000280629
0.000279583
0.000279501
0.000279498
)
;
    }
    procBoundary0to1throughstreamwiseIn
    {
        type            processorCyclic;
        value           nonuniform List<scalar> 
64
(
0.00113315
0.000476713
0.000283381
0.000281751
0.000278244
0.000279214
0.000279312
0.000279412
0.00113317
0.000476714
0.000283377
0.000281718
0.000278223
0.000279212
0.000279317
0.000279412
0.00113319
0.000476707
0.000283368
0.000281685
0.000278205
0.000279212
0.000279321
0.000279412
0.0011332
0.000476694
0.000283358
0.00028167
0.000278199
0.000279213
0.000279323
0.00027941
0.00113319
0.000476682
0.000283351
0.000281678
0.000278204
0.000279213
0.000279323
0.000279409
0.00113318
0.000476679
0.000283352
0.000281703
0.000278219
0.000279214
0.000279321
0.000279411
0.00113316
0.00047669
0.000283363
0.000281736
0.000278237
0.000279215
0.000279317
0.000279414
0.00113315
0.000476704
0.000283376
0.000281759
0.000278249
0.000279214
0.000279313
0.000279414
)
;
    }
}


// ************************************************************************* //
