/*--------------------------------*- C++ -*----------------------------------*\
| =========                 |                                                 |
| \\      /  F ield         | OpenFOAM: The Open Source CFD Toolbox           |
|  \\    /   O peration     | Version:  2306                                  |
|   \\  /    A nd           | Website:  www.openfoam.com                      |
|    \\/     M anipulation  |                                                 |
\*---------------------------------------------------------------------------*/
FoamFile
{
    version     2.0;
    format      ascii;
    arch        "LSB;label=32;scalar=64";
    class       surfaceScalarField;
    location    "2";
    object      phi;
}
// * * * * * * * * * * * * * * * * * * * * * * * * * * * * * * * * * * * * * //

dimensions      [0 3 -1 0 0 0 0];

oriented        oriented;

internalField   nonuniform List<scalar> 
640
(
-0.0553691
-0.000605324
0.00763861
-0.0551472
-0.000221908
0.0110071
-0.0553697
0.00022248
0.0110036
0.000605611
0.00761852
-0.002838
-0.000292573
-0.00014737
-0.0029507
-0.000109208
-6.70261e-05
-0.0028376
0.00010939
-6.7049e-05
0.000292659
-0.000147639
-0.000316014
-5.56057e-05
-1.89052e-05
-0.000403493
-2.17293e-05
-1.94178e-05
-0.000315887
2.17846e-05
-1.94195e-05
5.56301e-05
-1.89142e-05
-3.92127e-05
-1.60117e-05
-6.41934e-07
-5.45344e-05
-6.40734e-06
-7.156e-07
-3.91673e-05
6.41813e-06
-7.15967e-07
1.60162e-05
-6.42367e-07
9.37381e-05
-3.35263e-06
-1.44486e-08
8.86974e-05
-1.36636e-06
-1.65153e-08
9.37473e-05
1.36838e-06
-1.63558e-08
3.35343e-06
-1.36954e-08
0.00396031
-8.60401e-07
-4.82968e-10
0.0039593
-3.53998e-07
-7.01351e-10
0.00396032
3.51977e-07
3.13977e-10
8.59423e-07
3.25417e-10
0.112364
-1.76427e-07
-8.91178e-10
0.112363
-7.46237e-08
-1.61541e-09
0.112364
7.0964e-08
1.0581e-09
1.74919e-07
1.18934e-09
2.16085
-2.05188e-09
2.16085
-3.04403e-09
2.16085
2.09735e-09
2.24669e-09
-0.0553691
-0.000605325
0.00763861
-0.0551472
-0.000221904
0.0110071
-0.0553697
0.00022248
0.0110036
0.000605613
0.00761853
-0.002838
-0.000292575
-0.000147371
-0.0029507
-0.000109207
-6.70283e-05
-0.0028376
0.000109389
-6.70511e-05
0.000292661
-0.00014764
-0.000316015
-5.56054e-05
-1.89054e-05
-0.000403493
-2.17292e-05
-1.94171e-05
-0.000315888
2.17848e-05
-1.94198e-05
5.56301e-05
-1.89138e-05
-3.92121e-05
-1.60119e-05
-6.4271e-07
-5.45334e-05
-6.40756e-06
-7.16073e-07
-3.91665e-05
6.41816e-06
-7.16122e-07
1.60166e-05
-6.42672e-07
9.3738e-05
-3.35244e-06
-1.45555e-08
8.86971e-05
-1.36633e-06
-1.67901e-08
9.37468e-05
1.36857e-06
-1.65231e-08
3.3536e-06
-1.38285e-08
0.00396031
-8.60287e-07
-3.50193e-10
0.0039593
-3.53766e-07
-6.02189e-10
0.00396032
3.52343e-07
3.99895e-10
8.59464e-07
1.00549e-09
0.112364
-1.76199e-07
-9.33388e-10
0.112363
-7.43147e-08
-2.63322e-09
0.112364
7.10324e-08
7.42099e-10
1.75015e-07
2.3017e-09
2.16085
-3.02874e-09
2.16085
-5.07683e-09
2.16085
1.84979e-09
5.76097e-09
-0.0553691
-0.000605321
0.00763861
-0.0551472
-0.000221902
0.0110071
-0.0553697
0.000222485
0.0110036
0.000605616
0.00761853
-0.002838
-0.000292575
-0.000147369
-0.0029507
-0.000109207
-6.70287e-05
-0.0028376
0.000109391
-6.70495e-05
0.000292661
-0.000147641
-0.000316015
-5.56049e-05
-1.89055e-05
-0.000403494
-2.17287e-05
-1.94176e-05
-0.000315888
2.17851e-05
-1.94197e-05
5.56303e-05
-1.89135e-05
-3.92117e-05
-1.60122e-05
-6.42805e-07
-5.45328e-05
-6.40758e-06
-7.16077e-07
-3.91662e-05
6.41841e-06
-7.15985e-07
1.60169e-05
-6.4234e-07
9.37375e-05
-3.35247e-06
-1.47365e-08
8.86965e-05
-1.36651e-06
-1.69343e-08
9.37468e-05
1.36846e-06
-1.6839e-08
3.35351e-06
-1.43673e-08
0.00396032
-8.60279e-07
-5.28072e-10
0.0039593
-3.53953e-07
-3.62943e-10
0.00396032
3.52777e-07
7.33027e-11
8.59878e-07
4.26314e-10
0.112364
-1.76363e-07
-8.80327e-10
0.112363
-7.48751e-08
-1.90363e-09
0.112364
7.13389e-08
-1.22682e-10
1.7553e-07
2.40477e-09
2.16085
-1.41991e-09
2.16085
-2.67357e-09
2.16085
-2.03282e-09
5.82993e-09
-0.0553691
-0.000605319
0.00763861
-0.0551472
-0.000221898
0.0110071
-0.0553697
0.000222487
0.0110036
0.000605618
0.00761852
-0.002838
-0.000292575
-0.000147368
-0.0029507
-0.000109206
-6.7027e-05
-0.0028376
0.000109391
-6.70485e-05
0.000292662
-0.00014764
-0.000316016
-5.56046e-05
-1.89061e-05
-0.000403494
-2.17282e-05
-1.94179e-05
-0.000315889
2.17855e-05
-1.94195e-05
5.56303e-05
-1.89133e-05
-3.92118e-05
-1.60122e-05
-6.42299e-07
-5.45329e-05
-6.40751e-06
-7.15639e-07
-3.91663e-05
6.41862e-06
-7.15742e-07
1.60171e-05
-6.42333e-07
9.37373e-05
-3.35258e-06
-1.45642e-08
8.86965e-05
-1.36677e-06
-1.68674e-08
9.37468e-05
1.36825e-06
-1.67957e-08
3.35348e-06
-1.44723e-08
0.00396032
-8.60459e-07
-2.55135e-10
0.0039593
-3.54057e-07
-2.24866e-10
0.00396032
3.52623e-07
-3.27206e-10
8.60208e-07
-4.56738e-10
0.112364
-1.76613e-07
4.37618e-10
0.112363
-7.51362e-08
-3.72349e-10
0.112364
7.09581e-08
-3.5641e-10
1.75819e-07
5.28433e-10
2.16085
1.60641e-09
2.16085
-1.41733e-09
2.16085
-1.29822e-09
4.81624e-10
-0.0553691
-0.000605318
0.00763861
-0.0551472
-0.000221898
0.0110071
-0.0553697
0.000222488
0.0110036
0.000605618
0.00761852
-0.002838
-0.000292575
-0.000147365
-0.0029507
-0.000109206
-6.70234e-05
-0.0028376
0.000109391
-6.70464e-05
0.000292662
-0.000147637
-0.000316015
-5.56045e-05
-1.89065e-05
-0.000403493
-2.17281e-05
-1.94182e-05
-0.000315888
2.17855e-05
-1.94194e-05
5.56305e-05
-1.89129e-05
-3.9212e-05
-1.6012e-05
-6.41694e-07
-5.45331e-05
-6.40733e-06
-7.15289e-07
-3.91665e-05
6.41865e-06
-7.15523e-07
1.6017e-05
-6.42276e-07
9.37373e-05
-3.35257e-06
-1.42681e-08
8.86967e-05
-1.36688e-06
-1.67308e-08
9.3747e-05
1.36817e-06
-1.66606e-08
3.35349e-06
-1.45164e-08
0.00396032
-8.60366e-07
1.10027e-11
0.0039593
-3.54166e-07
-9.74863e-11
0.00396032
3.52561e-07
-7.17177e-10
8.60346e-07
-1.11328e-09
0.112364
-1.76323e-07
9.62987e-10
0.112363
-7.50651e-08
1.61916e-09
0.112364
7.11135e-08
-1.02017e-09
1.76178e-07
-1.43588e-09
2.16085
3.44546e-09
2.16085
1.10849e-09
2.16085
-5.45444e-10
-4.10126e-09
-0.0553691
-0.000605319
0.00763861
-0.0551472
-0.000221899
0.0110071
-0.0553697
0.000222488
0.0110036
0.000605618
0.00761852
-0.002838
-0.000292574
-0.000147362
-0.0029507
-0.000109207
-6.70211e-05
-0.0028376
0.000109391
-6.70447e-05
0.000292661
-0.000147635
-0.000316015
-5.56046e-05
-1.89067e-05
-0.000403493
-2.17283e-05
-1.94178e-05
-0.000315888
2.17854e-05
-1.94189e-05
5.56306e-05
-1.89124e-05
-3.92119e-05
-1.60117e-05
-6.41587e-07
-5.45333e-05
-6.40716e-06
-7.15145e-07
-3.91667e-05
6.4185e-06
-7.15165e-07
1.60167e-05
-6.41952e-07
9.37376e-05
-3.3526e-06
-1.35332e-08
8.8697e-05
-1.3669e-06
-1.64498e-08
9.37473e-05
1.3681e-06
-1.65084e-08
3.35346e-06
-1.41606e-08
0.00396032
-8.60263e-07
2.0239e-10
0.0039593
-3.5441e-07
1.32119e-10
0.00396032
3.52473e-07
-8.93827e-10
8.59998e-07
-1.13553e-09
0.112364
-1.76224e-07
9.38288e-10
0.112363
-7.52658e-08
2.38813e-09
0.112364
7.12657e-08
-8.83435e-10
1.75666e-07
-2.27743e-09
2.16085
2.43676e-09
2.16085
5.18704e-09
2.16085
-2.00701e-09
-5.56558e-09
-0.0553691
-0.00060532
0.00763861
-0.0551472
-0.000221901
0.0110071
-0.0553697
0.000222485
0.0110036
0.000605617
0.00761852
-0.002838
-0.000292574
-0.000147361
-0.0029507
-0.000109207
-6.70209e-05
-0.0028376
0.00010939
-6.70435e-05
0.000292661
-0.000147635
-0.000316015
-5.56051e-05
-1.89064e-05
-0.000403493
-2.17288e-05
-1.94176e-05
-0.000315888
2.17853e-05
-1.94189e-05
5.56305e-05
-1.89122e-05
-3.92121e-05
-1.60114e-05
-6.4155e-07
-5.45338e-05
-6.40705e-06
-7.15181e-07
-3.91671e-05
6.41838e-06
-7.1496e-07
1.60164e-05
-6.41333e-07
9.37379e-05
-3.35266e-06
-1.37526e-08
8.86975e-05
-1.36678e-06
-1.63196e-08
9.37476e-05
1.36806e-06
-1.62844e-08
3.35355e-06
-1.39648e-08
0.00396031
-8.60141e-07
-3.3023e-10
0.0039593
-3.53961e-07
-9.34064e-11
0.00396032
3.5206e-07
-7.72169e-10
8.59916e-07
-8.40478e-10
0.112364
-1.76071e-07
6.33053e-10
0.112363
-7.46502e-08
1.76234e-09
0.112364
7.07688e-08
-9.5679e-11
1.75324e-07
-2.12697e-09
2.16085
-8.11967e-11
2.16085
4.05109e-09
2.16085
-3.90518e-11
-3.88382e-09
-0.0553691
-0.000605324
-0.0551472
-0.000221904
-0.0553697
0.000222481
0.000605613
-0.002838
-0.000292574
-0.0029507
-0.000109206
-0.0028376
0.000109389
0.00029266
-0.000316015
-5.56056e-05
-0.000403493
-2.17291e-05
-0.000315888
2.1785e-05
5.56302e-05
-3.92129e-05
-1.60113e-05
-5.45346e-05
-6.40716e-06
-3.91676e-05
6.41823e-06
1.60163e-05
9.37382e-05
-3.35243e-06
8.86976e-05
-1.36661e-06
9.37475e-05
1.36824e-06
3.35358e-06
0.00396031
-8.60211e-07
0.0039593
-3.53808e-07
0.00396032
3.52289e-07
8.59616e-07
0.112364
-1.76338e-07
0.112363
-7.4465e-08
0.112364
7.11031e-08
1.7504e-07
2.16085
2.16085
2.16085
)
;

boundaryField
{
    movingWall
    {
        type            calculated;
        value           uniform 0;
    }
    CPLReceiveMD
    {
        type            calculated;
        value           uniform 0;
    }
    streamwiseIn
    {
        type            cyclic;
        value           nonuniform List<scalar> 0();
    }
    streamwiseOut
    {
        type            cyclic;
        value           nonuniform List<scalar> 0();
    }
    front
    {
        type            cyclic;
        value           nonuniform List<scalar> 
32
(
0.00763861
-0.000147365
-1.8906e-05
-6.41956e-07
-1.42915e-08
-5.97946e-10
-4.54487e-10
-1.33821e-09
0.0110071
-6.70238e-05
-1.94171e-05
-7.15358e-07
-1.62671e-08
-5.74772e-10
3.93646e-10
6.15744e-10
0.0110036
-6.70455e-05
-1.94195e-05
-7.15293e-07
-1.61809e-08
-4.65351e-10
5.04628e-10
1.91548e-09
0.00761852
-0.000147637
-1.89134e-05
-6.42133e-07
-1.41679e-08
-3.90952e-10
-4.40798e-10
-1.31544e-09
)
;
    }
    back
    {
        type            cyclic;
        value           nonuniform List<scalar> 
32
(
-0.00763861
0.000147365
1.8906e-05
6.41956e-07
1.42915e-08
5.97946e-10
4.54487e-10
1.33821e-09
-0.0110071
6.70238e-05
1.94171e-05
7.15358e-07
1.62671e-08
5.74772e-10
-3.93646e-10
-6.15744e-10
-0.0110036
6.70455e-05
1.94195e-05
7.15293e-07
1.61809e-08
4.65351e-10
-5.04628e-10
-1.91548e-09
-0.00761852
0.000147637
1.89134e-05
6.42133e-07
1.41679e-08
3.90952e-10
4.40798e-10
1.31544e-09
)
;
    }
    procBoundary0to1
    {
        type            processor;
        value           nonuniform List<scalar> 
64
(
-0.0559753
-0.00252465
-7.88573e-05
4.46772e-07
0.00010641
0.00396281
0.112364
2.16085
-0.0559753
-0.00252465
-7.8858e-05
4.47283e-07
0.00010641
0.00396281
0.112364
2.16085
-0.0559753
-0.00252465
-7.88574e-05
4.46872e-07
0.000106411
0.00396281
0.112364
2.16085
-0.0559753
-0.00252465
-7.88573e-05
4.46822e-07
0.000106411
0.00396281
0.112364
2.16085
-0.0559753
-0.00252465
-7.88575e-05
4.46859e-07
0.000106411
0.00396281
0.112364
2.16085
-0.0559753
-0.00252465
-7.88582e-05
4.46835e-07
0.00010641
0.00396281
0.112364
2.16085
-0.0559753
-0.00252465
-7.88575e-05
4.46416e-07
0.00010641
0.00396281
0.112364
2.16085
-0.0559753
-0.00252465
-7.8857e-05
4.47085e-07
0.00010641
0.00396281
0.112364
2.16085
)
;
    }
    procBoundary0to1throughstreamwiseIn
    {
        type            processorCyclic;
        value           nonuniform List<scalar> 
64
(
0.0559744
0.00252525
7.90459e-05
-3.8124e-07
-0.000106397
-0.0039628
-0.112364
-2.16085
0.0559744
0.00252525
7.9045e-05
-3.80624e-07
-0.000106397
-0.00396281
-0.112364
-2.16085
0.0559744
0.00252525
7.90459e-05
-3.80988e-07
-0.000106397
-0.00396281
-0.112364
-2.16085
0.0559744
0.00252526
7.90461e-05
-3.8104e-07
-0.000106397
-0.00396281
-0.112364
-2.16085
0.0559744
0.00252526
7.90457e-05
-3.81078e-07
-0.000106397
-0.00396281
-0.112364
-2.16085
0.0559744
0.00252525
7.9045e-05
-3.8116e-07
-0.000106397
-0.00396281
-0.112364
-2.16085
0.0559744
0.00252525
7.90456e-05
-3.81633e-07
-0.000106396
-0.00396281
-0.112364
-2.16085
0.0559744
0.00252525
7.90457e-05
-3.81e-07
-0.000106397
-0.0039628
-0.112364
-2.16085
)
;
    }
}


// ************************************************************************* //
