/*--------------------------------*- C++ -*----------------------------------*\
| =========                 |                                                 |
| \\      /  F ield         | OpenFOAM: The Open Source CFD Toolbox           |
|  \\    /   O peration     | Version:  2306                                  |
|   \\  /    A nd           | Website:  www.openfoam.com                      |
|    \\/     M anipulation  |                                                 |
\*---------------------------------------------------------------------------*/
FoamFile
{
    version     2.0;
    format      ascii;
    arch        "LSB;label=32;scalar=64";
    class       surfaceScalarField;
    location    "2";
    object      phi_0;
}
// * * * * * * * * * * * * * * * * * * * * * * * * * * * * * * * * * * * * * //

dimensions      [0 3 -1 0 0 0 0];

oriented        oriented;

internalField   nonuniform List<scalar> 
640
(
-0.0528207
-0.000643894
0.0119862
-0.0525884
-0.00023228
0.0150033
-0.0528212
0.000232774
0.0150008
0.000644146
0.0119694
-0.00261042
-0.000294856
-0.000182586
-0.00273353
-0.00010917
-0.000129876
-0.00261007
0.00010932
-0.000129886
0.000294927
-0.00018278
-0.000306622
-5.53282e-05
-1.80438e-05
-0.000394207
-2.15841e-05
-1.91167e-05
-0.000306517
2.16326e-05
-1.91184e-05
5.535e-05
-1.80492e-05
-3.94244e-05
-1.56452e-05
-5.49917e-07
-5.47559e-05
-6.25235e-06
-6.23404e-07
-3.93844e-05
6.26196e-06
-6.24334e-07
1.56495e-05
-5.51721e-07
7.54267e-05
-3.26303e-06
-1.21425e-08
7.05038e-05
-1.32914e-06
-1.34613e-08
7.54352e-05
1.33054e-06
-1.2899e-08
3.26358e-06
-9.69451e-09
0.00343076
-8.35726e-07
-4.91994e-10
0.00342977
-3.4353e-07
-7.87544e-10
0.00343076
3.41772e-07
3.19326e-10
8.34627e-07
6.05764e-10
0.102297
-1.70114e-07
-8.74614e-10
0.102296
-7.17628e-08
-1.49227e-09
0.102297
6.87858e-08
8.00139e-10
1.68937e-07
9.17661e-10
2.0679
-1.89131e-09
2.0679
-2.81184e-09
2.0679
2.04647e-09
2.1893e-09
-0.0528207
-0.000643893
0.0119862
-0.0525884
-0.000232279
0.0150033
-0.0528212
0.000232779
0.0150008
0.000644146
0.0119694
-0.00261042
-0.000294855
-0.000182587
-0.00273353
-0.00010917
-0.000129877
-0.00261007
0.000109322
-0.000129886
0.000294928
-0.000182782
-0.000306622
-5.53286e-05
-1.80443e-05
-0.000394207
-2.15843e-05
-1.91176e-05
-0.000306517
2.16331e-05
-1.91193e-05
5.53506e-05
-1.80502e-05
-3.94245e-05
-1.5645e-05
-5.50324e-07
-5.47559e-05
-6.25224e-06
-6.23991e-07
-3.93844e-05
6.26204e-06
-6.24715e-07
1.56493e-05
-5.52043e-07
7.54262e-05
-3.26296e-06
-1.2515e-08
7.05031e-05
-1.32916e-06
-1.35017e-08
7.54344e-05
1.33073e-06
-1.28185e-08
3.2638e-06
-1.05131e-08
0.00343076
-8.35667e-07
-7.22622e-10
0.00342977
-3.43399e-07
-8.06592e-10
0.00343076
3.42166e-07
2.34489e-10
8.34955e-07
7.81484e-10
0.102297
-1.69904e-07
-1.17047e-09
0.102296
-7.14936e-08
-2.62907e-09
0.102297
6.88423e-08
5.05431e-10
1.69104e-07
1.86197e-09
2.0679
-2.86962e-09
2.0679
-4.78732e-09
2.0679
2.025e-09
5.59404e-09
-0.0528207
-0.00064389
0.0119862
-0.0525884
-0.000232275
0.0150033
-0.0528212
0.000232781
0.0150008
0.000644151
0.0119694
-0.00261042
-0.000294854
-0.000182585
-0.00273353
-0.000109168
-0.000129876
-0.00261007
0.000109324
-0.000129886
0.00029493
-0.000182782
-0.000306623
-5.53289e-05
-1.8044e-05
-0.000394206
-2.15839e-05
-1.91175e-05
-0.000306516
2.16337e-05
-1.91194e-05
5.53514e-05
-1.80505e-05
-3.94245e-05
-1.56449e-05
-5.51099e-07
-5.4756e-05
-6.25219e-06
-6.24197e-07
-3.93846e-05
6.26206e-06
-6.24429e-07
1.56494e-05
-5.51607e-07
7.54257e-05
-3.26297e-06
-1.1678e-08
7.05028e-05
-1.32923e-06
-1.3498e-08
7.54345e-05
1.33076e-06
-1.32341e-08
3.26385e-06
-1.10244e-08
0.00343076
-8.35752e-07
-5.26509e-10
0.00342977
-3.43607e-07
-4.5175e-10
0.00343076
3.42618e-07
-1.49904e-11
8.35421e-07
3.85017e-10
0.102297
-1.70232e-07
-1.079e-09
0.102296
-7.21571e-08
-1.94303e-09
0.102297
6.90609e-08
-2.18398e-10
1.69525e-07
2.19073e-09
2.0679
-1.31433e-09
2.0679
-2.45674e-09
2.0679
-1.79143e-09
5.67353e-09
-0.0528207
-0.000643889
0.0119862
-0.0525884
-0.000232273
0.0150033
-0.0528212
0.000232784
0.0150008
0.000644152
0.0119694
-0.00261042
-0.000294854
-0.000182585
-0.00273353
-0.000109166
-0.000129875
-0.00261007
0.000109325
-0.000129885
0.00029493
-0.000182781
-0.000306623
-5.53288e-05
-1.80434e-05
-0.000394206
-2.15838e-05
-1.91168e-05
-0.000306516
2.1634e-05
-1.91187e-05
5.53515e-05
-1.80499e-05
-3.94245e-05
-1.56449e-05
-5.51627e-07
-5.4756e-05
-6.2522e-06
-6.24255e-07
-3.93845e-05
6.26206e-06
-6.23994e-07
1.56494e-05
-5.50881e-07
7.5426e-05
-3.26299e-06
-1.13036e-08
7.05031e-05
-1.32935e-06
-1.33876e-08
7.54347e-05
1.33069e-06
-1.34173e-08
3.26393e-06
-1.14523e-08
0.00343076
-8.35867e-07
-6.68089e-11
0.00342977
-3.43634e-07
-1.47004e-10
0.00343076
3.42517e-07
-2.92895e-10
8.35741e-07
-3.29659e-10
0.102297
-1.70582e-07
4.15693e-10
0.102296
-7.24702e-08
-3.94246e-10
0.102297
6.86288e-08
-2.9557e-10
1.69737e-07
6.03157e-10
2.0679
1.49312e-09
2.0679
-1.35736e-09
2.0679
-1.23084e-09
4.486e-10
-0.0528207
-0.000643888
0.0119862
-0.0525884
-0.000232272
0.0150033
-0.0528212
0.000232784
0.0150008
0.000644153
0.0119694
-0.00261042
-0.000294854
-0.000182584
-0.00273353
-0.000109166
-0.000129874
-0.00261007
0.000109326
-0.000129884
0.00029493
-0.000182779
-0.000306623
-5.53285e-05
-1.80427e-05
-0.000394206
-2.15837e-05
-1.91159e-05
-0.000306516
2.16339e-05
-1.91175e-05
5.53513e-05
-1.80489e-05
-3.94244e-05
-1.56449e-05
-5.51782e-07
-5.47559e-05
-6.25221e-06
-6.2421e-07
-3.93845e-05
6.26211e-06
-6.23629e-07
1.56494e-05
-5.50353e-07
7.54261e-05
-3.26297e-06
-1.10467e-08
7.05032e-05
-1.32941e-06
-1.32998e-08
7.54348e-05
1.33067e-06
-1.35144e-08
3.26399e-06
-1.183e-08
0.00343076
-8.35714e-07
2.30455e-10
0.00342977
-3.43683e-07
1.18962e-10
0.00343076
3.4246e-07
-6.62417e-10
8.35813e-07
-9.71531e-10
0.102297
-1.70288e-07
1.08131e-09
0.102296
-7.23835e-08
1.60105e-09
0.102297
6.87864e-08
-8.74456e-10
1.7008e-07
-1.14183e-09
2.0679
3.19675e-09
2.0679
9.23366e-10
2.0679
-6.39087e-10
-4.03105e-09
-0.0528207
-0.000643889
0.0119862
-0.0525884
-0.000232273
0.0150033
-0.0528212
0.000232785
0.0150008
0.000644152
0.0119694
-0.00261042
-0.000294854
-0.000182583
-0.00273353
-0.000109166
-0.000129873
-0.00261007
0.000109326
-0.000129882
0.00029493
-0.000182778
-0.000306623
-5.53282e-05
-1.80419e-05
-0.000394207
-2.15836e-05
-1.91146e-05
-0.000306516
2.16336e-05
-1.9116e-05
5.53511e-05
-1.80478e-05
-3.94243e-05
-1.5645e-05
-5.51463e-07
-5.47558e-05
-6.25223e-06
-6.24072e-07
-3.93845e-05
6.26212e-06
-6.23403e-07
1.56495e-05
-5.50048e-07
7.5426e-05
-3.26303e-06
-1.05185e-08
7.05031e-05
-1.32944e-06
-1.31751e-08
7.54346e-05
1.3306e-06
-1.35322e-08
3.26393e-06
-1.21636e-08
0.00343076
-8.35547e-07
1.96739e-10
0.00342977
-3.43867e-07
2.6764e-10
0.00343076
3.42367e-07
-8.72448e-10
8.35403e-07
-1.23913e-09
0.102297
-1.70096e-07
1.01794e-09
0.102296
-7.25092e-08
2.33249e-09
0.102297
6.8984e-08
-7.13707e-10
1.69628e-07
-1.97916e-09
2.0679
2.22564e-09
2.0679
4.80029e-09
2.0679
-2.13027e-09
-5.52029e-09
-0.0528207
-0.00064389
0.0119862
-0.0525884
-0.000232274
0.0150033
-0.0528212
0.000232782
0.0150008
0.000644151
0.0119694
-0.00261042
-0.000294854
-0.000182582
-0.00273353
-0.000109167
-0.000129872
-0.00261007
0.000109324
-0.000129883
0.00029493
-0.000182778
-0.000306623
-5.53278e-05
-1.80419e-05
-0.000394207
-2.15835e-05
-1.9114e-05
-0.000306517
2.16334e-05
-1.91156e-05
5.53506e-05
-1.80473e-05
-3.94241e-05
-1.5645e-05
-5.50831e-07
-5.47558e-05
-6.25223e-06
-6.2366e-07
-3.93846e-05
6.2621e-06
-6.23228e-07
1.56496e-05
-5.50083e-07
7.54262e-05
-3.26311e-06
-1.01833e-08
7.05033e-05
-1.32936e-06
-1.31883e-08
7.54347e-05
1.3305e-06
-1.32995e-08
3.26391e-06
-1.13042e-08
0.00343076
-8.35422e-07
3.7483e-11
0.00342977
-3.43466e-07
7.08808e-11
0.00343076
3.41886e-07
-7.01895e-10
8.35172e-07
-5.7928e-10
0.102297
-1.69825e-07
8.08878e-10
0.102296
-7.18477e-08
1.68865e-09
0.102297
6.85376e-08
-3.86648e-11
1.69304e-07
-1.85538e-09
2.0679
-1.13164e-10
2.0679
3.72148e-09
2.0679
-1.32238e-10
-3.82715e-09
-0.0528207
-0.000643892
-0.0525884
-0.000232279
-0.0528212
0.000232779
0.000644146
-0.00261042
-0.000294855
-0.00273353
-0.000109169
-0.00261007
0.000109323
0.000294928
-0.000306623
-5.53278e-05
-0.000394207
-2.15837e-05
-0.000306517
2.16329e-05
5.535e-05
-3.94242e-05
-1.56452e-05
-5.47559e-05
-6.25228e-06
-3.93846e-05
6.26214e-06
1.56495e-05
7.54269e-05
-3.26289e-06
7.05038e-05
-1.32925e-06
7.5435e-05
1.33056e-06
3.26375e-06
0.00343076
-8.35369e-07
0.00342977
-3.43364e-07
0.00343076
3.42011e-07
8.34902e-07
0.102297
-1.69938e-07
0.102296
-7.16664e-08
0.102297
6.88505e-08
1.69095e-07
2.0679
2.0679
2.0679
)
;

boundaryField
{
    movingWall
    {
        type            calculated;
        value           uniform 0;
    }
    CPLReceiveMD
    {
        type            calculated;
        value           uniform 0;
    }
    streamwiseIn
    {
        type            cyclic;
        value           nonuniform List<scalar> 0();
    }
    streamwiseOut
    {
        type            cyclic;
        value           nonuniform List<scalar> 0();
    }
    front
    {
        type            cyclic;
        value           nonuniform List<scalar> 
32
(
0.0119862
-0.000182584
-1.80424e-05
-5.50414e-07
-1.14092e-08
-6.09274e-10
-2.86363e-10
-1.31868e-09
0.0150033
-0.000129874
-1.91153e-05
-6.2327e-07
-1.3111e-08
-2.83295e-10
5.57934e-10
5.91173e-10
0.0150008
-0.000129883
-1.91161e-05
-6.23633e-07
-1.29168e-08
-9.91713e-11
6.24564e-10
1.77077e-09
0.0119694
-0.000182779
-1.80481e-05
-5.51232e-07
-1.09145e-08
-3.26671e-10
-4.28513e-10
-1.3316e-09
)
;
    }
    back
    {
        type            cyclic;
        value           nonuniform List<scalar> 
32
(
-0.0119862
0.000182584
1.80424e-05
5.50414e-07
1.14092e-08
6.09274e-10
2.86363e-10
1.31868e-09
-0.0150033
0.000129874
1.91153e-05
6.2327e-07
1.3111e-08
2.83295e-10
-5.57934e-10
-5.91173e-10
-0.0150008
0.000129883
1.91161e-05
6.23633e-07
1.29168e-08
9.91713e-11
-6.24564e-10
-1.77077e-09
-0.0119694
0.000182779
1.80481e-05
5.51232e-07
1.09145e-08
3.26671e-10
4.28513e-10
1.3316e-09
)
;
    }
    procBoundary0to1
    {
        type            processor;
        value           nonuniform List<scalar> 
64
(
-0.0534654
-0.00226085
-6.69387e-05
3.16771e-07
8.78198e-05
0.00343319
0.102297
2.0679
-0.0534654
-0.00226085
-6.6939e-05
3.17144e-07
8.78207e-05
0.00343319
0.102297
2.0679
-0.0534654
-0.00226085
-6.69379e-05
3.16914e-07
8.78205e-05
0.00343319
0.102297
2.0679
-0.0534654
-0.00226085
-6.69376e-05
3.16858e-07
8.78206e-05
0.00343319
0.102297
2.0679
-0.0534654
-0.00226085
-6.69376e-05
3.16796e-07
8.78206e-05
0.00343319
0.102297
2.0679
-0.0534654
-0.00226085
-6.6938e-05
3.16754e-07
8.78205e-05
0.00343319
0.102297
2.0679
-0.0534654
-0.00226085
-6.69378e-05
3.16511e-07
8.78195e-05
0.00343319
0.102297
2.0679
-0.0534653
-0.00226085
-6.6938e-05
3.17133e-07
8.78204e-05
0.00343319
0.102297
2.0679
)
;
    }
    procBoundary0to1throughstreamwiseIn
    {
        type            processorCyclic;
        value           nonuniform List<scalar> 
64
(
0.0534646
0.00226138
6.70957e-05
-2.59031e-07
-8.78082e-05
-0.00343318
-0.102297
-2.0679
0.0534646
0.00226138
6.70956e-05
-2.58585e-07
-8.78079e-05
-0.00343318
-0.102297
-2.0679
0.0534646
0.00226139
6.70968e-05
-2.58696e-07
-8.78085e-05
-0.00343319
-0.102297
-2.0679
0.0534646
0.00226139
6.70972e-05
-2.58802e-07
-8.78084e-05
-0.00343319
-0.102297
-2.0679
0.0534646
0.00226139
6.70971e-05
-2.58963e-07
-8.78083e-05
-0.00343319
-0.102297
-2.0679
0.0534646
0.00226139
6.70966e-05
-2.59136e-07
-8.78085e-05
-0.00343319
-0.102297
-2.0679
0.0534646
0.00226139
6.70967e-05
-2.59276e-07
-8.78085e-05
-0.00343318
-0.102297
-2.0679
0.0534646
0.00226139
6.70963e-05
-2.58713e-07
-8.78081e-05
-0.00343318
-0.102297
-2.0679
)
;
    }
}


// ************************************************************************* //
