/*--------------------------------*- C++ -*----------------------------------*\
| =========                 |                                                 |
| \\      /  F ield         | OpenFOAM: The Open Source CFD Toolbox           |
|  \\    /   O peration     | Version:  2306                                  |
|   \\  /    A nd           | Website:  www.openfoam.com                      |
|    \\/     M anipulation  |                                                 |
\*---------------------------------------------------------------------------*/
FoamFile
{
    version     2.0;
    format      ascii;
    arch        "LSB;label=32;scalar=64";
    class       volVectorField;
    location    "2";
    object      U;
}
// * * * * * * * * * * * * * * * * * * * * * * * * * * * * * * * * * * * * * //

dimensions      [0 1 -1 0 0 0 0];

internalField   nonuniform List<vector> 
256
(
(-0.00458707 -0.000118873 0.000641831)
(-0.00464089 -4.38496e-05 0.000924864)
(-0.00464083 4.40575e-05 0.000924573)
(-0.0045872 0.00011897 0.000640143)
(-0.000224758 -0.000129424 -1.23823e-05)
(-0.000247858 -4.78937e-05 -5.63147e-06)
(-0.000247839 4.79422e-05 -5.63352e-06)
(-0.00022472 0.000129451 -1.24053e-05)
(-1.79299e-05 -1.66452e-05 -1.58859e-06)
(-3.31606e-05 -6.39625e-06 -1.63153e-06)
(-3.31548e-05 6.42201e-06 -1.63163e-06)
(-1.79156e-05 1.66564e-05 -1.58918e-06)
(-1.88318e-06 -6.96347e-06 -5.41e-08)
(-4.49262e-06 -2.77663e-06 -6.02664e-08)
(-4.49046e-06 2.7807e-06 -6.01107e-08)
(-1.87792e-06 6.96517e-06 -5.37897e-08)
(8.34156e-06 -1.12885e-06 -1.21423e-09)
(7.51016e-06 -4.56063e-07 -1.35581e-09)
(7.51042e-06 4.57242e-07 -1.33418e-09)
(8.34261e-06 1.12928e-06 -1.19735e-09)
(0.000332856 -3.55363e-07 -4.25457e-11)
(0.000332692 -1.45702e-07 -6.91577e-12)
(0.000332692 1.455e-07 5.62824e-11)
(0.000332856 3.55296e-07 -5.78318e-12)
(0.00944132 -6.8149e-08 -8.39976e-11)
(0.00944128 -2.82323e-08 -2.43843e-11)
(0.00944128 2.79607e-08 1.01006e-10)
(0.00944132 6.81696e-08 6.90535e-11)
(0.181564 -1.51112e-08 -1.24442e-10)
(0.181564 -6.89377e-09 -5.30482e-11)
(0.181564 5.11398e-09 3.22124e-11)
(0.181564 1.38729e-08 -3.60887e-11)
(-0.00458707 -0.000118873 0.000641832)
(-0.00464089 -4.38488e-05 0.000924864)
(-0.00464083 4.40572e-05 0.000924574)
(-0.0045872 0.000118971 0.000640143)
(-0.000224758 -0.000129425 -1.23827e-05)
(-0.000247858 -4.78929e-05 -5.63188e-06)
(-0.000247839 4.79419e-05 -5.63398e-06)
(-0.00022472 0.000129451 -1.24053e-05)
(-1.79298e-05 -1.66452e-05 -1.5885e-06)
(-3.31606e-05 -6.39629e-06 -1.63156e-06)
(-3.31548e-05 6.42214e-06 -1.63169e-06)
(-1.79156e-05 1.66565e-05 -1.58915e-06)
(-1.88319e-06 -6.96347e-06 -5.42525e-08)
(-4.49237e-06 -2.77664e-06 -6.0249e-08)
(-4.49031e-06 2.78068e-06 -6.0042e-08)
(-1.87781e-06 6.96521e-06 -5.38029e-08)
(8.34165e-06 -1.12874e-06 -1.14532e-09)
(7.51012e-06 -4.56036e-07 -1.41233e-09)
(7.51052e-06 4.57246e-07 -1.39955e-09)
(8.34255e-06 1.12929e-06 -1.11675e-09)
(0.000332856 -3.55352e-07 2.69968e-11)
(0.000332692 -1.4572e-07 -6.70961e-11)
(0.000332692 1.45559e-07 3.21826e-11)
(0.000332856 3.55322e-07 1.10756e-10)
(0.00944133 -6.81213e-08 4.63764e-11)
(0.00944128 -2.81464e-08 -1.86965e-10)
(0.00944128 2.80527e-08 1.49657e-10)
(0.00944133 6.81985e-08 1.84812e-10)
(0.181564 -1.50567e-08 -1.10628e-10)
(0.181564 -6.77431e-09 -3.00533e-10)
(0.181564 5.20898e-09 4.39276e-10)
(0.181564 1.39281e-08 4.77457e-10)
(-0.00458707 -0.000118873 0.000641831)
(-0.00464089 -4.38487e-05 0.000924865)
(-0.00464083 4.40582e-05 0.000924573)
(-0.0045872 0.000118971 0.000640144)
(-0.000224758 -0.000129424 -1.23828e-05)
(-0.000247858 -4.78929e-05 -5.63238e-06)
(-0.000247839 4.79428e-05 -5.63396e-06)
(-0.00022472 0.000129451 -1.24053e-05)
(-1.79299e-05 -1.66451e-05 -1.58857e-06)
(-3.31607e-05 -6.39615e-06 -1.63157e-06)
(-3.31548e-05 6.42228e-06 -1.63178e-06)
(-1.79156e-05 1.66566e-05 -1.58915e-06)
(-1.88308e-06 -6.96348e-06 -5.40758e-08)
(-4.49222e-06 -2.77663e-06 -6.0163e-08)
(-4.49018e-06 2.78069e-06 -6.00819e-08)
(-1.87779e-06 6.9652e-06 -5.38615e-08)
(8.34164e-06 -1.12872e-06 -1.23043e-09)
(7.51012e-06 -4.56031e-07 -1.41014e-09)
(7.51053e-06 4.57232e-07 -1.42635e-09)
(8.3426e-06 1.12927e-06 -1.22179e-09)
(0.000332856 -3.55361e-07 -7.54704e-11)
(0.000332692 -1.45759e-07 -5.46314e-11)
(0.000332692 1.45566e-07 -1.67553e-12)
(0.000332857 3.55342e-07 5.47263e-11)
(0.00944133 -6.81538e-08 -1.62183e-10)
(0.00944128 -2.82616e-08 -2.73189e-10)
(0.00944128 2.81972e-08 -4.93619e-11)
(0.00944133 6.83585e-08 1.62101e-10)
(0.181564 -1.5052e-08 -3.11372e-10)
(0.181564 -6.8197e-09 -4.51409e-10)
(0.181564 5.39057e-09 -8.49691e-11)
(0.181564 1.41096e-08 5.80317e-10)
(-0.00458707 -0.000118872 0.000641832)
(-0.00464089 -4.38481e-05 0.000924864)
(-0.00464083 4.40584e-05 0.000924574)
(-0.0045872 0.000118972 0.000640144)
(-0.000224758 -0.000129424 -1.23827e-05)
(-0.000247858 -4.78923e-05 -5.63218e-06)
(-0.000247838 4.79429e-05 -5.63379e-06)
(-0.000224719 0.000129452 -1.24053e-05)
(-1.79299e-05 -1.6645e-05 -1.58857e-06)
(-3.31606e-05 -6.39594e-06 -1.63156e-06)
(-3.31548e-05 6.42243e-06 -1.6317e-06)
(-1.79156e-05 1.66567e-05 -1.58913e-06)
(-1.88306e-06 -6.96348e-06 -5.39363e-08)
(-4.49219e-06 -2.77663e-06 -6.01097e-08)
(-4.49017e-06 2.7807e-06 -6.01434e-08)
(-1.8778e-06 6.9652e-06 -5.39956e-08)
(8.34164e-06 -1.12871e-06 -1.21743e-09)
(7.51013e-06 -4.56031e-07 -1.39942e-09)
(7.51053e-06 4.57238e-07 -1.4046e-09)
(8.34261e-06 1.12929e-06 -1.21598e-09)
(0.000332856 -3.55398e-07 -2.76703e-11)
(0.000332692 -1.45812e-07 -1.8283e-11)
(0.000332692 1.4556e-07 6.08369e-12)
(0.000332857 3.55396e-07 2.4595e-11)
(0.00944133 -6.82309e-08 -4.41919e-11)
(0.00944128 -2.83159e-08 -1.39843e-10)
(0.00944128 2.80962e-08 -7.02101e-12)
(0.00944133 6.84348e-08 1.84384e-10)
(0.181564 -1.50626e-08 -5.6819e-12)
(0.181564 -6.84164e-09 -1.13372e-10)
(0.181564 5.30669e-09 -4.05233e-10)
(0.181564 1.41804e-08 2.92148e-10)
(-0.00458707 -0.000118872 0.000641831)
(-0.00464089 -4.38481e-05 0.000924864)
(-0.00464083 4.40585e-05 0.000924573)
(-0.0045872 0.000118972 0.000640144)
(-0.000224758 -0.000129424 -1.23826e-05)
(-0.000247858 -4.78923e-05 -5.6317e-06)
(-0.000247839 4.7943e-05 -5.63355e-06)
(-0.00022472 0.000129452 -1.24054e-05)
(-1.79298e-05 -1.6645e-05 -1.5886e-06)
(-3.31606e-05 -6.3959e-06 -1.63155e-06)
(-3.31547e-05 6.42242e-06 -1.63163e-06)
(-1.79156e-05 1.66567e-05 -1.58916e-06)
(-1.88307e-06 -6.96348e-06 -5.38466e-08)
(-4.49224e-06 -2.77663e-06 -6.00658e-08)
(-4.49023e-06 2.78069e-06 -6.01661e-08)
(-1.87782e-06 6.96518e-06 -5.40562e-08)
(8.34163e-06 -1.12872e-06 -1.21129e-09)
(7.51014e-06 -4.56033e-07 -1.40313e-09)
(7.51052e-06 4.57249e-07 -1.3966e-09)
(8.34263e-06 1.1293e-06 -1.21138e-09)
(0.000332856 -3.55368e-07 -5.09804e-12)
(0.000332692 -1.45808e-07 1.24722e-12)
(0.000332692 1.45571e-07 -3.59309e-11)
(0.000332857 3.55421e-07 -6.44836e-11)
(0.00944133 -6.81847e-08 1.38148e-10)
(0.00944128 -2.83455e-08 8.69806e-11)
(0.00944128 2.80819e-08 -3.87919e-11)
(0.00944133 6.84877e-08 -8.12924e-11)
(0.181564 -1.50249e-08 2.27103e-10)
(0.181564 -6.86545e-09 -1.89882e-10)
(0.181564 5.26961e-09 1.30124e-10)
(0.181564 1.42112e-08 -2.47382e-10)
(-0.00458707 -0.000118873 0.000641831)
(-0.00464089 -4.38482e-05 0.000924864)
(-0.00464083 4.40585e-05 0.000924572)
(-0.0045872 0.000118972 0.000640143)
(-0.000224758 -0.000129424 -1.23822e-05)
(-0.000247858 -4.78924e-05 -5.63146e-06)
(-0.000247839 4.79431e-05 -5.63355e-06)
(-0.00022472 0.000129452 -1.24052e-05)
(-1.79298e-05 -1.66449e-05 -1.58861e-06)
(-3.31605e-05 -6.39593e-06 -1.63158e-06)
(-3.31548e-05 6.42239e-06 -1.63169e-06)
(-1.79157e-05 1.66567e-05 -1.58922e-06)
(-1.88309e-06 -6.96347e-06 -5.37426e-08)
(-4.49233e-06 -2.77664e-06 -6.00114e-08)
(-4.49033e-06 2.78067e-06 -6.01478e-08)
(-1.87786e-06 6.96518e-06 -5.40721e-08)
(8.34163e-06 -1.12874e-06 -1.20079e-09)
(7.51014e-06 -4.56043e-07 -1.41464e-09)
(7.51052e-06 4.57248e-07 -1.39924e-09)
(8.34264e-06 1.12931e-06 -1.21572e-09)
(0.000332856 -3.5534e-07 -2.3505e-11)
(0.000332692 -1.45776e-07 -2.37074e-11)
(0.000332692 1.45545e-07 -9.68355e-11)
(0.000332857 3.55373e-07 -1.2832e-10)
(0.00944133 -6.81366e-08 1.82552e-11)
(0.00944128 -2.84316e-08 2.20358e-10)
(0.00944128 2.80877e-08 -1.24963e-10)
(0.00944133 6.83685e-08 -1.73499e-10)
(0.181564 -1.50248e-08 3.43743e-10)
(0.181564 -6.96094e-09 3.39954e-10)
(0.181564 5.26627e-09 -1.82637e-10)
(0.181564 1.40829e-08 -4.47849e-10)
(-0.00458707 -0.000118873 0.000641831)
(-0.00464089 -4.38486e-05 0.000924863)
(-0.00464083 4.40581e-05 0.000924573)
(-0.0045872 0.000118971 0.000640143)
(-0.000224758 -0.000129424 -1.23819e-05)
(-0.000247858 -4.78927e-05 -5.63142e-06)
(-0.000247839 4.79428e-05 -5.63345e-06)
(-0.00022472 0.000129451 -1.24048e-05)
(-1.79298e-05 -1.6645e-05 -1.58851e-06)
(-3.31606e-05 -6.39603e-06 -1.63159e-06)
(-3.31548e-05 6.42232e-06 -1.63179e-06)
(-1.79157e-05 1.66566e-05 -1.58921e-06)
(-1.88312e-06 -6.96347e-06 -5.37468e-08)
(-4.49246e-06 -2.77664e-06 -5.99935e-08)
(-4.49046e-06 2.78068e-06 -6.01512e-08)
(-1.87794e-06 6.96518e-06 -5.4121e-08)
(8.34156e-06 -1.1288e-06 -1.11047e-09)
(7.51013e-06 -4.56074e-07 -1.39363e-09)
(7.51051e-06 4.5723e-07 -1.40605e-09)
(8.34264e-06 1.12931e-06 -1.13703e-09)
(0.000332856 -3.55358e-07 4.18412e-11)
(0.000332692 -1.4572e-07 -3.82043e-11)
(0.000332692 1.45521e-07 -1.17189e-10)
(0.000332857 3.55362e-07 -6.57515e-11)
(0.00944133 -6.80494e-08 1.06883e-10)
(0.00944128 -2.82393e-08 2.09145e-10)
(0.00944128 2.79471e-08 -1.42997e-11)
(0.00944133 6.83228e-08 -1.51013e-10)
(0.181564 -1.49575e-08 2.08697e-10)
(0.181564 -6.85017e-09 6.94321e-10)
(0.181564 5.11804e-09 -7.7386e-11)
(0.181564 1.40152e-08 -2.9686e-10)
(-0.00458707 -0.000118873 0.00064183)
(-0.00464089 -4.38488e-05 0.000924865)
(-0.00464083 4.40573e-05 0.000924572)
(-0.0045872 0.000118971 0.000640144)
(-0.000224758 -0.000129424 -1.2382e-05)
(-0.000247858 -4.78928e-05 -5.63146e-06)
(-0.000247839 4.7942e-05 -5.63316e-06)
(-0.00022472 0.000129451 -1.2405e-05)
(-1.79298e-05 -1.66451e-05 -1.58858e-06)
(-3.31607e-05 -6.39612e-06 -1.63155e-06)
(-3.31548e-05 6.42218e-06 -1.63176e-06)
(-1.79157e-05 1.66564e-05 -1.5892e-06)
(-1.88324e-06 -6.96347e-06 -5.38377e-08)
(-4.49255e-06 -2.77664e-06 -6.01186e-08)
(-4.49062e-06 2.78068e-06 -6.01767e-08)
(-1.87792e-06 6.96521e-06 -5.39578e-08)
(8.34161e-06 -1.12879e-06 -1.20288e-09)
(7.51003e-06 -4.56096e-07 -1.33632e-09)
(7.51056e-06 4.57222e-07 -1.35978e-09)
(8.34257e-06 1.12935e-06 -1.21909e-09)
(0.000332856 -3.55331e-07 -5.70944e-11)
(0.000332692 -1.457e-07 1.05822e-11)
(0.000332692 1.4554e-07 -3.99434e-11)
(0.000332856 3.55293e-07 -8.83232e-11)
(0.00944132 -6.80902e-08 -2.15902e-11)
(0.00944128 -2.81716e-08 1.05003e-10)
(0.00944128 2.80433e-08 -1.91206e-11)
(0.00944132 6.82404e-08 -1.96849e-10)
(0.181564 -1.50433e-08 -2.27447e-10)
(0.181564 -6.81046e-09 7.39339e-11)
(0.181564 5.1658e-09 1.48576e-10)
(0.181564 1.39564e-08 -3.2177e-10)
)
;

boundaryField
{
    movingWall
    {
        type            fixedValue;
        value           uniform (1 0 0);
    }
    CPLReceiveMD
    {
        type            fixedValue;
        value           uniform (-0.0283471 0 -0.0434892);
    }
    streamwiseIn
    {
        type            cyclic;
    }
    streamwiseOut
    {
        type            cyclic;
    }
    front
    {
        type            cyclic;
    }
    back
    {
        type            cyclic;
    }
    procBoundary0to1
    {
        type            processor;
        value           nonuniform List<vector> 
64
(
(-0.00481983 0.000118835 -0.000668833)
(-0.000199255 0.000129402 -5.15559e-05)
(4.73083e-06 1.6665e-05 -1.97106e-06)
(1.95599e-06 6.97252e-06 -4.82355e-08)
(9.53737e-06 1.12923e-06 -8.63251e-10)
(0.000333091 3.54954e-07 3.4666e-12)
(0.00944139 6.83657e-08 -8.68977e-11)
(0.181564 1.43358e-08 -1.27736e-10)
(-0.00481983 0.000118835 -0.000668832)
(-0.000199255 0.000129403 -5.1556e-05)
(4.73082e-06 1.66651e-05 -1.97113e-06)
(1.95599e-06 6.97249e-06 -4.81519e-08)
(9.5373e-06 1.12917e-06 -9.32048e-10)
(0.000333091 3.54997e-07 1.06815e-11)
(0.00944139 6.84076e-08 4.13675e-13)
(0.181564 1.43866e-08 -1.35086e-10)
(-0.00481983 0.000118836 -0.000668832)
(-0.000199255 0.000129403 -5.1556e-05)
(4.73084e-06 1.66651e-05 -1.97116e-06)
(1.95589e-06 6.9725e-06 -4.83056e-08)
(9.53733e-06 1.12916e-06 -8.76642e-10)
(0.000333091 3.54974e-07 2.33281e-11)
(0.00944139 6.83514e-08 -1.57703e-10)
(0.181564 1.43823e-08 -3.01931e-10)
(-0.00481983 0.000118836 -0.000668832)
(-0.000199255 0.000129403 -5.15559e-05)
(4.73081e-06 1.66652e-05 -1.97118e-06)
(1.95587e-06 6.9725e-06 -4.84122e-08)
(9.53733e-06 1.12917e-06 -8.73522e-10)
(0.000333091 3.54936e-07 3.05621e-11)
(0.00944139 6.82618e-08 -2.87727e-11)
(0.181564 1.43656e-08 4.06617e-12)
(-0.00481983 0.000118836 -0.000668832)
(-0.000199255 0.000129403 -5.1556e-05)
(4.73076e-06 1.66652e-05 -1.97118e-06)
(1.95588e-06 6.97252e-06 -4.84672e-08)
(9.53736e-06 1.12919e-06 -8.54762e-10)
(0.000333091 3.5496e-07 1.8333e-11)
(0.00944139 6.83045e-08 1.47507e-10)
(0.181564 1.44004e-08 2.31004e-10)
(-0.00481983 0.000118836 -0.000668833)
(-0.000199255 0.000129403 -5.15561e-05)
(4.73072e-06 1.66651e-05 -1.97117e-06)
(1.9559e-06 6.97252e-06 -4.8507e-08)
(9.53737e-06 1.12922e-06 -8.63124e-10)
(0.000333091 3.54981e-07 -2.01678e-11)
(0.00944139 6.83559e-08 4.3066e-11)
(0.181564 1.44066e-08 3.49024e-10)
(-0.00481983 0.000118836 -0.000668832)
(-0.000199255 0.000129403 -5.15559e-05)
(4.73074e-06 1.66651e-05 -1.97121e-06)
(1.95593e-06 6.97253e-06 -4.84467e-08)
(9.5374e-06 1.12924e-06 -9.31577e-10)
(0.000333091 3.54969e-07 -9.64731e-11)
(0.00944139 6.84521e-08 9.6474e-11)
(0.181564 1.44777e-08 1.98657e-10)
(-0.00481983 0.000118835 -0.000668832)
(-0.000199255 0.000129402 -5.15558e-05)
(4.73076e-06 1.6665e-05 -1.97112e-06)
(1.95606e-06 6.97252e-06 -4.83839e-08)
(9.53732e-06 1.12921e-06 -8.57537e-10)
(0.000333091 3.55035e-07 -7.24212e-11)
(0.00944139 6.84632e-08 -1.53268e-11)
(0.181564 1.44113e-08 -2.1801e-10)
)
;
    }
    procBoundary0to1throughstreamwiseIn
    {
        type            processorCyclic;
        value           nonuniform List<vector> 
64
(
(-0.0048197 -0.000118939 -0.000667124)
(-0.000199291 -0.000129427 -5.15159e-05)
(4.71669e-06 -1.66771e-05 -1.97012e-06)
(1.95069e-06 -6.97426e-06 -4.85413e-08)
(9.53625e-06 -1.12978e-06 -8.77031e-10)
(0.00033309 -3.55019e-07 7.58871e-12)
(0.00944139 -6.80107e-08 8.17178e-11)
(0.181564 -1.47078e-08 -2.98918e-11)
(-0.0048197 -0.000118938 -0.000667124)
(-0.000199291 -0.000129426 -5.15161e-05)
(4.71674e-06 -1.66771e-05 -1.97018e-06)
(1.95057e-06 -6.97429e-06 -4.85688e-08)
(9.53635e-06 -1.12977e-06 -9.58765e-10)
(0.00033309 -3.54942e-07 -1.90413e-11)
(0.00944139 -6.7931e-08 1.6607e-10)
(0.181564 -1.46316e-08 4.71955e-10)
(-0.0048197 -0.000118938 -0.000667123)
(-0.000199291 -0.000129426 -5.15164e-05)
(4.71669e-06 -1.66772e-05 -1.97017e-06)
(1.95053e-06 -6.9743e-06 -4.85086e-08)
(9.53633e-06 -1.1297e-06 -8.69386e-10)
(0.00033309 -3.54923e-07 4.01513e-11)
(0.00944139 -6.77605e-08 1.86048e-10)
(0.181564 -1.44451e-08 5.84204e-10)
(-0.0048197 -0.000118938 -0.000667124)
(-0.000199291 -0.000129426 -5.15163e-05)
(4.71666e-06 -1.6677e-05 -1.97025e-06)
(1.95054e-06 -6.9743e-06 -4.83456e-08)
(9.53632e-06 -1.12969e-06 -8.72268e-10)
(0.000333091 -3.54873e-07 1.32903e-11)
(0.00944139 -6.76753e-08 1.91466e-10)
(0.181564 -1.43695e-08 2.91859e-10)
(-0.0048197 -0.000118938 -0.000667124)
(-0.000199291 -0.000129426 -5.15159e-05)
(4.71672e-06 -1.6677e-05 -1.97027e-06)
(1.95057e-06 -6.97427e-06 -4.82595e-08)
(9.53631e-06 -1.12969e-06 -8.84948e-10)
(0.000333091 -3.54854e-07 -4.05106e-11)
(0.00944139 -6.76209e-08 -7.03914e-11)
(0.181564 -1.43391e-08 -2.41805e-10)
(-0.0048197 -0.000118938 -0.000667124)
(-0.000199291 -0.000129426 -5.15158e-05)
(4.71678e-06 -1.6677e-05 -1.97022e-06)
(1.95061e-06 -6.97427e-06 -4.81918e-08)
(9.5363e-06 -1.12973e-06 -8.50387e-10)
(0.000333091 -3.54899e-07 -4.30801e-11)
(0.00944139 -6.77485e-08 -1.67464e-10)
(0.181564 -1.44739e-08 -4.40437e-10)
(-0.0048197 -0.000118938 -0.000667125)
(-0.000199291 -0.000129426 -5.15159e-05)
(4.71677e-06 -1.6677e-05 -1.97021e-06)
(1.95071e-06 -6.97425e-06 -4.80771e-08)
(9.53626e-06 -1.12976e-06 -8.93846e-10)
(0.00033309 -3.54931e-07 -5.85603e-11)
(0.00944139 -6.78208e-08 -1.97993e-10)
(0.181564 -1.45521e-08 -3.12513e-10)
(-0.0048197 -0.000118938 -0.000667124)
(-0.000199291 -0.000129426 -5.15158e-05)
(4.71676e-06 -1.6677e-05 -1.97012e-06)
(1.95069e-06 -6.97427e-06 -4.82803e-08)
(9.53631e-06 -1.12985e-06 -8.43792e-10)
(0.00033309 -3.54972e-07 -2.4998e-12)
(0.00944139 -6.78954e-08 -1.90691e-10)
(0.181564 -1.46146e-08 -3.23383e-10)
)
;
    }
}


// ************************************************************************* //
