/*--------------------------------*- C++ -*----------------------------------*\
| =========                 |                                                 |
| \\      /  F ield         | OpenFOAM: The Open Source CFD Toolbox           |
|  \\    /   O peration     | Version:  2306                                  |
|   \\  /    A nd           | Website:  www.openfoam.com                      |
|    \\/     M anipulation  |                                                 |
\*---------------------------------------------------------------------------*/
FoamFile
{
    version     2.0;
    format      ascii;
    arch        "LSB;label=32;scalar=64";
    class       volVectorField;
    location    "2";
    object      U_0;
}
// * * * * * * * * * * * * * * * * * * * * * * * * * * * * * * * * * * * * * //

dimensions      [0 1 -1 0 0 0 0];

internalField   nonuniform List<vector> 
256
(
(-0.00435785 -0.000122687 0.00100714)
(-0.00442683 -4.46671e-05 0.00126065)
(-0.00442677 4.48438e-05 0.00126043)
(-0.00435797 0.000122771 0.00100572)
(-0.000204133 -0.000133589 -1.53414e-05)
(-0.000229112 -4.88289e-05 -1.09124e-05)
(-0.000229096 4.88692e-05 -1.09135e-05)
(-0.0002041 0.000133611 -1.53581e-05)
(-1.69858e-05 -1.69994e-05 -1.51606e-06)
(-3.22476e-05 -6.52232e-06 -1.60618e-06)
(-3.22429e-05 6.54489e-06 -1.60625e-06)
(-1.6974e-05 1.70094e-05 -1.51655e-06)
(-1.8866e-06 -6.96607e-06 -4.62507e-08)
(-4.48549e-06 -2.77404e-06 -5.24347e-08)
(-4.4837e-06 2.77682e-06 -5.24238e-08)
(-1.882e-06 6.96703e-06 -4.62741e-08)
(6.79414e-06 -1.12503e-06 -8.68982e-10)
(5.98356e-06 -4.54381e-07 -1.09959e-09)
(5.98394e-06 4.55768e-07 -1.12889e-09)
(6.795e-06 1.12586e-06 -9.47463e-10)
(0.000288358 -3.46404e-07 -4.22935e-11)
(0.000288199 -1.41803e-07 -6.56326e-11)
(0.000288199 1.42051e-07 -4.39102e-12)
(0.000288359 3.46744e-07 2.45434e-12)
(0.00859545 -6.64097e-08 -1.08092e-10)
(0.00859541 -2.76116e-08 -6.8138e-11)
(0.00859541 2.69177e-08 6.06817e-11)
(0.00859545 6.58958e-08 6.41732e-11)
(0.173755 -1.50125e-08 -9.92639e-11)
(0.173755 -6.95561e-09 -3.27675e-11)
(0.173755 4.72917e-09 4.36727e-11)
(0.173755 1.31971e-08 -2.41227e-12)
(-0.00435785 -0.000122687 0.00100714)
(-0.00442683 -4.46669e-05 0.00126065)
(-0.00442677 4.48449e-05 0.00126043)
(-0.00435797 0.000122771 0.00100572)
(-0.000204133 -0.000133588 -1.53417e-05)
(-0.000229112 -4.8829e-05 -1.09129e-05)
(-0.000229096 4.88703e-05 -1.09137e-05)
(-0.0002041 0.000133611 -1.53584e-05)
(-1.69858e-05 -1.69994e-05 -1.51613e-06)
(-3.22476e-05 -6.52232e-06 -1.60634e-06)
(-3.22428e-05 6.54498e-06 -1.60652e-06)
(-1.69741e-05 1.70095e-05 -1.51661e-06)
(-1.88664e-06 -6.96606e-06 -4.62829e-08)
(-4.48548e-06 -2.774e-06 -5.24193e-08)
(-4.48372e-06 2.77686e-06 -5.2414e-08)
(-1.882e-06 6.967e-06 -4.63298e-08)
(6.79411e-06 -1.12503e-06 -8.32834e-10)
(5.98355e-06 -4.54384e-07 -1.03147e-09)
(5.98385e-06 4.55784e-07 -1.06822e-09)
(6.79501e-06 1.12587e-06 -9.5846e-10)
(0.000288358 -3.46413e-07 -3.65875e-11)
(0.000288199 -1.41849e-07 -4.59645e-11)
(0.000288199 1.42097e-07 4.80496e-11)
(0.000288359 3.46805e-07 4.22246e-11)
(0.00859545 -6.63469e-08 -3.02956e-11)
(0.00859541 -2.75166e-08 -2.02311e-10)
(0.00859541 2.702e-08 1.29365e-10)
(0.00859545 6.59671e-08 1.38146e-10)
(0.173755 -1.49252e-08 -8.50093e-11)
(0.173755 -6.81525e-09 -2.48279e-10)
(0.173755 4.84018e-09 4.75187e-10)
(0.173755 1.32758e-08 5.00404e-10)
(-0.00435785 -0.000122686 0.00100714)
(-0.00442683 -4.46658e-05 0.00126064)
(-0.00442677 4.48457e-05 0.00126044)
(-0.00435797 0.000122772 0.00100572)
(-0.000204133 -0.000133588 -1.53417e-05)
(-0.000229112 -4.8828e-05 -1.0913e-05)
(-0.000229096 4.88708e-05 -1.09137e-05)
(-0.0002041 0.000133612 -1.5358e-05)
(-1.69858e-05 -1.69993e-05 -1.5162e-06)
(-3.22477e-05 -6.52214e-06 -1.6064e-06)
(-3.22428e-05 6.54512e-06 -1.60654e-06)
(-1.6974e-05 1.70096e-05 -1.51667e-06)
(-1.88663e-06 -6.96601e-06 -4.62864e-08)
(-4.48548e-06 -2.77395e-06 -5.24302e-08)
(-4.48374e-06 2.77691e-06 -5.2439e-08)
(-1.88202e-06 6.96705e-06 -4.6317e-08)
(6.79413e-06 -1.12504e-06 -9.16558e-10)
(5.98351e-06 -4.54391e-07 -1.09813e-09)
(5.98386e-06 4.55789e-07 -1.10536e-09)
(6.795e-06 1.1259e-06 -9.05181e-10)
(0.000288358 -3.46453e-07 -5.23327e-11)
(0.000288199 -1.41905e-07 -4.12756e-11)
(0.000288199 1.42088e-07 1.0005e-11)
(0.000288359 3.46806e-07 7.4562e-11)
(0.00859546 -6.63756e-08 -1.69799e-10)
(0.00859541 -2.76263e-08 -2.68025e-10)
(0.00859541 2.71647e-08 -5.4746e-11)
(0.00859546 6.61247e-08 1.41433e-10)
(0.173755 -1.49039e-08 -2.85495e-10)
(0.173755 -6.84888e-09 -4.16732e-10)
(0.173755 5.03e-09 -5.29238e-11)
(0.173755 1.34659e-08 5.82811e-10)
(-0.00435785 -0.000122686 0.00100714)
(-0.00442683 -4.46652e-05 0.00126065)
(-0.00442677 4.48464e-05 0.00126044)
(-0.00435797 0.000122772 0.00100572)
(-0.000204133 -0.000133588 -1.53418e-05)
(-0.000229112 -4.88276e-05 -1.09128e-05)
(-0.000229096 4.88713e-05 -1.09135e-05)
(-0.0002041 0.000133612 -1.53579e-05)
(-1.69859e-05 -1.69992e-05 -1.51614e-06)
(-3.22477e-05 -6.52206e-06 -1.60634e-06)
(-3.22428e-05 6.5452e-06 -1.60647e-06)
(-1.69739e-05 1.70096e-05 -1.51662e-06)
(-1.88665e-06 -6.96599e-06 -4.63123e-08)
(-4.48549e-06 -2.77392e-06 -5.24501e-08)
(-4.48373e-06 2.77694e-06 -5.24567e-08)
(-1.88202e-06 6.96707e-06 -4.63278e-08)
(6.79414e-06 -1.12505e-06 -9.81961e-10)
(5.98354e-06 -4.54389e-07 -1.13106e-09)
(5.98389e-06 4.55801e-07 -1.11439e-09)
(6.79501e-06 1.12591e-06 -9.36164e-10)
(0.000288359 -3.46485e-07 -2.01839e-11)
(0.000288199 -1.41952e-07 -2.39016e-11)
(0.000288199 1.4208e-07 -8.33551e-12)
(0.000288359 3.46847e-07 1.43443e-11)
(0.00859546 -6.64473e-08 -4.90347e-11)
(0.00859541 -2.76711e-08 -1.40807e-10)
(0.00859541 2.7072e-08 -1.01473e-11)
(0.00859546 6.62001e-08 1.65856e-10)
(0.173755 -1.49105e-08 -1.10105e-11)
(0.173755 -6.86262e-09 -9.93314e-11)
(0.173755 4.95441e-09 -3.83855e-10)
(0.173755 1.35393e-08 2.82537e-10)
(-0.00435785 -0.000122686 0.00100714)
(-0.00442683 -4.46651e-05 0.00126065)
(-0.00442677 4.48465e-05 0.00126043)
(-0.00435797 0.000122772 0.00100572)
(-0.000204133 -0.000133588 -1.53417e-05)
(-0.000229112 -4.88276e-05 -1.09127e-05)
(-0.000229096 4.88713e-05 -1.09135e-05)
(-0.0002041 0.000133612 -1.53581e-05)
(-1.69859e-05 -1.69992e-05 -1.51607e-06)
(-3.22477e-05 -6.52203e-06 -1.60624e-06)
(-3.22428e-05 6.54523e-06 -1.6064e-06)
(-1.69739e-05 1.70097e-05 -1.51662e-06)
(-1.88666e-06 -6.96599e-06 -4.63238e-08)
(-4.48548e-06 -2.77391e-06 -5.244e-08)
(-4.48374e-06 2.77696e-06 -5.24508e-08)
(-1.882e-06 6.96708e-06 -4.63144e-08)
(6.79414e-06 -1.12503e-06 -9.59376e-10)
(5.98355e-06 -4.54382e-07 -1.12872e-09)
(5.98389e-06 4.55805e-07 -1.13102e-09)
(6.79502e-06 1.12592e-06 -9.74216e-10)
(0.000288359 -3.46457e-07 8.99491e-12)
(0.000288199 -1.4195e-07 -7.37675e-12)
(0.000288199 1.42088e-07 -5.43401e-11)
(0.000288359 3.46867e-07 -7.95455e-11)
(0.00859546 -6.64047e-08 1.32811e-10)
(0.00859541 -2.76959e-08 7.96626e-11)
(0.00859541 2.70638e-08 -4.00536e-11)
(0.00859546 6.62548e-08 -7.64163e-11)
(0.173755 -1.48739e-08 2.09247e-10)
(0.173755 -6.88321e-09 -1.92426e-10)
(0.173755 4.92117e-09 1.2199e-10)
(0.173755 1.35707e-08 -2.38946e-10)
(-0.00435785 -0.000122686 0.00100714)
(-0.00442683 -4.46653e-05 0.00126064)
(-0.00442677 4.48464e-05 0.00126043)
(-0.00435797 0.000122772 0.00100572)
(-0.000204133 -0.000133588 -1.53416e-05)
(-0.000229112 -4.88277e-05 -1.09127e-05)
(-0.000229096 4.88714e-05 -1.09135e-05)
(-0.0002041 0.000133612 -1.5358e-05)
(-1.69859e-05 -1.69992e-05 -1.516e-06)
(-3.22477e-05 -6.52205e-06 -1.60618e-06)
(-3.22428e-05 6.54521e-06 -1.60628e-06)
(-1.69739e-05 1.70097e-05 -1.51657e-06)
(-1.88664e-06 -6.966e-06 -4.6291e-08)
(-4.48548e-06 -2.77392e-06 -5.24031e-08)
(-4.48373e-06 2.77695e-06 -5.2403e-08)
(-1.88199e-06 6.96708e-06 -4.62718e-08)
(6.79414e-06 -1.12502e-06 -9.54669e-10)
(5.98354e-06 -4.54377e-07 -1.12625e-09)
(5.98387e-06 4.55797e-07 -1.1208e-09)
(6.79502e-06 1.1259e-06 -9.54328e-10)
(0.000288359 -3.46429e-07 2.84117e-11)
(0.000288199 -1.41918e-07 7.07186e-12)
(0.000288199 1.42069e-07 -7.08239e-11)
(0.000288359 3.4683e-07 -9.06246e-11)
(0.00859546 -6.63646e-08 5.20584e-11)
(0.00859541 -2.77797e-08 2.28592e-10)
(0.00859541 2.70716e-08 -1.04772e-10)
(0.00859546 6.61416e-08 -1.34638e-10)
(0.173755 -1.48803e-08 3.20418e-10)
(0.173755 -6.98095e-09 3.10169e-10)
(0.173755 4.91394e-09 -2.02801e-10)
(0.173755 1.34415e-08 -4.53025e-10)
(-0.00435785 -0.000122686 0.00100714)
(-0.00442683 -4.46657e-05 0.00126065)
(-0.00442677 4.48457e-05 0.00126043)
(-0.00435797 0.000122772 0.00100572)
(-0.000204133 -0.000133588 -1.53416e-05)
(-0.000229112 -4.88279e-05 -1.09126e-05)
(-0.000229096 4.88708e-05 -1.09132e-05)
(-0.0002041 0.000133612 -1.53577e-05)
(-1.69859e-05 -1.69993e-05 -1.51592e-06)
(-3.22477e-05 -6.52209e-06 -1.60606e-06)
(-3.22428e-05 6.54517e-06 -1.60622e-06)
(-1.6974e-05 1.70096e-05 -1.51639e-06)
(-1.88661e-06 -6.96602e-06 -4.62731e-08)
(-4.48545e-06 -2.77394e-06 -5.23754e-08)
(-4.48373e-06 2.77692e-06 -5.23846e-08)
(-1.88202e-06 6.96707e-06 -4.62763e-08)
(6.79415e-06 -1.12501e-06 -1.02122e-09)
(5.98355e-06 -4.54379e-07 -1.12591e-09)
(5.98388e-06 4.55777e-07 -1.08745e-09)
(6.79496e-06 1.12588e-06 -9.40143e-10)
(0.000288358 -3.46433e-07 2.5905e-11)
(0.000288199 -1.41863e-07 4.09485e-11)
(0.000288199 1.42046e-07 -2.46164e-11)
(0.000288359 3.46819e-07 -5.72108e-11)
(0.00859545 -6.63006e-08 1.44289e-10)
(0.00859541 -2.76123e-08 2.55491e-10)
(0.00859541 2.69159e-08 3.31082e-11)
(0.00859545 6.60729e-08 -1.29981e-10)
(0.173755 -1.48359e-08 1.75503e-10)
(0.173755 -6.89017e-09 6.41913e-10)
(0.173755 4.75252e-09 -1.12751e-10)
(0.173755 1.33538e-08 -3.41462e-10)
(-0.00435785 -0.000122687 0.00100714)
(-0.00442683 -4.46669e-05 0.00126065)
(-0.00442677 4.4845e-05 0.00126044)
(-0.00435796 0.000122771 0.00100572)
(-0.000204133 -0.000133588 -1.53414e-05)
(-0.000229112 -4.88288e-05 -1.09124e-05)
(-0.000229096 4.88704e-05 -1.09131e-05)
(-0.0002041 0.000133611 -1.53576e-05)
(-1.69858e-05 -1.69993e-05 -1.51598e-06)
(-3.22477e-05 -6.5222e-06 -1.60602e-06)
(-3.22428e-05 6.54498e-06 -1.60614e-06)
(-1.6974e-05 1.70095e-05 -1.51643e-06)
(-1.88661e-06 -6.96608e-06 -4.62478e-08)
(-4.48545e-06 -2.77399e-06 -5.24078e-08)
(-4.48376e-06 2.7769e-06 -5.24245e-08)
(-1.88199e-06 6.96701e-06 -4.62524e-08)
(6.79416e-06 -1.12501e-06 -9.96674e-10)
(5.98363e-06 -4.54372e-07 -1.16356e-09)
(5.98387e-06 4.55779e-07 -1.14931e-09)
(6.795e-06 1.12587e-06 -9.18051e-10)
(0.000288358 -3.46348e-07 -3.13665e-11)
(0.000288199 -1.41822e-07 -1.05422e-11)
(0.000288199 1.42066e-07 -4.22328e-11)
(0.000288359 3.46777e-07 -2.56844e-11)
(0.00859545 -6.63282e-08 2.64812e-11)
(0.00859541 -2.75719e-08 1.13517e-10)
(0.00859541 2.69794e-08 -1.54546e-11)
(0.00859545 6.59905e-08 -1.70156e-10)
(0.173755 -1.49382e-08 -2.24407e-10)
(0.173755 -6.88079e-09 3.74289e-11)
(0.173755 4.7742e-09 1.11457e-10)
(0.173755 1.32801e-08 -3.29924e-10)
)
;

boundaryField
{
    movingWall
    {
        type            fixedValue;
        value           uniform (1 0 0);
    }
    CPLReceiveMD
    {
        type            fixedValue;
        value           uniform (-0.0262482 0 -0.0154438);
    }
    streamwiseIn
    {
        type            cyclic;
    }
    streamwiseOut
    {
        type            cyclic;
    }
    front
    {
        type            cyclic;
    }
    back
    {
        type            cyclic;
    }
    procBoundary0to1
    {
        type            processor;
        value           nonuniform List<vector> 
64
(
(-0.00462733 0.000122641 -0.000570079)
(-0.000175492 0.000133563 -4.98121e-05)
(5.7859e-06 1.7023e-05 -1.73687e-06)
(1.93832e-06 6.97396e-06 -3.90111e-08)
(7.96036e-06 1.12576e-06 -6.70572e-10)
(0.000288586 3.46369e-07 -1.12238e-11)
(0.00859551 6.60944e-08 -1.00844e-10)
(0.173755 1.36058e-08 -9.14411e-11)
(-0.00462733 0.000122641 -0.00057008)
(-0.000175492 0.000133564 -4.98122e-05)
(5.78584e-06 1.70231e-05 -1.737e-06)
(1.93835e-06 6.974e-06 -3.90121e-08)
(7.96041e-06 1.12577e-06 -6.44035e-10)
(0.000288586 3.46381e-07 3.58011e-11)
(0.00859552 6.61317e-08 -9.37885e-12)
(0.173755 1.36727e-08 -7.58967e-11)
(-0.00462733 0.000122642 -0.000570078)
(-0.000175492 0.000133564 -4.9812e-05)
(5.78589e-06 1.70232e-05 -1.73692e-06)
(1.93834e-06 6.974e-06 -3.90367e-08)
(7.96039e-06 1.12578e-06 -6.58356e-10)
(0.000288586 3.46363e-07 -9.19809e-12)
(0.00859552 6.60971e-08 -1.77697e-10)
(0.173755 1.3686e-08 -2.80234e-10)
(-0.00462733 0.000122642 -0.000570079)
(-0.000175492 0.000133564 -4.98118e-05)
(5.78593e-06 1.70231e-05 -1.73693e-06)
(1.93835e-06 6.97401e-06 -3.90163e-08)
(7.96038e-06 1.12579e-06 -6.32616e-10)
(0.000288586 3.46317e-07 2.00552e-11)
(0.00859552 6.60134e-08 -3.69546e-11)
(0.173755 1.36742e-08 -2.93107e-12)
(-0.00462733 0.000122642 -0.000570079)
(-0.000175492 0.000133564 -4.9812e-05)
(5.78594e-06 1.70232e-05 -1.73696e-06)
(1.93836e-06 6.97402e-06 -3.90061e-08)
(7.9604e-06 1.12579e-06 -6.6013e-10)
(0.000288586 3.46342e-07 3.40212e-14)
(0.00859552 6.60574e-08 1.46451e-10)
(0.173755 1.37078e-08 2.16011e-10)
(-0.00462733 0.000122642 -0.000570079)
(-0.000175492 0.000133564 -4.9812e-05)
(5.78594e-06 1.70232e-05 -1.73691e-06)
(1.93835e-06 6.97403e-06 -3.90038e-08)
(7.96041e-06 1.12579e-06 -7.07188e-10)
(0.000288586 3.46374e-07 -4.82031e-11)
(0.00859552 6.61082e-08 4.291e-11)
(0.173755 1.37077e-08 3.06418e-10)
(-0.00462733 0.000122642 -0.000570079)
(-0.000175492 0.000133564 -4.98117e-05)
(5.78597e-06 1.70232e-05 -1.73684e-06)
(1.93832e-06 6.97401e-06 -3.89586e-08)
(7.96035e-06 1.12578e-06 -6.22346e-10)
(0.000288586 3.46378e-07 -1.45031e-11)
(0.00859552 6.61951e-08 1.31706e-10)
(0.173755 1.37618e-08 1.5566e-10)
(-0.00462733 0.000122641 -0.000570078)
(-0.000175492 0.000133564 -4.98118e-05)
(5.78586e-06 1.70231e-05 -1.73675e-06)
(1.93834e-06 6.97402e-06 -3.89804e-08)
(7.96034e-06 1.12577e-06 -6.27566e-10)
(0.000288586 3.46411e-07 -4.25442e-11)
(0.00859551 6.61629e-08 3.03974e-12)
(0.173755 1.36703e-08 -2.27593e-10)
)
;
    }
    procBoundary0to1throughstreamwiseIn
    {
        type            processorCyclic;
        value           nonuniform List<vector> 
64
(
(-0.00462721 -0.000122733 -0.000568645)
(-0.000175524 -0.000133584 -4.97801e-05)
(5.77412e-06 -1.70333e-05 -1.73612e-06)
(1.93361e-06 -6.97595e-06 -3.89752e-08)
(7.95936e-06 -1.1259e-06 -5.71093e-10)
(0.000288585 -3.45973e-07 -1.89217e-11)
(0.00859551 -6.62604e-08 4.21724e-11)
(0.173755 -1.46512e-08 -1.22081e-11)
(-0.00462721 -0.000122732 -0.000568645)
(-0.000175524 -0.000133584 -4.97802e-05)
(5.77418e-06 -1.70333e-05 -1.73623e-06)
(1.93361e-06 -6.97589e-06 -3.89609e-08)
(7.9594e-06 -1.1259e-06 -5.37577e-10)
(0.000288586 -3.45969e-07 8.1228e-12)
(0.00859552 -6.61958e-08 1.13781e-10)
(0.173755 -1.45597e-08 4.84638e-10)
(-0.00462721 -0.000122732 -0.000568645)
(-0.000175524 -0.000133584 -4.97803e-05)
(5.77408e-06 -1.70332e-05 -1.7362e-06)
(1.93362e-06 -6.97587e-06 -3.89876e-08)
(7.95946e-06 -1.12591e-06 -6.50562e-10)
(0.000288586 -3.45969e-07 -1.56255e-12)
(0.00859552 -6.6012e-08 1.3469e-10)
(0.173755 -1.43574e-08 5.73856e-10)
(-0.00462721 -0.000122732 -0.000568645)
(-0.000175524 -0.000133584 -4.97804e-05)
(5.77404e-06 -1.70332e-05 -1.7362e-06)
(1.93361e-06 -6.97587e-06 -3.89943e-08)
(7.95944e-06 -1.1259e-06 -6.75505e-10)
(0.000288586 -3.45916e-07 1.52131e-11)
(0.00859552 -6.59272e-08 1.75933e-10)
(0.173755 -1.428e-08 2.81463e-10)
(-0.00462721 -0.000122732 -0.000568645)
(-0.000175524 -0.000133584 -4.97802e-05)
(5.77402e-06 -1.70331e-05 -1.73616e-06)
(1.93361e-06 -6.97586e-06 -3.90149e-08)
(7.95943e-06 -1.12589e-06 -6.71997e-10)
(0.000288586 -3.45893e-07 -2.13357e-11)
(0.00859552 -6.58772e-08 -6.62972e-11)
(0.173755 -1.42498e-08 -2.38089e-10)
(-0.00462721 -0.000122732 -0.000568645)
(-0.000175524 -0.000133584 -4.97802e-05)
(5.77405e-06 -1.70332e-05 -1.7361e-06)
(1.93359e-06 -6.97587e-06 -3.90266e-08)
(7.95944e-06 -1.12589e-06 -6.96765e-10)
(0.000288586 -3.45934e-07 -4.59015e-11)
(0.00859552 -6.6007e-08 -1.41401e-10)
(0.173755 -1.43856e-08 -4.48411e-10)
(-0.00462721 -0.000122732 -0.000568645)
(-0.000175524 -0.000133584 -4.97802e-05)
(5.7741e-06 -1.70332e-05 -1.7361e-06)
(1.93362e-06 -6.9759e-06 -3.8984e-08)
(7.95944e-06 -1.1259e-06 -7.17037e-10)
(0.000288586 -3.45933e-07 6.93859e-12)
(0.00859552 -6.60791e-08 -1.10948e-10)
(0.173755 -1.44786e-08 -3.23562e-10)
(-0.00462721 -0.000122732 -0.000568645)
(-0.000175524 -0.000133584 -4.97801e-05)
(5.77412e-06 -1.70332e-05 -1.73606e-06)
(1.93359e-06 -6.97591e-06 -3.89797e-08)
(7.95941e-06 -1.12589e-06 -7.00841e-10)
(0.000288585 -3.45956e-07 -1.23157e-11)
(0.00859551 -6.61832e-08 -1.48696e-10)
(0.173755 -1.45694e-08 -3.17694e-10)
)
;
    }
}


// ************************************************************************* //
