/*--------------------------------*- C++ -*----------------------------------*\
| =========                 |                                                 |
| \\      /  F ield         | OpenFOAM: The Open Source CFD Toolbox           |
|  \\    /   O peration     | Version:  2306                                  |
|   \\  /    A nd           | Website:  www.openfoam.com                      |
|    \\/     M anipulation  |                                                 |
\*---------------------------------------------------------------------------*/
FoamFile
{
    version     2.0;
    format      ascii;
    arch        "LSB;label=32;scalar=64";
    class       volScalarField;
    location    "5";
    object      p;
}
// * * * * * * * * * * * * * * * * * * * * * * * * * * * * * * * * * * * * * //

dimensions      [0 2 -2 0 0 0 0];

internalField   nonuniform List<scalar> 
256
(
-0.00422205
1.77279e-06
0.00398713
0.00821039
0.000877
0.00156148
0.00242662
0.003111
0.00181882
0.00192179
0.00206644
0.00216938
0.00197408
0.00198592
0.00200249
0.00201428
0.00198965
0.00199226
0.00199595
0.00199857
0.00199353
0.0019938
0.00199415
0.0019944
0.00199396
0.00199399
0.00199404
0.00199406
0.00199424
0.00199422
0.00199418
0.00199416
-0.00422202
1.86172e-06
0.00398718
0.00821045
0.000877109
0.00156159
0.00242667
0.00311101
0.00181891
0.00192186
0.00206647
0.00216937
0.0019742
0.00198597
0.00200243
0.00201414
0.00198968
0.00199225
0.00199589
0.00199849
0.00199353
0.00199379
0.00199414
0.0019944
0.00199395
0.00199399
0.00199405
0.00199408
0.00199422
0.0019942
0.00199418
0.00199416
-0.00422183
1.9479e-06
0.00398729
0.00821053
0.00087724
0.00156172
0.00242675
0.00311099
0.00181899
0.00192192
0.00206648
0.00216933
0.0019743
0.001986
0.00200236
0.00201401
0.00198971
0.00199226
0.00199585
0.00199841
0.00199354
0.00199379
0.00199415
0.0019944
0.00199395
0.001994
0.00199406
0.00199409
0.0019942
0.00199419
0.00199417
0.00199416
-0.00422175
2.02376e-06
0.00398733
0.00821058
0.000877312
0.00156179
0.00242677
0.00311094
0.00181902
0.00192192
0.00206645
0.0021693
0.00197433
0.00198598
0.00200231
0.00201395
0.00198972
0.00199226
0.00199584
0.00199839
0.00199355
0.00199381
0.00199415
0.0019944
0.00199395
0.00199401
0.00199407
0.0019941
0.00199419
0.00199419
0.00199417
0.00199415
-0.00422175
1.997e-06
0.0039873
0.00821054
0.000877309
0.00156175
0.00242671
0.00311089
0.001819
0.00192187
0.0020664
0.00216926
0.00197429
0.00198595
0.0020023
0.00201398
0.00198971
0.00199226
0.00199586
0.00199841
0.00199356
0.00199382
0.00199416
0.0019944
0.00199396
0.00199401
0.00199407
0.0019941
0.00199419
0.00199419
0.00199417
0.00199415
-0.00422178
1.90767e-06
0.00398721
0.00821048
0.000877238
0.00156165
0.00242663
0.00311088
0.00181894
0.0019218
0.00206635
0.00216927
0.00197419
0.00198591
0.00200234
0.00201408
0.0019897
0.00199228
0.0019959
0.00199847
0.00199357
0.00199383
0.00199417
0.0019944
0.00199396
0.00199401
0.00199406
0.00199409
0.0019942
0.00199419
0.00199417
0.00199416
-0.00422184
1.85345e-06
0.00398714
0.00821043
0.000877111
0.00156154
0.0024266
0.00311092
0.00181885
0.00192175
0.00206636
0.00216931
0.00197409
0.00198588
0.00200241
0.00201421
0.00198967
0.00199229
0.00199596
0.00199855
0.00199357
0.00199384
0.00199418
0.00199441
0.00199397
0.00199401
0.00199406
0.00199408
0.00199422
0.00199421
0.00199418
0.00199416
-0.00422199
1.8247e-06
0.00398712
0.00821038
0.000877007
0.00156148
0.00242659
0.00311097
0.0018188
0.00192174
0.0020664
0.00216936
0.00197404
0.00198588
0.00200248
0.00201431
0.00198964
0.00199228
0.00199598
0.00199859
0.00199355
0.00199382
0.00199418
0.00199441
0.00199396
0.001994
0.00199405
0.00199406
0.00199424
0.00199422
0.00199419
0.00199416
)
;

boundaryField
{
    movingWall
    {
        type            zeroGradient;
    }
    CPLReceiveMD
    {
        type            zeroGradient;
    }
    streamwiseIn
    {
        type            cyclic;
    }
    streamwiseOut
    {
        type            cyclic;
    }
    front
    {
        type            cyclic;
    }
    back
    {
        type            cyclic;
    }
    procBoundary1to0
    {
        type            processor;
        value           nonuniform List<scalar> 
64
(
-0.00422295
0.00087693
0.00181883
0.00197402
0.00198963
0.00199352
0.00199395
0.00199423
-0.00422289
0.000877007
0.00181889
0.00197412
0.00198968
0.00199353
0.00199395
0.00199421
-0.00422263
0.000877111
0.00181896
0.00197424
0.00198972
0.00199354
0.00199394
0.00199419
-0.00422246
0.000877178
0.00181902
0.00197429
0.00198973
0.00199354
0.00199394
0.00199418
-0.00422242
0.000877187
0.00181904
0.00197426
0.00198971
0.00199355
0.00199395
0.00199418
-0.00422242
0.000877147
0.00181901
0.00197418
0.00198968
0.00199355
0.00199395
0.00199419
-0.00422259
0.000877065
0.00181893
0.00197407
0.00198964
0.00199354
0.00199395
0.00199421
-0.00422283
0.000876972
0.00181885
0.00197399
0.00198962
0.00199353
0.00199395
0.00199423
)
;
    }
    procBoundary1to0throughstreamwiseOut
    {
        type            processorCyclic;
        value           nonuniform List<scalar> 
64
(
0.00820953
0.00311096
0.00216933
0.00201426
0.00199857
0.00199439
0.00199405
0.00199416
0.00820965
0.00311094
0.00216928
0.00201412
0.0019985
0.0019944
0.00199407
0.00199416
0.0082098
0.00311086
0.00216924
0.00201399
0.00199843
0.0019944
0.00199409
0.00199416
0.00820983
0.00311079
0.00216922
0.00201396
0.0019984
0.00199439
0.0019941
0.00199415
0.00820983
0.00311075
0.00216922
0.00201401
0.00199842
0.00199439
0.00199409
0.00199415
0.00820978
0.00311077
0.00216926
0.00201412
0.00199846
0.00199438
0.00199408
0.00199416
0.00820972
0.00311085
0.00216931
0.00201424
0.00199853
0.00199438
0.00199406
0.00199416
0.0082096
0.00311094
0.00216934
0.00201431
0.00199858
0.00199439
0.00199405
0.00199416
)
;
    }
}


// ************************************************************************* //
