/*--------------------------------*- C++ -*----------------------------------*\
| =========                 |                                                 |
| \\      /  F ield         | OpenFOAM: The Open Source CFD Toolbox           |
|  \\    /   O peration     | Version:  2306                                  |
|   \\  /    A nd           | Website:  www.openfoam.com                      |
|    \\/     M anipulation  |                                                 |
\*---------------------------------------------------------------------------*/
FoamFile
{
    version     2.0;
    format      ascii;
    arch        "LSB;label=32;scalar=64";
    class       surfaceScalarField;
    location    "5";
    object      phi;
}
// * * * * * * * * * * * * * * * * * * * * * * * * * * * * * * * * * * * * * //

dimensions      [0 3 -1 0 0 0 0];

oriented        oriented;

internalField   nonuniform List<scalar> 
640
(
-0.0958782
-0.000467295
-0.0587799
-0.0957083
-0.000169917
-0.0588257
-0.0958791
0.000170814
-0.0588084
0.000467723
-0.0587486
-0.0124672
-0.000226578
-0.00791506
-0.0125509
-8.61544e-05
-0.00831115
-0.0124666
8.64366e-05
-0.00830906
0.000226725
-0.00791041
-0.00127871
-2.73451e-05
-0.00054206
-0.00135456
-1.02986e-05
-0.000590337
-0.00127848
1.03524e-05
-0.00059019
2.73719e-05
-0.000541716
7.41601e-05
-1.0338e-05
-2.76919e-05
6.79768e-05
-4.11465e-06
-3.08538e-05
7.42024e-05
4.12927e-06
-3.08482e-05
1.03456e-05
-2.76783e-05
0.00306109
-1.65545e-06
-1.19452e-06
0.00305764
-6.67369e-07
-1.33579e-06
0.0030611
6.68248e-07
-1.33367e-06
1.65694e-06
-1.18982e-06
0.0471361
-5.34052e-07
-4.58305e-08
0.0471356
-2.1927e-07
-5.0855e-08
0.0471361
2.19252e-07
-4.90474e-08
5.33935e-07
-4.39072e-08
0.549272
-9.45853e-08
-1.9606e-09
0.549272
-3.81828e-08
-4.02096e-09
0.549272
3.95605e-08
-4.23605e-10
9.63751e-08
-8.97552e-10
4.38974
1.23139e-09
4.38974
-4.00141e-09
4.38974
5.5659e-10
2.10924e-09
-0.0958782
-0.000467295
-0.0587799
-0.0957083
-0.000169918
-0.0588257
-0.0958791
0.000170812
-0.0588084
0.00046773
-0.0587486
-0.0124672
-0.000226574
-0.00791506
-0.0125509
-8.61547e-05
-0.00831115
-0.0124666
8.64354e-05
-0.00830906
0.000226727
-0.00791041
-0.00127871
-2.73466e-05
-0.00054206
-0.00135456
-1.02993e-05
-0.000590338
-0.00127848
1.03536e-05
-0.00059019
2.73744e-05
-0.000541716
7.41579e-05
-1.03372e-05
-2.76908e-05
6.79737e-05
-4.1142e-06
-3.08548e-05
7.41999e-05
4.12853e-06
-3.08492e-05
1.03436e-05
-2.76778e-05
0.00306109
-1.65596e-06
-1.19419e-06
0.00305764
-6.67755e-07
-1.33494e-06
0.0030611
6.6827e-07
-1.33311e-06
1.65653e-06
-1.19067e-06
0.0471361
-5.34096e-07
-4.59562e-08
0.0471356
-2.19503e-07
-5.07928e-08
0.0471361
2.19843e-07
-4.92833e-08
5.3481e-07
-4.44995e-08
0.549272
-9.45894e-08
-3.03576e-09
0.549272
-3.85889e-08
-5.57432e-09
0.549272
3.97337e-08
-1.62589e-09
9.67195e-08
8.27763e-10
4.38974
7.20602e-10
4.38974
-4.70917e-09
4.38974
-1.49988e-09
5.83347e-09
-0.0958782
-0.000467297
-0.0587799
-0.0957083
-0.000169918
-0.0588257
-0.0958791
0.000170811
-0.0588084
0.000467728
-0.0587486
-0.0124672
-0.000226574
-0.00791506
-0.012551
-8.61517e-05
-0.00831115
-0.0124666
8.64355e-05
-0.00830906
0.000226724
-0.00791041
-0.0012787
-2.73484e-05
-0.000542059
-0.00135456
-1.02997e-05
-0.000590337
-0.00127848
1.03548e-05
-0.000590191
2.73768e-05
-0.000541718
7.41564e-05
-1.03363e-05
-2.76928e-05
6.79719e-05
-4.11492e-06
-3.08549e-05
7.41986e-05
4.12687e-06
-3.0848e-05
1.03418e-05
-2.76771e-05
0.00306109
-1.65634e-06
-1.19227e-06
0.00305765
-6.68134e-07
-1.33434e-06
0.00306111
6.68218e-07
-1.33363e-06
1.65675e-06
-1.19165e-06
0.0471361
-5.34383e-07
-4.4973e-08
0.0471357
-2.1961e-07
-5.05834e-08
0.0471361
2.20342e-07
-5.01454e-08
5.35694e-07
-4.47338e-08
0.549273
-9.52225e-08
-2.61487e-09
0.549272
-3.9339e-08
-5.04114e-09
0.549273
3.99142e-08
-2.74145e-09
9.74193e-08
1.76104e-09
4.38974
1.57662e-09
4.38974
-3.02519e-09
4.38974
-3.48456e-09
5.65865e-09
-0.0958782
-0.000467296
-0.0587799
-0.0957083
-0.000169921
-0.0588257
-0.0958791
0.000170811
-0.0588084
0.000467731
-0.0587486
-0.0124672
-0.000226572
-0.00791506
-0.012551
-8.61516e-05
-0.00831115
-0.0124666
8.64362e-05
-0.00830906
0.000226724
-0.00791041
-0.0012787
-2.73486e-05
-0.000542056
-0.00135456
-1.03e-05
-0.000590337
-0.00127847
1.03551e-05
-0.000590193
2.73784e-05
-0.000541719
7.41569e-05
-1.03366e-05
-2.7695e-05
6.79726e-05
-4.11557e-06
-3.08551e-05
7.41996e-05
4.12581e-06
-3.08457e-05
1.0341e-05
-2.76728e-05
0.0030611
-1.6566e-06
-1.19211e-06
0.00305765
-6.68322e-07
-1.33422e-06
0.00306111
6.68246e-07
-1.33452e-06
1.65703e-06
-1.19276e-06
0.0471361
-5.34213e-07
-4.49935e-08
0.0471357
-2.19568e-07
-5.04973e-08
0.0471361
2.20352e-07
-5.08142e-08
5.3598e-07
-4.57248e-08
0.549273
-9.53708e-08
-1.08962e-09
0.549272
-3.99207e-08
-2.86827e-09
0.549273
3.96288e-08
-2.73666e-09
9.77915e-08
-5.71689e-10
4.38974
1.85003e-09
4.38974
-1.1788e-09
4.38974
-6.66931e-10
2.90033e-10
-0.0958782
-0.000467297
-0.0587799
-0.0957083
-0.00016992
-0.0588257
-0.0958791
0.000170812
-0.0588084
0.000467731
-0.0587486
-0.0124672
-0.000226573
-0.00791506
-0.012551
-8.61506e-05
-0.00831115
-0.0124666
8.64371e-05
-0.00830907
0.000226724
-0.0079104
-0.00127871
-2.73478e-05
-0.000542055
-0.00135456
-1.02996e-05
-0.000590336
-0.00127847
1.03548e-05
-0.000590193
2.73772e-05
-0.000541722
7.41576e-05
-1.03374e-05
-2.7696e-05
6.79736e-05
-4.11622e-06
-3.08544e-05
7.42005e-05
4.12597e-06
-3.08437e-05
1.03419e-05
-2.76696e-05
0.0030611
-1.65648e-06
-1.19249e-06
0.00305765
-6.68157e-07
-1.33439e-06
0.00306111
6.68508e-07
-1.33537e-06
1.65737e-06
-1.19345e-06
0.0471361
-5.33791e-07
-4.53571e-08
0.0471357
-2.19434e-07
-5.04041e-08
0.0471361
2.20356e-07
-5.13355e-08
5.35874e-07
-4.6516e-08
0.549273
-9.52195e-08
-3.95471e-11
0.549272
-4.0055e-08
1.8478e-10
0.549273
3.9602e-08
-2.62904e-09
9.79309e-08
-3.43918e-09
4.38974
3.5278e-10
4.38974
2.16565e-09
4.38974
1.52356e-09
-4.14636e-09
-0.0958782
-0.000467295
-0.0587799
-0.0957083
-0.000169919
-0.0588257
-0.0958791
0.000170811
-0.0588084
0.000467732
-0.0587486
-0.0124672
-0.000226573
-0.00791506
-0.012551
-8.61508e-05
-0.00831115
-0.0124666
8.64367e-05
-0.00830906
0.000226725
-0.0079104
-0.00127871
-2.73464e-05
-0.000542056
-0.00135456
-1.02989e-05
-0.000590336
-0.00127848
1.03537e-05
-0.000590193
2.73747e-05
-0.000541724
7.41579e-05
-1.03388e-05
-2.76939e-05
6.79748e-05
-4.11659e-06
-3.08536e-05
7.42015e-05
4.12689e-06
-3.08436e-05
1.03433e-05
-2.76685e-05
0.00306109
-1.65616e-06
-1.19303e-06
0.00305765
-6.67712e-07
-1.33484e-06
0.0030611
6.68817e-07
-1.33604e-06
1.65739e-06
-1.19469e-06
0.0471361
-5.33471e-07
-4.61604e-08
0.0471357
-2.19321e-07
-5.01307e-08
0.0471361
2.20341e-07
-5.16571e-08
5.35365e-07
-4.76697e-08
0.549273
-9.51544e-08
-5.41624e-10
0.549272
-3.99856e-08
2.34084e-09
0.549273
3.96904e-08
-2.0965e-09
9.73739e-08
-4.90109e-09
4.38974
-1.70335e-09
4.38974
5.41709e-09
4.38974
6.76161e-10
-5.39798e-09
-0.0958782
-0.000467295
-0.0587799
-0.0957083
-0.000169918
-0.0588257
-0.0958791
0.000170814
-0.0588084
0.000467727
-0.0587486
-0.0124672
-0.000226576
-0.00791506
-0.0125509
-8.61529e-05
-0.00831115
-0.0124666
8.64375e-05
-0.00830906
0.000226724
-0.0079104
-0.00127871
-2.73451e-05
-0.000542057
-0.00135456
-1.02984e-05
-0.000590336
-0.00127848
1.03526e-05
-0.000590192
2.73721e-05
-0.000541723
7.4159e-05
-1.03393e-05
-2.76928e-05
6.79762e-05
-4.11647e-06
-3.08528e-05
7.4202e-05
4.12775e-06
-3.08446e-05
1.03453e-05
-2.7673e-05
0.00306109
-1.65567e-06
-1.19246e-06
0.00305764
-6.67146e-07
-1.33538e-06
0.0030611
6.69003e-07
-1.33608e-06
1.65737e-06
-1.19392e-06
0.0471361
-5.33224e-07
-4.57125e-08
0.0471356
-2.18949e-07
-5.00749e-08
0.0471361
2.19857e-07
-5.12269e-08
5.34783e-07
-4.65927e-08
0.549272
-9.47713e-08
-8.25756e-10
0.549272
-3.91074e-08
1.95348e-09
0.549272
3.92984e-08
-1.09811e-09
9.68846e-08
-4.05594e-09
4.38974
-2.88442e-09
4.38974
4.32343e-09
4.38974
1.11662e-09
-3.68453e-09
-0.0958782
-0.000467295
-0.0957083
-0.000169917
-0.0958791
0.000170811
0.00046773
-0.0124672
-0.000226576
-0.0125509
-8.61551e-05
-0.0124666
8.64347e-05
0.000226729
-0.00127871
-2.73444e-05
-0.00135456
-1.02987e-05
-0.00127848
1.03519e-05
2.73715e-05
7.41611e-05
-1.03391e-05
6.79784e-05
-4.11549e-06
7.42029e-05
4.1289e-06
1.0346e-05
0.00306109
-1.65573e-06
0.00305764
-6.66838e-07
0.0030611
6.68954e-07
1.65676e-06
0.0471361
-5.3334e-07
0.0471356
-2.18989e-07
0.0471361
2.19532e-07
5.34239e-07
0.549272
-9.43879e-08
0.549272
-3.85416e-08
0.549272
3.95287e-08
9.65361e-08
4.38974
4.38974
4.38974
)
;

boundaryField
{
    movingWall
    {
        type            calculated;
        value           uniform 0;
    }
    CPLReceiveMD
    {
        type            calculated;
        value           uniform 0;
    }
    streamwiseIn
    {
        type            cyclic;
        value           nonuniform List<scalar> 0();
    }
    streamwiseOut
    {
        type            cyclic;
        value           nonuniform List<scalar> 0();
    }
    front
    {
        type            cyclic;
        value           nonuniform List<scalar> 
32
(
-0.0587799
-0.00791505
-0.000542058
-2.76918e-05
-1.19381e-06
-4.62447e-08
-1.7678e-09
-1.14541e-09
-0.0588257
-0.00831115
-0.000590337
-3.08531e-05
-1.33615e-06
-5.02009e-08
-3.75422e-10
2.72082e-10
-0.0588084
-0.00830906
-0.000590193
-3.0846e-05
-1.33506e-06
-4.99736e-08
-1.78614e-10
1.82608e-09
-0.0587486
-0.00791041
-0.000541718
-2.76762e-05
-1.19166e-06
-4.54776e-08
-2.79887e-09
-1.19933e-09
)
;
    }
    back
    {
        type            cyclic;
        value           nonuniform List<scalar> 
32
(
0.0587799
0.00791505
0.000542058
2.76918e-05
1.19381e-06
4.62447e-08
1.7678e-09
1.14541e-09
0.0588257
0.00831115
0.000590337
3.08531e-05
1.33615e-06
5.02009e-08
3.75422e-10
-2.72082e-10
0.0588084
0.00830906
0.000590193
3.0846e-05
1.33506e-06
4.99736e-08
1.78614e-10
-1.82608e-09
0.0587486
0.00791041
0.000541718
2.76762e-05
1.19166e-06
4.54776e-08
2.79887e-09
1.19933e-09
)
;
    }
    procBoundary1to0
    {
        type            processor;
        value           nonuniform List<scalar> 
64
(
0.0963455
0.0122265
0.00107948
-9.11676e-05
-0.00306977
-0.0471372
-0.549273
-4.38974
0.0963455
0.0122265
0.00107948
-9.11685e-05
-0.00306977
-0.0471372
-0.549273
-4.38974
0.0963455
0.0122265
0.00107948
-9.11664e-05
-0.00306978
-0.0471372
-0.549273
-4.38974
0.0963455
0.0122265
0.00107948
-9.11667e-05
-0.00306978
-0.0471372
-0.549273
-4.38974
0.0963455
0.0122265
0.00107948
-9.1167e-05
-0.00306978
-0.0471372
-0.549273
-4.38974
0.0963455
0.0122265
0.00107948
-9.11674e-05
-0.00306978
-0.0471372
-0.549273
-4.38974
0.0963455
0.0122265
0.00107948
-9.11657e-05
-0.00306978
-0.0471372
-0.549273
-4.38974
0.0963455
0.0122265
0.00107948
-9.11668e-05
-0.00306977
-0.0471372
-0.549273
-4.38974
)
;
    }
    procBoundary1to0throughstreamwiseOut
    {
        type            processorCyclic;
        value           nonuniform List<scalar> 
64
(
-0.0963468
-0.0122256
-0.00107913
9.12319e-05
0.00306979
0.0471372
0.549273
4.38974
-0.0963468
-0.0122256
-0.00107913
9.12306e-05
0.00306979
0.0471372
0.549273
4.38974
-0.0963468
-0.0122256
-0.00107913
9.1233e-05
0.00306979
0.0471372
0.549273
4.38974
-0.0963468
-0.0122256
-0.00107913
9.12327e-05
0.00306979
0.0471372
0.549273
4.38974
-0.0963468
-0.0122256
-0.00107913
9.12324e-05
0.00306979
0.0471372
0.549273
4.38974
-0.0963468
-0.0122256
-0.00107912
9.12316e-05
0.00306979
0.0471372
0.549273
4.38974
-0.0963468
-0.0122256
-0.00107913
9.12334e-05
0.00306979
0.0471372
0.549273
4.38974
-0.0963468
-0.0122256
-0.00107913
9.12316e-05
0.00306979
0.0471372
0.549273
4.38974
)
;
    }
}


// ************************************************************************* //
