/*--------------------------------*- C++ -*----------------------------------*\
| =========                 |                                                 |
| \\      /  F ield         | OpenFOAM: The Open Source CFD Toolbox           |
|  \\    /   O peration     | Version:  2306                                  |
|   \\  /    A nd           | Website:  www.openfoam.com                      |
|    \\/     M anipulation  |                                                 |
\*---------------------------------------------------------------------------*/
FoamFile
{
    version     2.0;
    format      ascii;
    arch        "LSB;label=32;scalar=64";
    class       surfaceScalarField;
    location    "5";
    object      phi_0;
}
// * * * * * * * * * * * * * * * * * * * * * * * * * * * * * * * * * * * * * //

dimensions      [0 3 -1 0 0 0 0];

oriented        oriented;

internalField   nonuniform List<scalar> 
640
(
-0.0939391
-0.000243181
-0.0590371
-0.0938342
-0.000104921
-0.0594038
-0.0939399
0.000105735
-0.0593855
0.000243641
-0.0590018
-0.0118892
-0.00019895
-0.00768047
-0.0119207
-7.34602e-05
-0.00809447
-0.0118887
7.37236e-05
-0.00809239
0.000199091
-0.00767581
-0.00120261
-2.38321e-05
-0.000506926
-0.00126736
-8.71142e-06
-0.000554722
-0.00120238
8.74754e-06
-0.000554582
2.38522e-05
-0.000506597
6.80571e-05
-9.88733e-06
-2.52447e-05
6.32623e-05
-3.91562e-06
-2.82501e-05
6.80847e-05
3.92598e-06
-2.8243e-05
9.89217e-06
-2.5228e-05
0.00284931
-1.64135e-06
-1.0666e-06
0.00284605
-6.61865e-07
-1.1962e-06
0.00284932
6.61892e-07
-1.1957e-06
1.64147e-06
-1.06581e-06
0.0447471
-5.35219e-07
-4.08985e-08
0.0447467
-2.1978e-07
-4.53504e-08
0.0447471
2.19932e-07
-4.38876e-08
5.3575e-07
-3.9802e-08
0.531684
-9.51864e-08
-2.82361e-09
0.531683
-3.83328e-08
-4.814e-09
0.531684
4.11475e-08
-5.06543e-10
9.83688e-08
-6.1469e-10
4.33015
1.46788e-09
4.33015
-3.80133e-09
4.33015
9.69511e-10
3.2082e-09
-0.0939391
-0.000243177
-0.0590371
-0.0938342
-0.000104922
-0.0594038
-0.0939399
0.000105735
-0.0593855
0.000243641
-0.0590018
-0.0118892
-0.000198947
-0.00768046
-0.0119207
-7.346e-05
-0.00809447
-0.0118887
7.37242e-05
-0.00809239
0.000199093
-0.0076758
-0.00120261
-2.38314e-05
-0.000506928
-0.00126736
-8.7109e-06
-0.000554723
-0.00120238
8.74733e-06
-0.000554582
2.38526e-05
-0.000506598
6.80575e-05
-9.8871e-06
-2.52451e-05
6.32633e-05
-3.91604e-06
-2.82507e-05
6.80855e-05
3.92555e-06
-2.82434e-05
9.89223e-06
-2.52278e-05
0.00284931
-1.64098e-06
-1.06527e-06
0.00284605
-6.61542e-07
-1.19601e-06
0.00284932
6.62309e-07
-1.19562e-06
1.64161e-06
-1.06469e-06
0.0447471
-5.35054e-07
-4.03144e-08
0.0447467
-2.19554e-07
-4.52312e-08
0.0447471
2.20449e-07
-4.38449e-08
5.3573e-07
-3.88946e-08
0.531684
-9.54001e-08
-3.4616e-09
0.531683
-3.87493e-08
-6.19388e-09
0.531684
4.09775e-08
-1.88514e-09
9.79604e-08
1.22058e-09
4.33015
1.25394e-09
4.33015
-4.39427e-09
4.33015
-6.29218e-10
6.9309e-09
-0.0939391
-0.000243179
-0.0590371
-0.0938342
-0.000104921
-0.0594038
-0.0939399
0.000105735
-0.0593855
0.00024364
-0.0590018
-0.0118892
-0.000198947
-0.00768047
-0.0119207
-7.34593e-05
-0.00809447
-0.0118887
7.37252e-05
-0.00809239
0.000199094
-0.00767581
-0.00120261
-2.38312e-05
-0.000506927
-0.00126736
-8.71053e-06
-0.000554723
-0.00120238
8.748e-06
-0.000554582
2.38526e-05
-0.000506597
6.8058e-05
-9.88769e-06
-2.52457e-05
6.32639e-05
-3.91659e-06
-2.82506e-05
6.80862e-05
3.92519e-06
-2.82429e-05
9.89189e-06
-2.52271e-05
0.00284931
-1.64068e-06
-1.06672e-06
0.00284606
-6.61543e-07
-1.19639e-06
0.00284932
6.62475e-07
-1.19615e-06
1.64197e-06
-1.06617e-06
0.0447472
-5.34828e-07
-4.05387e-08
0.0447467
-2.19498e-07
-4.47657e-08
0.0447472
2.20861e-07
-4.41812e-08
5.36446e-07
-3.97438e-08
0.531684
-9.61139e-08
-2.88859e-09
0.531683
-3.9653e-08
-5.07405e-09
0.531684
4.06118e-08
-2.8257e-09
9.81685e-08
1.35926e-09
4.33015
1.89843e-09
4.33015
-2.79762e-09
4.33015
-3.03775e-09
6.22618e-09
-0.0939391
-0.000243178
-0.0590371
-0.0938342
-0.000104922
-0.0594038
-0.0939399
0.000105735
-0.0593855
0.00024364
-0.0590018
-0.0118892
-0.000198947
-0.00768047
-0.0119207
-7.34593e-05
-0.00809447
-0.0118887
7.37256e-05
-0.00809239
0.000199095
-0.00767581
-0.00120261
-2.38309e-05
-0.000506926
-0.00126736
-8.71006e-06
-0.000554723
-0.00120238
8.74843e-06
-0.000554581
2.38525e-05
-0.000506595
6.80578e-05
-9.8881e-06
-2.52452e-05
6.32638e-05
-3.91691e-06
-2.82498e-05
6.80863e-05
3.92508e-06
-2.82419e-05
9.89197e-06
-2.52265e-05
0.00284931
-1.64068e-06
-1.06751e-06
0.00284606
-6.61698e-07
-1.19695e-06
0.00284932
6.62462e-07
-1.19678e-06
1.6423e-06
-1.06705e-06
0.0447472
-5.3475e-07
-4.01549e-08
0.0447467
-2.19619e-07
-4.42625e-08
0.0447472
2.20832e-07
-4.43607e-08
5.36827e-07
-4.03268e-08
0.531684
-9.64204e-08
-8.59374e-10
0.531683
-4.0409e-08
-2.37764e-09
0.531684
4.00095e-08
-2.37438e-09
9.8195e-08
-6.27882e-10
4.33015
1.73769e-09
4.33015
-1.25029e-09
4.33015
-7.05648e-10
1.39908e-10
-0.0939391
-0.000243179
-0.0590371
-0.0938342
-0.000104922
-0.0594038
-0.0939399
0.000105735
-0.0593855
0.00024364
-0.0590018
-0.0118892
-0.000198947
-0.00768047
-0.0119207
-7.34591e-05
-0.00809447
-0.0118887
7.37257e-05
-0.00809239
0.000199095
-0.00767581
-0.00120261
-2.38307e-05
-0.000506925
-0.00126736
-8.7099e-06
-0.000554722
-0.00120238
8.74825e-06
-0.00055458
2.38524e-05
-0.000506594
6.80577e-05
-9.88824e-06
-2.52445e-05
6.32639e-05
-3.9169e-06
-2.82489e-05
6.80864e-05
3.92515e-06
-2.82413e-05
9.89211e-06
-2.52262e-05
0.00284931
-1.64065e-06
-1.06811e-06
0.00284606
-6.61804e-07
-1.19749e-06
0.00284932
6.62409e-07
-1.19731e-06
1.6424e-06
-1.06756e-06
0.0447472
-5.34614e-07
-3.97957e-08
0.0447467
-2.197e-07
-4.37531e-08
0.0447472
2.20841e-07
-4.45113e-08
5.36947e-07
-4.07517e-08
0.531684
-9.62537e-08
6.02844e-10
0.531683
-4.05353e-08
1.0804e-09
0.531684
4.0011e-08
-1.81486e-09
9.83844e-08
-2.91252e-09
4.33015
-1.46587e-10
4.33015
1.79079e-09
4.33015
1.10383e-09
-4.92712e-09
-0.0939391
-0.000243179
-0.0590371
-0.0938342
-0.000104923
-0.0594038
-0.0939399
0.000105734
-0.0593855
0.000243641
-0.0590018
-0.0118892
-0.000198946
-0.00768047
-0.0119207
-7.34592e-05
-0.00809447
-0.0118887
7.37248e-05
-0.00809239
0.000199094
-0.00767581
-0.00120261
-2.38307e-05
-0.000506925
-0.00126736
-8.71002e-06
-0.000554721
-0.00120238
8.74801e-06
-0.000554579
2.38523e-05
-0.000506593
6.80578e-05
-9.88802e-06
-2.52437e-05
6.3264e-05
-3.91662e-06
-2.82485e-05
6.80864e-05
3.92537e-06
-2.8241e-05
9.89227e-06
-2.52257e-05
0.00284931
-1.64084e-06
-1.06736e-06
0.00284606
-6.6198e-07
-1.19768e-06
0.00284932
6.62128e-07
-1.19747e-06
1.64205e-06
-1.06671e-06
0.0447472
-5.34674e-07
-3.91276e-08
0.0447467
-2.19834e-07
-4.33111e-08
0.0447472
2.20754e-07
-4.47559e-08
5.36595e-07
-4.05529e-08
0.531684
-9.60362e-08
7.44902e-10
0.531683
-4.02953e-08
3.36354e-09
0.531684
4.04161e-08
-1.23154e-09
9.82012e-08
-3.6486e-09
4.33015
-1.92679e-09
4.33015
4.81698e-09
4.33015
2.02862e-10
-6.48595e-09
-0.0939391
-0.00024318
-0.0590371
-0.0938342
-0.000104922
-0.0594038
-0.0939399
0.000105735
-0.0593854
0.00024364
-0.0590018
-0.0118892
-0.000198947
-0.00768047
-0.0119207
-7.34597e-05
-0.00809447
-0.0118887
7.37244e-05
-0.00809239
0.000199092
-0.00767581
-0.00120261
-2.38313e-05
-0.000506924
-0.00126736
-8.71059e-06
-0.000554721
-0.00120238
8.748e-06
-0.000554579
2.38523e-05
-0.000506593
6.80576e-05
-9.88766e-06
-2.52441e-05
6.32634e-05
-3.91623e-06
-2.82487e-05
6.80859e-05
3.92565e-06
-2.82411e-05
9.89239e-06
-2.5226e-05
0.00284931
-1.6411e-06
-1.06831e-06
0.00284605
-6.62094e-07
-1.19754e-06
0.00284932
6.61791e-07
-1.19709e-06
1.64168e-06
-1.06716e-06
0.0447471
-5.34701e-07
-4.00958e-08
0.0447467
-2.19568e-07
-4.37975e-08
0.0447471
2.20338e-07
-4.48563e-08
5.36323e-07
-4.09523e-08
0.531684
-9.54299e-08
-2.49393e-10
0.531683
-3.91436e-08
2.67101e-09
0.531684
4.06313e-08
-8.1179e-10
9.83915e-08
-3.28022e-09
4.33015
-2.97356e-09
4.33015
4.07506e-09
4.33015
6.67151e-10
-4.46337e-09
-0.0939391
-0.000243177
-0.0938342
-0.000104922
-0.0939399
0.000105735
0.000243642
-0.0118892
-0.000198947
-0.0119207
-7.346e-05
-0.0118887
7.37229e-05
0.000199092
-0.00120261
-2.38316e-05
-0.00126736
-8.71095e-06
-0.00120238
8.74742e-06
2.38526e-05
6.80568e-05
-9.88685e-06
6.32623e-05
-3.91592e-06
6.80848e-05
3.92581e-06
9.89286e-06
0.00284931
-1.64148e-06
0.00284605
-6.61964e-07
0.00284932
6.61789e-07
1.64148e-06
0.0447471
-5.35402e-07
0.0447467
-2.1952e-07
0.0447471
2.2033e-07
5.35677e-07
0.531684
-9.53685e-08
0.531683
-3.84438e-08
0.531684
4.13456e-08
9.82557e-08
4.33015
4.33015
4.33015
)
;

boundaryField
{
    movingWall
    {
        type            calculated;
        value           uniform 0;
    }
    CPLReceiveMD
    {
        type            calculated;
        value           uniform 0;
    }
    streamwiseIn
    {
        type            cyclic;
        value           nonuniform List<scalar> 0();
    }
    streamwiseOut
    {
        type            cyclic;
        value           nonuniform List<scalar> 0();
    }
    front
    {
        type            cyclic;
        value           nonuniform List<scalar> 
32
(
-0.0590371
-0.00768047
-0.000506924
-2.52444e-05
-1.06732e-06
-4.0655e-08
-1.72467e-09
-1.31333e-09
-0.0594038
-0.00809447
-0.000554722
-2.82492e-05
-1.19687e-06
-4.47307e-08
-5.45448e-10
3.31496e-10
-0.0593854
-0.00809239
-0.00055458
-2.82421e-05
-1.19665e-06
-4.47402e-08
-2.84498e-10
1.72587e-09
-0.0590019
-0.00767581
-0.000506594
-2.52272e-05
-1.06632e-06
-4.04682e-08
-2.22604e-09
-1.33804e-09
)
;
    }
    back
    {
        type            cyclic;
        value           nonuniform List<scalar> 
32
(
0.0590371
0.00768047
0.000506924
2.52444e-05
1.06732e-06
4.0655e-08
1.72467e-09
1.31333e-09
0.0594038
0.00809447
0.000554722
2.82492e-05
1.19687e-06
4.47307e-08
5.45448e-10
-3.31496e-10
0.0593854
0.00809239
0.00055458
2.82421e-05
1.19665e-06
4.47402e-08
2.84498e-10
-1.72587e-09
0.0590019
0.00767581
0.000506594
2.52272e-05
1.06632e-06
4.04682e-08
2.22604e-09
1.33804e-09
)
;
    }
    procBoundary1to0
    {
        type            processor;
        value           nonuniform List<scalar> 
64
(
0.0941823
0.011845
0.00102749
-8.20013e-05
-0.00285755
-0.0447482
-0.531684
-4.33015
0.0941823
0.011845
0.00102749
-8.20014e-05
-0.00285756
-0.0447483
-0.531684
-4.33015
0.0941823
0.011845
0.00102749
-8.20009e-05
-0.00285756
-0.0447483
-0.531684
-4.33015
0.0941823
0.011845
0.00102749
-8.2001e-05
-0.00285756
-0.0447483
-0.531684
-4.33015
0.0941823
0.011845
0.00102749
-8.2001e-05
-0.00285756
-0.0447483
-0.531684
-4.33015
0.0941823
0.011845
0.00102749
-8.20012e-05
-0.00285756
-0.0447483
-0.531684
-4.33015
0.0941823
0.011845
0.00102749
-8.20009e-05
-0.00285755
-0.0447483
-0.531684
-4.33015
0.0941823
0.011845
0.00102749
-8.20013e-05
-0.00285755
-0.0447482
-0.531684
-4.33015
)
;
    }
    procBoundary1to0throughstreamwiseOut
    {
        type            processorCyclic;
        value           nonuniform List<scalar> 
64
(
-0.0941836
-0.0118441
-0.00102714
8.20453e-05
0.00285757
0.0447482
0.531684
4.33015
-0.0941836
-0.0118441
-0.00102714
8.20455e-05
0.00285757
0.0447483
0.531684
4.33015
-0.0941836
-0.0118441
-0.00102714
8.20462e-05
0.00285757
0.0447483
0.531684
4.33015
-0.0941836
-0.0118441
-0.00102714
8.20463e-05
0.00285757
0.0447483
0.531684
4.33015
-0.0941836
-0.0118441
-0.00102714
8.20464e-05
0.00285757
0.0447483
0.531684
4.33015
-0.0941836
-0.0118441
-0.00102714
8.20461e-05
0.00285757
0.0447483
0.531684
4.33015
-0.0941836
-0.0118441
-0.00102714
8.2046e-05
0.00285757
0.0447483
0.531684
4.33015
-0.0941836
-0.0118441
-0.00102714
8.20456e-05
0.00285757
0.0447482
0.531684
4.33015
)
;
    }
}


// ************************************************************************* //
