/*--------------------------------*- C++ -*----------------------------------*\
| =========                 |                                                 |
| \\      /  F ield         | OpenFOAM: The Open Source CFD Toolbox           |
|  \\    /   O peration     | Version:  2306                                  |
|   \\  /    A nd           | Website:  www.openfoam.com                      |
|    \\/     M anipulation  |                                                 |
\*---------------------------------------------------------------------------*/
FoamFile
{
    version     2.0;
    format      ascii;
    arch        "LSB;label=32;scalar=64";
    class       volVectorField;
    location    "5";
    object      U;
}
// * * * * * * * * * * * * * * * * * * * * * * * * * * * * * * * * * * * * * //

dimensions      [0 1 -1 0 0 0 0];

internalField   nonuniform List<vector> 
256
(
(-0.00802292 -9.45425e-05 -0.00493896)
(-0.00804628 -3.57967e-05 -0.0049428)
(-0.00804613 3.61211e-05 -0.00494135)
(-0.00802315 9.47028e-05 -0.00493633)
(-0.00103615 -9.82669e-05 -0.000665059)
(-0.00105491 -3.7051e-05 -0.000698341)
(-0.00105487 3.71494e-05 -0.000698166)
(-0.0010361 9.83238e-05 -0.000664668)
(-0.000100121 -8.41872e-06 -4.55459e-05)
(-0.000113162 -3.03572e-06 -4.96027e-05)
(-0.000113151 3.05685e-06 -4.95906e-05)
(-0.000100096 8.42939e-06 -4.55174e-05)
(6.79413e-06 -4.95679e-06 -2.32641e-06)
(5.62719e-06 -1.982e-06 -2.59215e-06)
(5.62826e-06 1.98676e-06 -2.59203e-06)
(6.79837e-06 4.95907e-06 -2.32618e-06)
(0.000257534 -4.22799e-07 -1.00025e-07)
(0.000256974 -1.68471e-07 -1.12215e-07)
(0.000256974 1.67279e-07 -1.12351e-07)
(0.000257535 4.21441e-07 -1.00341e-07)
(0.00396063 -2.34868e-07 -3.77756e-09)
(0.00396056 -9.60771e-08 -4.32559e-09)
(0.00396056 9.7023e-08 -4.28591e-09)
(0.00396063 2.35753e-07 -3.81586e-09)
(0.0461524 -2.99417e-08 -1.62845e-10)
(0.0461524 -1.21173e-08 -2.60118e-10)
(0.0461524 1.27853e-08 -2.54358e-11)
(0.0461524 3.06464e-08 -1.12132e-10)
(0.368846 -1.05204e-08 7.11226e-11)
(0.368846 -4.50291e-09 -2.34994e-10)
(0.368846 4.04098e-09 5.41724e-12)
(0.368846 1.0224e-08 5.19889e-11)
(-0.00802292 -9.45418e-05 -0.00493895)
(-0.00804627 -3.57967e-05 -0.00494281)
(-0.00804613 3.61206e-05 -0.00494135)
(-0.00802314 9.47041e-05 -0.00493633)
(-0.00103615 -9.82663e-05 -0.000665059)
(-0.00105491 -3.70513e-05 -0.00069834)
(-0.00105487 3.7149e-05 -0.000698165)
(-0.0010361 9.83252e-05 -0.000664669)
(-0.000100121 -8.41856e-06 -4.55461e-05)
(-0.000113162 -3.0359e-06 -4.96025e-05)
(-0.000113152 3.05672e-06 -4.95903e-05)
(-0.000100096 8.42926e-06 -4.55176e-05)
(6.79405e-06 -4.95679e-06 -2.32602e-06)
(5.6262e-06 -1.98197e-06 -2.59241e-06)
(5.62786e-06 1.98668e-06 -2.59252e-06)
(6.79788e-06 4.95898e-06 -2.3262e-06)
(0.000257534 -4.23046e-07 -1.00032e-07)
(0.000256974 -1.68483e-07 -1.12009e-07)
(0.000256974 1.67449e-07 -1.12202e-07)
(0.000257535 4.21488e-07 -1.00528e-07)
(0.00396063 -2.34909e-07 -3.80279e-09)
(0.00396056 -9.61364e-08 -4.18241e-09)
(0.00396056 9.71378e-08 -4.12672e-09)
(0.00396063 2.35883e-07 -3.95141e-09)
(0.0461524 -2.98547e-08 -2.88342e-10)
(0.0461524 -1.2149e-08 -4.37095e-10)
(0.0461524 1.28448e-08 6.82016e-11)
(0.0461524 3.07449e-08 8.72887e-11)
(0.368846 -1.04225e-08 2.44493e-11)
(0.368846 -4.48965e-09 -3.90737e-10)
(0.368846 4.08348e-09 1.09667e-10)
(0.368846 1.02781e-08 4.54149e-10)
(-0.00802292 -9.45422e-05 -0.00493895)
(-0.00804628 -3.57962e-05 -0.00494281)
(-0.00804613 3.61207e-05 -0.00494135)
(-0.00802315 9.47032e-05 -0.00493633)
(-0.00103615 -9.82669e-05 -0.000665059)
(-0.00105491 -3.70508e-05 -0.00069834)
(-0.00105487 3.7149e-05 -0.000698165)
(-0.0010361 9.83244e-05 -0.000664669)
(-0.000100121 -8.4186e-06 -4.55461e-05)
(-0.000113162 -3.03597e-06 -4.96027e-05)
(-0.000113152 3.05648e-06 -4.95904e-05)
(-0.000100096 8.42907e-06 -4.55176e-05)
(6.79362e-06 -4.95673e-06 -2.32665e-06)
(5.62563e-06 -1.98205e-06 -2.5926e-06)
(5.62729e-06 1.98662e-06 -2.59228e-06)
(6.79782e-06 4.95891e-06 -2.32601e-06)
(0.000257534 -4.23112e-07 -1.00128e-07)
(0.000256974 -1.68481e-07 -1.12151e-07)
(0.000256974 1.67578e-07 -1.12097e-07)
(0.000257535 4.2173e-07 -1.00153e-07)
(0.00396063 -2.35011e-07 -3.78088e-09)
(0.00396056 -9.62423e-08 -4.28513e-09)
(0.00396056 9.71371e-08 -4.22419e-09)
(0.00396063 2.35966e-07 -3.73427e-09)
(0.0461524 -2.99443e-08 -3.10821e-10)
(0.0461524 -1.22413e-08 -5.63143e-10)
(0.0461524 1.28927e-08 -2.62051e-10)
(0.0461524 3.09147e-08 2.02708e-10)
(0.368846 -1.04298e-08 -1.97234e-11)
(0.368846 -4.48975e-09 -3.95627e-10)
(0.368846 4.146e-09 -3.63391e-10)
(0.368846 1.04075e-08 6.02682e-10)
(-0.00802292 -9.4542e-05 -0.00493896)
(-0.00804628 -3.57964e-05 -0.0049428)
(-0.00804613 3.61208e-05 -0.00494135)
(-0.00802315 9.47033e-05 -0.00493633)
(-0.00103615 -9.82666e-05 -0.00066506)
(-0.00105491 -3.70512e-05 -0.000698341)
(-0.00105488 3.71491e-05 -0.000698166)
(-0.0010361 9.83248e-05 -0.000664669)
(-0.000100121 -8.4185e-06 -4.55461e-05)
(-0.000113162 -3.03615e-06 -4.96029e-05)
(-0.000113151 3.05637e-06 -4.95907e-05)
(-0.000100096 8.42931e-06 -4.55179e-05)
(6.7935e-06 -4.95677e-06 -2.32709e-06)
(5.6255e-06 -1.98202e-06 -2.59268e-06)
(5.62727e-06 1.98661e-06 -2.5919e-06)
(6.79786e-06 4.95892e-06 -2.3253e-06)
(0.000257534 -4.2312e-07 -1.00275e-07)
(0.000256974 -1.68463e-07 -1.12171e-07)
(0.000256974 1.67622e-07 -1.1207e-07)
(0.000257536 4.21786e-07 -1.00089e-07)
(0.00396063 -2.35032e-07 -3.76528e-09)
(0.00396056 -9.63006e-08 -4.23813e-09)
(0.00396056 9.70932e-08 -4.22843e-09)
(0.00396063 2.36e-07 -3.78083e-09)
(0.0461524 -2.99813e-08 -1.31271e-10)
(0.0461524 -1.23384e-08 -3.45048e-10)
(0.0461524 1.28267e-08 -2.5207e-10)
(0.0461524 3.09969e-08 9.20849e-11)
(0.368846 -1.04006e-08 2.32178e-10)
(0.368846 -4.54853e-09 -2.08151e-10)
(0.368846 4.08025e-09 -3.59117e-10)
(0.368846 1.0463e-08 2.60106e-10)
(-0.00802292 -9.45421e-05 -0.00493896)
(-0.00804628 -3.57963e-05 -0.00494281)
(-0.00804613 3.61209e-05 -0.00494135)
(-0.00802315 9.47032e-05 -0.00493633)
(-0.00103615 -9.82666e-05 -0.000665059)
(-0.00105491 -3.70511e-05 -0.000698341)
(-0.00105488 3.71492e-05 -0.000698166)
(-0.0010361 9.83246e-05 -0.000664669)
(-0.000100121 -8.41863e-06 -4.55461e-05)
(-0.000113162 -3.03607e-06 -4.9603e-05)
(-0.000113152 3.05649e-06 -4.95911e-05)
(-0.000100096 8.42932e-06 -4.5518e-05)
(6.79351e-06 -4.95676e-06 -2.32736e-06)
(5.62575e-06 -1.98201e-06 -2.59269e-06)
(5.62748e-06 1.98668e-06 -2.59164e-06)
(6.79801e-06 4.95901e-06 -2.32484e-06)
(0.000257534 -4.23018e-07 -1.00198e-07)
(0.000256974 -1.68415e-07 -1.12099e-07)
(0.000256974 1.67607e-07 -1.12119e-07)
(0.000257535 4.21747e-07 -1.00188e-07)
(0.00396063 -2.35009e-07 -3.71166e-09)
(0.00396056 -9.63217e-08 -4.18132e-09)
(0.00396056 9.70769e-08 -4.28088e-09)
(0.00396063 2.36017e-07 -3.90082e-09)
(0.0461524 -2.99711e-08 -2.0236e-12)
(0.0461524 -1.23886e-08 -1.03648e-10)
(0.0461524 1.28291e-08 -1.84228e-10)
(0.0461524 3.10407e-08 -1.95518e-10)
(0.368846 -1.03797e-08 6.79446e-11)
(0.368846 -4.57132e-09 -1.51175e-11)
(0.368846 4.0703e-09 2.39903e-10)
(0.368846 1.04752e-08 -2.28662e-10)
(-0.00802292 -9.45418e-05 -0.00493895)
(-0.00804628 -3.57962e-05 -0.00494281)
(-0.00804613 3.61207e-05 -0.00494135)
(-0.00802315 9.47036e-05 -0.00493633)
(-0.00103615 -9.82664e-05 -0.00066506)
(-0.00105491 -3.70509e-05 -0.000698342)
(-0.00105488 3.71489e-05 -0.000698166)
(-0.0010361 9.83249e-05 -0.000664668)
(-0.000100121 -8.41874e-06 -4.55462e-05)
(-0.000113162 -3.03603e-06 -4.9603e-05)
(-0.000113152 3.05661e-06 -4.95909e-05)
(-0.000100096 8.4294e-06 -4.55179e-05)
(6.79368e-06 -4.95679e-06 -2.32752e-06)
(5.62615e-06 -1.98194e-06 -2.59264e-06)
(5.62793e-06 1.98679e-06 -2.59148e-06)
(6.79822e-06 4.95899e-06 -2.32456e-06)
(0.000257534 -4.22904e-07 -1.00274e-07)
(0.000256974 -1.68373e-07 -1.1209e-07)
(0.000256974 1.67533e-07 -1.12114e-07)
(0.000257535 4.21585e-07 -1.00121e-07)
(0.00396063 -2.35001e-07 -3.77957e-09)
(0.00396056 -9.63194e-08 -4.1858e-09)
(0.00396056 9.70619e-08 -4.29258e-09)
(0.00396063 2.3598e-07 -3.87352e-09)
(0.0461524 -2.99651e-08 4.25613e-11)
(0.0461524 -1.24027e-08 1.59052e-10)
(0.0461524 1.28697e-08 -2.35329e-10)
(0.0461524 3.0956e-08 -3.94197e-10)
(0.368846 -1.04093e-08 2.57531e-11)
(0.368846 -4.58018e-09 4.02072e-10)
(0.368846 4.12163e-09 9.17796e-11)
(0.368846 1.03892e-08 -4.14678e-10)
(-0.00802292 -9.45424e-05 -0.00493895)
(-0.00804628 -3.57965e-05 -0.0049428)
(-0.00804613 3.61212e-05 -0.00494135)
(-0.00802315 9.47029e-05 -0.00493633)
(-0.00103615 -9.82669e-05 -0.00066506)
(-0.00105491 -3.70511e-05 -0.000698341)
(-0.00105487 3.71495e-05 -0.000698166)
(-0.0010361 9.8324e-05 -0.000664668)
(-0.000100121 -8.41878e-06 -4.55466e-05)
(-0.000113162 -3.03591e-06 -4.96029e-05)
(-0.000113152 3.05669e-06 -4.95904e-05)
(-0.000100096 8.42942e-06 -4.55181e-05)
(6.79387e-06 -4.95677e-06 -2.32719e-06)
(5.62671e-06 -1.98191e-06 -2.59256e-06)
(5.62837e-06 1.98676e-06 -2.59137e-06)
(6.79853e-06 4.95907e-06 -2.32422e-06)
(0.000257535 -4.22769e-07 -1.0065e-07)
(0.000256974 -1.68344e-07 -1.12228e-07)
(0.000256974 1.67455e-07 -1.12017e-07)
(0.000257535 4.21453e-07 -1.0006e-07)
(0.00396063 -2.34928e-07 -4.07599e-09)
(0.00396056 -9.62449e-08 -4.16106e-09)
(0.00396056 9.70168e-08 -4.15959e-09)
(0.00396063 2.35894e-07 -3.88921e-09)
(0.0461524 -2.98953e-08 -5.52787e-11)
(0.0461524 -1.22348e-08 3.5412e-10)
(0.0461524 1.27759e-08 -1.01284e-10)
(0.0461524 3.08631e-08 -4.26577e-10)
(0.368846 -1.04075e-08 -1.35531e-10)
(0.368846 -4.50103e-09 6.28745e-10)
(0.368846 4.07308e-09 1.0105e-10)
(0.368846 1.03625e-08 -4.42274e-10)
(-0.00802292 -9.45424e-05 -0.00493895)
(-0.00804627 -3.57967e-05 -0.00494281)
(-0.00804613 3.61203e-05 -0.00494135)
(-0.00802314 9.47042e-05 -0.00493633)
(-0.00103615 -9.82667e-05 -0.00066506)
(-0.00105491 -3.70513e-05 -0.000698341)
(-0.00105487 3.71486e-05 -0.000698166)
(-0.0010361 9.83253e-05 -0.000664668)
(-0.000100121 -8.41863e-06 -4.55463e-05)
(-0.000113162 -3.03597e-06 -4.96028e-05)
(-0.000113152 3.05676e-06 -4.95907e-05)
(-0.000100096 8.42969e-06 -4.55176e-05)
(6.79433e-06 -4.95678e-06 -2.32698e-06)
(5.62688e-06 -1.98193e-06 -2.59226e-06)
(5.62907e-06 1.98676e-06 -2.59142e-06)
(6.79832e-06 4.95915e-06 -2.32518e-06)
(0.000257534 -4.22887e-07 -1.0042e-07)
(0.000256974 -1.68324e-07 -1.12424e-07)
(0.000256974 1.67391e-07 -1.12199e-07)
(0.000257535 4.21159e-07 -1.00003e-07)
(0.00396063 -2.34815e-07 -3.99844e-09)
(0.00396056 -9.61157e-08 -4.34676e-09)
(0.00396056 9.70166e-08 -4.30283e-09)
(0.00396063 2.3582e-07 -3.7344e-09)
(0.0461524 -2.98582e-08 -1.53917e-10)
(0.0461524 -1.21683e-08 5.03029e-11)
(0.0461524 1.28083e-08 -1.53801e-10)
(0.0461524 3.0771e-08 -3.16695e-10)
(0.368846 -1.04431e-08 -2.98567e-10)
(0.368846 -4.50303e-09 1.79823e-10)
(0.368846 4.08498e-09 1.40649e-10)
(0.368846 1.02755e-08 -3.15843e-10)
)
;

boundaryField
{
    movingWall
    {
        type            fixedValue;
        value           uniform (1 0 0);
    }
    CPLReceiveMD
    {
        type            fixedValue;
        value           uniform (-0.00453282 0 -0.0184654);
    }
    streamwiseIn
    {
        type            cyclic;
    }
    streamwiseOut
    {
        type            cyclic;
    }
    front
    {
        type            cyclic;
    }
    back
    {
        type            cyclic;
    }
    procBoundary1to0
    {
        type            processor;
        value           nonuniform List<vector> 
64
(
(-0.00816777 -9.4704e-05 -0.00561758)
(-0.00101847 -9.83102e-05 -0.000631396)
(-8.12245e-05 -8.4317e-06 -3.99983e-05)
(8.52085e-06 -4.96925e-06 -1.94321e-06)
(0.00025834 -4.21243e-07 -8.24295e-08)
(0.00396074 -2.35089e-07 -3.1872e-09)
(0.0461525 -3.00429e-08 -1.43036e-10)
(0.368846 -1.05527e-08 2.41372e-11)
(-0.00816778 -9.47033e-05 -0.00561758)
(-0.00101847 -9.83096e-05 -0.000631395)
(-8.12247e-05 -8.43186e-06 -3.9998e-05)
(8.52132e-06 -4.96912e-06 -1.94324e-06)
(0.00025834 -4.21219e-07 -8.21837e-08)
(0.00396074 -2.35199e-07 -2.94532e-09)
(0.0461525 -3.00977e-08 9.12879e-11)
(0.368846 -1.05216e-08 4.51389e-10)
(-0.00816777 -9.4704e-05 -0.00561758)
(-0.00101847 -9.83101e-05 -0.000631396)
(-8.12247e-05 -8.43163e-06 -3.9998e-05)
(8.52138e-06 -4.96914e-06 -1.94339e-06)
(0.000258341 -4.21359e-07 -8.26423e-08)
(0.00396074 -2.35186e-07 -3.14298e-09)
(0.0461525 -2.9933e-08 1.2938e-10)
(0.368846 -1.0372e-08 5.8395e-10)
(-0.00816778 -9.47039e-05 -0.00561758)
(-0.00101847 -9.831e-05 -0.000631396)
(-8.12247e-05 -8.43169e-06 -3.99979e-05)
(8.52134e-06 -4.96917e-06 -1.94391e-06)
(0.000258341 -4.21353e-07 -8.27436e-08)
(0.00396074 -2.35112e-07 -3.12836e-09)
(0.0461525 -2.98528e-08 1.07772e-10)
(0.368846 -1.0314e-08 2.68379e-10)
(-0.00816778 -9.4704e-05 -0.00561758)
(-0.00101847 -9.831e-05 -0.000631396)
(-8.12249e-05 -8.4316e-06 -3.9998e-05)
(8.52119e-06 -4.96927e-06 -1.94422e-06)
(0.000258341 -4.21296e-07 -8.27045e-08)
(0.00396074 -2.35072e-07 -3.20376e-09)
(0.0461525 -2.98235e-08 -1.8421e-10)
(0.368846 -1.03009e-08 -2.49858e-10)
(-0.00816778 -9.47043e-05 -0.00561758)
(-0.00101847 -9.83103e-05 -0.000631396)
(-8.1225e-05 -8.4317e-06 -3.99983e-05)
(8.52099e-06 -4.96926e-06 -1.94437e-06)
(0.000258341 -4.21202e-07 -8.28409e-08)
(0.00396074 -2.35122e-07 -3.40588e-09)
(0.0461525 -2.99352e-08 -4.01834e-10)
(0.368846 -1.039e-08 -4.43766e-10)
(-0.00816777 -9.4704e-05 -0.00561758)
(-0.00101847 -9.83099e-05 -0.000631395)
(-8.12248e-05 -8.4318e-06 -3.99983e-05)
(8.5207e-06 -4.9693e-06 -1.94457e-06)
(0.000258341 -4.21168e-07 -8.2902e-08)
(0.00396074 -2.35115e-07 -3.41302e-09)
(0.0461525 -2.99579e-08 -2.70206e-10)
(0.368846 -1.04064e-08 -3.73209e-10)
(-0.00816778 -9.47039e-05 -0.00561758)
(-0.00101847 -9.83101e-05 -0.000631396)
(-8.12249e-05 -8.43218e-06 -3.99985e-05)
(8.52085e-06 -4.96928e-06 -1.94388e-06)
(0.00025834 -4.21001e-07 -8.29101e-08)
(0.00396074 -2.35096e-07 -3.4674e-09)
(0.0461525 -3.00359e-08 -2.65298e-10)
(0.368846 -1.05062e-08 -2.90983e-10)
)
;
    }
    procBoundary1to0throughstreamwiseOut
    {
        type            processorCyclic;
        value           nonuniform List<vector> 
64
(
(-0.008168 9.45384e-05 -0.00561496)
(-0.00101842 9.82585e-05 -0.000631014)
(-8.12001e-05 8.42229e-06 -3.99705e-05)
(8.52538e-06 4.96739e-06 -1.94295e-06)
(0.000258341 4.18751e-07 -8.27724e-08)
(0.00396074 2.35829e-07 -3.31188e-09)
(0.0461525 3.05099e-08 -1.3185e-10)
(0.368846 1.03047e-08 7.87692e-11)
(-0.00816801 9.45358e-05 -0.00561496)
(-0.00101842 9.8256e-05 -0.000631015)
(-8.11999e-05 8.42201e-06 -3.99698e-05)
(8.52544e-06 4.96728e-06 -1.94356e-06)
(0.000258342 4.1912e-07 -8.2745e-08)
(0.00396074 2.35866e-07 -3.2336e-09)
(0.0461525 3.05696e-08 -1.35202e-10)
(0.368846 1.03777e-08 1.14158e-10)
(-0.008168 9.45369e-05 -0.00561496)
(-0.00101842 9.82576e-05 -0.000631015)
(-8.12001e-05 8.42218e-06 -3.99702e-05)
(8.5259e-06 4.96717e-06 -1.94279e-06)
(0.000258342 4.19221e-07 -8.2709e-08)
(0.00396074 2.35869e-07 -3.39073e-09)
(0.0461525 3.0547e-08 -3.15828e-10)
(0.368846 1.03749e-08 -3.82147e-11)
(-0.00816801 9.45364e-05 -0.00561496)
(-0.00101842 9.8257e-05 -0.000631014)
(-8.12e-05 8.42216e-06 -3.99703e-05)
(8.52604e-06 4.96718e-06 -1.94218e-06)
(0.000258342 4.19244e-07 -8.25722e-08)
(0.00396074 2.35819e-07 -3.24564e-09)
(0.0461525 3.05121e-08 -1.15652e-10)
(0.368846 1.04015e-08 2.20771e-10)
(-0.00816801 9.45365e-05 -0.00561496)
(-0.00101842 9.82573e-05 -0.000631014)
(-8.11997e-05 8.42237e-06 -3.99705e-05)
(8.52603e-06 4.96717e-06 -1.94174e-06)
(0.000258342 4.19171e-07 -8.26461e-08)
(0.00396074 2.35848e-07 -3.21157e-09)
(0.0461525 3.05445e-08 2.92568e-11)
(0.368846 1.04233e-08 8.14154e-11)
(-0.008168 9.45362e-05 -0.00561496)
(-0.00101842 9.82569e-05 -0.000631013)
(-8.11996e-05 8.42253e-06 -3.99706e-05)
(8.52584e-06 4.96721e-06 -1.94143e-06)
(0.000258342 4.19044e-07 -8.26187e-08)
(0.00396074 2.35889e-07 -3.244e-09)
(0.0461525 3.05691e-08 -2.85839e-11)
(0.368846 1.03933e-08 -8.32865e-13)
(-0.00816801 9.4537e-05 -0.00561496)
(-0.00101842 9.82575e-05 -0.000631013)
(-8.11996e-05 8.4225e-06 -3.99702e-05)
(8.52564e-06 4.96725e-06 -1.94172e-06)
(0.000258341 4.18842e-07 -8.23019e-08)
(0.00396074 2.35892e-07 -3.02727e-09)
(0.0461525 3.06324e-08 -5.02147e-11)
(0.368846 1.04146e-08 -1.37028e-10)
(-0.00816801 9.45361e-05 -0.00561496)
(-0.00101842 9.82562e-05 -0.000631013)
(-8.11997e-05 8.42225e-06 -3.99706e-05)
(8.52511e-06 4.96728e-06 -1.94204e-06)
(0.000258341 4.18907e-07 -8.24935e-08)
(0.00396074 2.35808e-07 -3.2182e-09)
(0.0461525 3.05002e-08 -1.89199e-10)
(0.368846 1.03478e-08 -3.49155e-10)
)
;
    }
}


// ************************************************************************* //
