/*--------------------------------*- C++ -*----------------------------------*\
| =========                 |                                                 |
| \\      /  F ield         | OpenFOAM: The Open Source CFD Toolbox           |
|  \\    /   O peration     | Version:  2306                                  |
|   \\  /    A nd           | Website:  www.openfoam.com                      |
|    \\/     M anipulation  |                                                 |
\*---------------------------------------------------------------------------*/
FoamFile
{
    version     2.0;
    format      ascii;
    arch        "LSB;label=32;scalar=64";
    class       volVectorField;
    location    "5";
    object      U_0;
}
// * * * * * * * * * * * * * * * * * * * * * * * * * * * * * * * * * * * * * //

dimensions      [0 1 -1 0 0 0 0];

internalField   nonuniform List<vector> 
256
(
(-0.00790523 -7.50602e-05 -0.00496057)
(-0.00788645 -2.98125e-05 -0.00499138)
(-0.00788628 3.0095e-05 -0.00498984)
(-0.00790545 7.52023e-05 -0.00495761)
(-0.000995653 -7.39558e-05 -0.000645348)
(-0.00100431 -2.91686e-05 -0.000680134)
(-0.00100428 2.92543e-05 -0.000679959)
(-0.000995606 7.40084e-05 -0.000644957)
(-9.4731e-05 -2.99056e-06 -4.25942e-05)
(-0.000106262 -8.96079e-07 -4.66105e-05)
(-0.000106251 9.13712e-07 -4.65985e-05)
(-9.47061e-05 3.00094e-06 -4.25664e-05)
(6.15082e-06 -4.28236e-06 -2.12128e-06)
(5.16718e-06 -1.69618e-06 -2.37369e-06)
(5.16788e-06 1.69957e-06 -2.37302e-06)
(6.15323e-06 4.28304e-06 -2.11964e-06)
(0.000239723 -3.42209e-07 -8.96142e-08)
(0.000239192 -1.34313e-07 -1.00318e-07)
(0.000239191 1.34626e-07 -1.00302e-07)
(0.000239724 3.42303e-07 -8.95594e-08)
(0.0037599 -2.21603e-07 -3.40736e-09)
(0.00375983 -9.01982e-08 -3.69611e-09)
(0.00375983 9.24243e-08 -3.65506e-09)
(0.0037599 2.23997e-07 -3.46962e-09)
(0.0446745 -3.02313e-08 -2.06315e-10)
(0.0446745 -1.26914e-08 -2.41991e-10)
(0.0446745 1.17734e-08 -4.21698e-11)
(0.0446745 2.93455e-08 -2.22607e-10)
(0.363839 -1.13349e-08 1.69502e-10)
(0.363839 -5.24114e-09 -9.85484e-11)
(0.363839 3.28072e-09 1.28465e-10)
(0.363839 9.35088e-09 1.27539e-10)
(-0.00790523 -7.50591e-05 -0.00496057)
(-0.00788644 -2.98128e-05 -0.00499138)
(-0.00788628 3.00953e-05 -0.00498984)
(-0.00790546 7.52027e-05 -0.00495761)
(-0.000995654 -7.39548e-05 -0.000645348)
(-0.00100431 -2.91687e-05 -0.000680135)
(-0.00100428 2.92544e-05 -0.000679959)
(-0.000995607 7.40086e-05 -0.000644956)
(-9.47312e-05 -2.99057e-06 -4.25946e-05)
(-0.000106261 -8.95935e-07 -4.66104e-05)
(-0.000106251 9.13573e-07 -4.65985e-05)
(-9.4706e-05 3.00094e-06 -4.25667e-05)
(6.15082e-06 -4.28208e-06 -2.1213e-06)
(5.1672e-06 -1.69615e-06 -2.37384e-06)
(5.16807e-06 1.6996e-06 -2.37309e-06)
(6.15328e-06 4.28324e-06 -2.11959e-06)
(0.000239723 -3.42132e-07 -8.92765e-08)
(0.000239191 -1.34295e-07 -1.0053e-07)
(0.000239192 1.34619e-07 -1.00507e-07)
(0.000239724 3.42306e-07 -8.93068e-08)
(0.0037599 -2.21746e-07 -3.27255e-09)
(0.00375983 -9.0271e-08 -3.89341e-09)
(0.00375983 9.24371e-08 -3.82658e-09)
(0.0037599 2.23884e-07 -3.36498e-09)
(0.0446745 -3.01721e-08 -2.98672e-10)
(0.0446745 -1.26517e-08 -6.01685e-10)
(0.0446745 1.19028e-08 -1.69575e-10)
(0.0446745 2.93847e-08 -5.81133e-11)
(0.363839 -1.11973e-08 2.13538e-10)
(0.363839 -5.15993e-09 -3.03457e-10)
(0.363839 3.40607e-09 2.03298e-10)
(0.363839 9.45534e-09 5.80273e-10)
(-0.00790523 -7.50592e-05 -0.00496057)
(-0.00788645 -2.98123e-05 -0.00499138)
(-0.00788628 3.00955e-05 -0.00498984)
(-0.00790546 7.52029e-05 -0.00495761)
(-0.000995653 -7.39549e-05 -0.000645348)
(-0.00100431 -2.91684e-05 -0.000680134)
(-0.00100428 2.92546e-05 -0.00067996)
(-0.000995606 7.40087e-05 -0.000644956)
(-9.4731e-05 -2.9906e-06 -4.25943e-05)
(-0.000106261 -8.96029e-07 -4.66103e-05)
(-0.000106251 9.13644e-07 -4.65985e-05)
(-9.47061e-05 3.0009e-06 -4.25666e-05)
(6.15083e-06 -4.28206e-06 -2.12129e-06)
(5.16726e-06 -1.69613e-06 -2.37374e-06)
(5.16816e-06 1.69963e-06 -2.37309e-06)
(6.15338e-06 4.28325e-06 -2.11968e-06)
(0.000239723 -3.42122e-07 -8.96278e-08)
(0.000239192 -1.34304e-07 -1.00529e-07)
(0.000239192 1.34613e-07 -1.0052e-07)
(0.000239724 3.42277e-07 -8.96179e-08)
(0.0037599 -2.21821e-07 -3.49194e-09)
(0.00375983 -9.03849e-08 -3.85431e-09)
(0.00375983 9.24078e-08 -3.78668e-09)
(0.0037599 2.23911e-07 -3.40834e-09)
(0.0446745 -3.01944e-08 -3.96673e-10)
(0.0446745 -1.27051e-08 -6.23603e-10)
(0.0446745 1.19892e-08 -3.33637e-10)
(0.0446745 2.9618e-08 6.67649e-11)
(0.363839 -1.11554e-08 3.29606e-11)
(0.363839 -5.1224e-09 -3.62776e-10)
(0.363839 3.51228e-09 -3.01577e-10)
(0.363839 9.65782e-09 6.74596e-10)
(-0.00790523 -7.50589e-05 -0.00496057)
(-0.00788645 -2.98123e-05 -0.00499138)
(-0.00788628 3.00957e-05 -0.00498984)
(-0.00790546 7.52034e-05 -0.00495761)
(-0.000995654 -7.39547e-05 -0.000645348)
(-0.00100431 -2.91684e-05 -0.000680134)
(-0.00100428 2.92547e-05 -0.000679959)
(-0.000995606 7.40089e-05 -0.000644957)
(-9.47309e-05 -2.99067e-06 -4.25942e-05)
(-0.000106261 -8.96042e-07 -4.66103e-05)
(-0.000106251 9.13649e-07 -4.65984e-05)
(-9.47063e-05 3.00082e-06 -4.25666e-05)
(6.15083e-06 -4.28205e-06 -2.1212e-06)
(5.16726e-06 -1.69613e-06 -2.37366e-06)
(5.16816e-06 1.69965e-06 -2.37303e-06)
(6.15338e-06 4.2833e-06 -2.1197e-06)
(0.000239723 -3.42132e-07 -8.96456e-08)
(0.000239192 -1.34308e-07 -1.00521e-07)
(0.000239192 1.34622e-07 -1.00512e-07)
(0.000239724 3.42297e-07 -8.96144e-08)
(0.0037599 -2.21876e-07 -3.38142e-09)
(0.00375983 -9.04707e-08 -3.72465e-09)
(0.00375983 9.23673e-08 -3.68911e-09)
(0.0037599 2.23961e-07 -3.31975e-09)
(0.0446745 -3.02162e-08 -1.41639e-10)
(0.0446745 -1.27992e-08 -3.21863e-10)
(0.0446745 1.1931e-08 -2.20811e-10)
(0.0446745 2.97126e-08 8.97612e-11)
(0.363839 -1.11099e-08 2.43062e-10)
(0.363839 -5.17036e-09 -1.90932e-10)
(0.363839 3.45967e-09 -3.13751e-10)
(0.363839 9.73096e-09 2.88207e-10)
(-0.00790523 -7.50589e-05 -0.00496057)
(-0.00788645 -2.98122e-05 -0.00499138)
(-0.00788628 3.00958e-05 -0.00498984)
(-0.00790546 7.52033e-05 -0.00495761)
(-0.000995654 -7.39548e-05 -0.000645348)
(-0.00100431 -2.91684e-05 -0.000680134)
(-0.00100428 2.92548e-05 -0.000679959)
(-0.000995606 7.40088e-05 -0.000644957)
(-9.47309e-05 -2.9907e-06 -4.25942e-05)
(-0.000106261 -8.96086e-07 -4.66103e-05)
(-0.000106251 9.13555e-07 -4.65983e-05)
(-9.47064e-05 3.00084e-06 -4.25664e-05)
(6.15084e-06 -4.28206e-06 -2.12118e-06)
(5.16729e-06 -1.69611e-06 -2.37362e-06)
(5.16814e-06 1.69965e-06 -2.37298e-06)
(6.15337e-06 4.2833e-06 -2.11965e-06)
(0.000239723 -3.42115e-07 -8.97252e-08)
(0.000239192 -1.343e-07 -1.00575e-07)
(0.000239192 1.34627e-07 -1.00556e-07)
(0.000239724 3.42307e-07 -8.96672e-08)
(0.0037599 -2.21846e-07 -3.31968e-09)
(0.00375983 -9.04793e-08 -3.65075e-09)
(0.00375983 9.23681e-08 -3.70375e-09)
(0.0037599 2.23993e-07 -3.39916e-09)
(0.0446745 -3.01889e-08 3.19566e-11)
(0.0446745 -1.28466e-08 -3.78679e-11)
(0.0446745 1.19289e-08 -1.28597e-10)
(0.0446745 2.97537e-08 -1.69974e-10)
(0.363839 -1.10857e-08 5.20718e-11)
(0.363839 -5.19355e-09 -1.66029e-11)
(0.363839 3.44961e-09 2.21344e-10)
(0.363839 9.74633e-09 -2.53431e-10)
(-0.00790523 -7.50588e-05 -0.00496057)
(-0.00788644 -2.98123e-05 -0.00499138)
(-0.00788628 3.00956e-05 -0.00498984)
(-0.00790546 7.52033e-05 -0.00495761)
(-0.000995654 -7.39547e-05 -0.000645348)
(-0.00100431 -2.91684e-05 -0.000680134)
(-0.00100428 2.92545e-05 -0.00067996)
(-0.000995606 7.40089e-05 -0.000644957)
(-9.47308e-05 -2.99068e-06 -4.25942e-05)
(-0.000106261 -8.96093e-07 -4.66102e-05)
(-0.000106251 9.1352e-07 -4.65983e-05)
(-9.47063e-05 3.00086e-06 -4.25663e-05)
(6.15087e-06 -4.28207e-06 -2.12112e-06)
(5.16731e-06 -1.69613e-06 -2.37357e-06)
(5.16813e-06 1.69961e-06 -2.37299e-06)
(6.15335e-06 4.28325e-06 -2.11967e-06)
(0.000239723 -3.4211e-07 -8.98999e-08)
(0.000239192 -1.34296e-07 -1.00719e-07)
(0.000239192 1.34611e-07 -1.00677e-07)
(0.000239724 3.42281e-07 -8.97811e-08)
(0.0037599 -2.21798e-07 -3.39841e-09)
(0.00375983 -9.04419e-08 -3.6894e-09)
(0.00375983 9.23641e-08 -3.76304e-09)
(0.0037599 2.23964e-07 -3.45594e-09)
(0.0446745 -3.01837e-08 6.83373e-11)
(0.0446745 -1.28714e-08 2.3281e-10)
(0.0446745 1.19422e-08 -1.44586e-10)
(0.0446745 2.96467e-08 -3.23534e-10)
(0.363839 -1.11316e-08 -7.76161e-11)
(0.363839 -5.21773e-09 3.24974e-10)
(0.363839 3.48073e-09 -5.66714e-12)
(0.363839 9.64366e-09 -5.34465e-10)
(-0.00790523 -7.5059e-05 -0.00496057)
(-0.00788645 -2.98123e-05 -0.00499138)
(-0.00788628 3.00955e-05 -0.00498984)
(-0.00790546 7.52027e-05 -0.00495761)
(-0.000995653 -7.39549e-05 -0.000645348)
(-0.00100431 -2.91685e-05 -0.000680135)
(-0.00100428 2.92546e-05 -0.00067996)
(-0.000995606 7.40085e-05 -0.000644957)
(-9.47308e-05 -2.99069e-06 -4.25942e-05)
(-0.000106261 -8.96132e-07 -4.66101e-05)
(-0.000106251 9.1365e-07 -4.65983e-05)
(-9.47063e-05 3.00091e-06 -4.25664e-05)
(6.15085e-06 -4.28218e-06 -2.12095e-06)
(5.16727e-06 -1.69621e-06 -2.37358e-06)
(5.16804e-06 1.69953e-06 -2.37303e-06)
(6.15332e-06 4.28315e-06 -2.11972e-06)
(0.000239723 -3.42144e-07 -8.96978e-08)
(0.000239192 -1.3432e-07 -1.00851e-07)
(0.000239192 1.34598e-07 -1.00796e-07)
(0.000239724 3.42276e-07 -8.95842e-08)
(0.0037599 -2.21684e-07 -3.29276e-09)
(0.00375983 -9.02952e-08 -3.72084e-09)
(0.00375983 9.23962e-08 -3.77418e-09)
(0.0037599 2.2398e-07 -3.22913e-09)
(0.0446745 -3.01284e-08 1.10596e-10)
(0.0446745 -1.27161e-08 4.08144e-10)
(0.0446745 1.18322e-08 8.93876e-12)
(0.0446745 2.95487e-08 -1.35014e-10)
(0.363839 -1.11648e-08 -2.68358e-10)
(0.363839 -5.1734e-09 4.63488e-10)
(0.363839 3.38737e-09 -6.26891e-11)
(0.363839 9.56684e-09 -5.62574e-10)
(-0.00790523 -7.50588e-05 -0.00496057)
(-0.00788644 -2.98127e-05 -0.00499138)
(-0.00788628 3.00951e-05 -0.00498984)
(-0.00790546 7.52026e-05 -0.00495761)
(-0.000995653 -7.39547e-05 -0.000645348)
(-0.00100431 -2.91686e-05 -0.000680135)
(-0.00100428 2.92543e-05 -0.00067996)
(-0.000995607 7.40087e-05 -0.000644957)
(-9.47311e-05 -2.99066e-06 -4.25939e-05)
(-0.000106261 -8.95956e-07 -4.66103e-05)
(-0.000106251 9.13616e-07 -4.65984e-05)
(-9.47061e-05 3.00095e-06 -4.25663e-05)
(6.15082e-06 -4.28211e-06 -2.12108e-06)
(5.16708e-06 -1.69632e-06 -2.37356e-06)
(5.16799e-06 1.69946e-06 -2.37301e-06)
(6.15319e-06 4.28323e-06 -2.11974e-06)
(0.000239723 -3.4216e-07 -8.9843e-08)
(0.000239191 -1.34321e-07 -1.00504e-07)
(0.000239192 1.34593e-07 -1.00478e-07)
(0.000239724 3.42353e-07 -8.97263e-08)
(0.0037599 -2.21695e-07 -3.45936e-09)
(0.00375983 -9.01402e-08 -3.61455e-09)
(0.00375983 9.24946e-08 -3.64093e-09)
(0.0037599 2.23946e-07 -3.36559e-09)
(0.0446745 -3.02585e-08 -8.84611e-11)
(0.0446745 -1.26708e-08 1.9542e-10)
(0.0446745 1.18643e-08 3.95066e-11)
(0.0446745 2.93465e-08 -1.68943e-10)
(0.363839 -1.12949e-08 -3.92807e-10)
(0.363839 -5.21821e-09 1.54975e-10)
(0.363839 3.34685e-09 1.01664e-10)
(0.363839 9.38469e-09 -3.47885e-10)
)
;

boundaryField
{
    movingWall
    {
        type            fixedValue;
        value           uniform (1 0 0);
    }
    CPLReceiveMD
    {
        type            fixedValue;
        value           uniform (-0.0410897 0 0.0262656);
    }
    streamwiseIn
    {
        type            cyclic;
    }
    streamwiseOut
    {
        type            cyclic;
    }
    front
    {
        type            cyclic;
    }
    back
    {
        type            cyclic;
    }
    procBoundary1to0
    {
        type            processor;
        value           nonuniform List<vector> 
64
(
(-0.00792195 -7.52064e-05 -0.00571292)
(-0.000994855 -7.39925e-05 -0.000607709)
(-7.78669e-05 -3.00308e-06 -3.70627e-05)
(7.62172e-06 -4.29601e-06 -1.75467e-06)
(0.000240488 -3.39853e-07 -7.32745e-08)
(0.00376 -2.22013e-07 -2.77871e-09)
(0.0446746 -3.05119e-08 -1.56219e-10)
(0.363839 -1.14737e-08 1.34738e-10)
(-0.00792195 -7.52076e-05 -0.00571292)
(-0.000994855 -7.39938e-05 -0.000607709)
(-7.7867e-05 -3.00296e-06 -3.70627e-05)
(7.62172e-06 -4.29611e-06 -1.75481e-06)
(0.000240489 -3.39847e-07 -7.34129e-08)
(0.00376001 -2.21975e-07 -2.8557e-09)
(0.0446746 -3.04151e-08 -4.58621e-11)
(0.363839 -1.13633e-08 5.65981e-10)
(-0.00792195 -7.52057e-05 -0.00571292)
(-0.000994855 -7.39922e-05 -0.000607709)
(-7.78669e-05 -3.00296e-06 -3.70629e-05)
(7.62164e-06 -4.29593e-06 -1.75471e-06)
(0.000240489 -3.39788e-07 -7.32253e-08)
(0.00376001 -2.22009e-07 -2.72108e-09)
(0.0446746 -3.02347e-08 1.29597e-10)
(0.363839 -1.11746e-08 6.88504e-10)
(-0.00792195 -7.52058e-05 -0.00571292)
(-0.000994855 -7.39924e-05 -0.000607709)
(-7.78667e-05 -3.003e-06 -3.70627e-05)
(7.62165e-06 -4.29589e-06 -1.75465e-06)
(0.000240489 -3.39771e-07 -7.34113e-08)
(0.00376001 -2.21975e-07 -2.7837e-09)
(0.0446746 -3.01372e-08 1.11042e-10)
(0.363839 -1.11002e-08 2.94064e-10)
(-0.00792195 -7.52056e-05 -0.00571292)
(-0.000994855 -7.39923e-05 -0.000607709)
(-7.78666e-05 -3.00306e-06 -3.70627e-05)
(7.62166e-06 -4.29586e-06 -1.75463e-06)
(0.000240489 -3.3976e-07 -7.35167e-08)
(0.00376001 -2.21949e-07 -2.86116e-09)
(0.0446746 -3.00983e-08 -1.46267e-10)
(0.363839 -1.10865e-08 -2.52548e-10)
(-0.00792195 -7.52057e-05 -0.00571292)
(-0.000994855 -7.39924e-05 -0.000607709)
(-7.78666e-05 -3.00305e-06 -3.70625e-05)
(7.62167e-06 -4.29587e-06 -1.75456e-06)
(0.000240489 -3.39776e-07 -7.35484e-08)
(0.00376001 -2.21973e-07 -2.88406e-09)
(0.0446746 -3.02083e-08 -2.88604e-10)
(0.363839 -1.11925e-08 -5.23117e-10)
(-0.00792195 -7.52055e-05 -0.00571291)
(-0.000994855 -7.39921e-05 -0.000607709)
(-7.78667e-05 -3.00299e-06 -3.70621e-05)
(7.62166e-06 -4.29592e-06 -1.75452e-06)
(0.000240488 -3.39801e-07 -7.38681e-08)
(0.00376001 -2.21991e-07 -3.02761e-09)
(0.0446746 -3.03213e-08 -2.34499e-10)
(0.363839 -1.1275e-08 -5.83571e-10)
(-0.00792195 -7.52075e-05 -0.00571292)
(-0.000994855 -7.39938e-05 -0.000607709)
(-7.78669e-05 -3.00297e-06 -3.70624e-05)
(7.62178e-06 -4.29622e-06 -1.75451e-06)
(0.000240488 -3.39886e-07 -7.3512e-08)
(0.00376 -2.2188e-07 -2.86509e-09)
(0.0446746 -3.04056e-08 -1.83963e-10)
(0.363839 -1.14294e-08 -3.49805e-10)
)
;
    }
    procBoundary1to0throughstreamwiseOut
    {
        type            processorCyclic;
        value           nonuniform List<vector> 
64
(
(-0.00792218 7.50493e-05 -0.00570996)
(-0.00099481 7.39426e-05 -0.000607326)
(-7.78419e-05 2.99565e-06 -3.70354e-05)
(7.62479e-06 4.29304e-06 -1.75309e-06)
(0.000240489 3.39584e-07 -7.32675e-08)
(0.00376 2.23908e-07 -2.92332e-09)
(0.0446746 2.90254e-08 -2.16937e-10)
(0.363839 9.28488e-09 1.81689e-10)
(-0.00792217 7.505e-05 -0.00570996)
(-0.00099481 7.39433e-05 -0.000607326)
(-7.78418e-05 2.99571e-06 -3.70356e-05)
(7.62481e-06 4.29296e-06 -1.7531e-06)
(0.000240489 3.39504e-07 -7.34345e-08)
(0.00376001 2.23909e-07 -3.09054e-09)
(0.0446746 2.92114e-08 -3.99931e-10)
(0.363839 9.46506e-09 1.86234e-10)
(-0.00792218 7.50506e-05 -0.00570996)
(-0.000994811 7.39435e-05 -0.000607326)
(-7.7842e-05 2.99561e-06 -3.70358e-05)
(7.62481e-06 4.29309e-06 -1.75315e-06)
(0.000240489 3.39467e-07 -7.32953e-08)
(0.00376001 2.23801e-07 -2.93089e-09)
(0.0446746 2.91882e-08 -3.63862e-10)
(0.363839 9.51081e-09 4.6082e-11)
(-0.00792218 7.50507e-05 -0.00570996)
(-0.00099481 7.39435e-05 -0.000607326)
(-7.78421e-05 2.99558e-06 -3.70357e-05)
(7.62481e-06 4.29315e-06 -1.75319e-06)
(0.00024049 3.39463e-07 -7.34011e-08)
(0.00376001 2.23758e-07 -2.82565e-09)
(0.0446746 2.91642e-08 -1.16328e-10)
(0.363839 9.55512e-09 2.45826e-10)
(-0.00792218 7.50509e-05 -0.00570996)
(-0.00099481 7.39436e-05 -0.000607326)
(-7.78421e-05 2.99557e-06 -3.70355e-05)
(7.6248e-06 4.29319e-06 -1.75316e-06)
(0.00024049 3.39478e-07 -7.34209e-08)
(0.00376001 2.23784e-07 -2.76154e-09)
(0.0446746 2.91869e-08 5.55553e-11)
(0.363839 9.57792e-09 5.76787e-11)
(-0.00792218 7.50506e-05 -0.00570996)
(-0.00099481 7.39434e-05 -0.000607327)
(-7.78422e-05 2.99556e-06 -3.70352e-05)
(7.62477e-06 4.29315e-06 -1.75318e-06)
(0.00024049 3.39486e-07 -7.34084e-08)
(0.00376001 2.2382e-07 -2.68944e-09)
(0.0446746 2.91899e-08 1.38926e-10)
(0.363839 9.53107e-09 -6.35542e-11)
(-0.00792218 7.50505e-05 -0.00570996)
(-0.000994811 7.39435e-05 -0.000607327)
(-7.78421e-05 2.99567e-06 -3.7035e-05)
(7.62477e-06 4.29311e-06 -1.75332e-06)
(0.00024049 3.39535e-07 -7.36746e-08)
(0.00376001 2.23878e-07 -2.76771e-09)
(0.0446746 2.91894e-08 1.17451e-10)
(0.363839 9.48141e-09 -2.98374e-10)
(-0.00792217 7.50498e-05 -0.00570996)
(-0.00099481 7.39433e-05 -0.000607326)
(-7.78419e-05 2.99579e-06 -3.70352e-05)
(7.62481e-06 4.2929e-06 -1.75324e-06)
(0.000240489 3.39564e-07 -7.34143e-08)
(0.00376 2.24005e-07 -2.77783e-09)
(0.0446746 2.91126e-08 -3.04605e-11)
(0.363839 9.35648e-09 -3.81431e-10)
)
;
    }
}


// ************************************************************************* //
