/*--------------------------------*- C++ -*----------------------------------*\
| =========                 |                                                 |
| \\      /  F ield         | OpenFOAM: The Open Source CFD Toolbox           |
|  \\    /   O peration     | Version:  2306                                  |
|   \\  /    A nd           | Website:  www.openfoam.com                      |
|    \\/     M anipulation  |                                                 |
\*---------------------------------------------------------------------------*/
FoamFile
{
    version     2.0;
    format      ascii;
    arch        "LSB;label=32;scalar=64";
    class       volScalarField;
    location    "3";
    object      p;
}
// * * * * * * * * * * * * * * * * * * * * * * * * * * * * * * * * * * * * * //

dimensions      [0 2 -2 0 0 0 0];

internalField   nonuniform List<scalar> 
256
(
2.05858e-05
7.44138e-08
-2.20863e-05
-4.24765e-05
-1.78056e-05
-1.19314e-05
-1.04179e-05
-4.3729e-06
-2.96473e-05
-1.87138e-05
-3.29273e-06
7.67733e-06
-9.59374e-06
-1.04566e-05
-1.14528e-05
-1.23236e-05
-1.08656e-05
-1.09212e-05
-1.09955e-05
-1.10474e-05
-1.12495e-05
-1.10973e-05
-1.08827e-05
-1.07297e-05
-1.10114e-05
-1.09982e-05
-1.09782e-05
-1.0963e-05
-1.09459e-05
-1.0945e-05
-1.09434e-05
-1.09394e-05
2.05905e-05
9.16867e-08
-2.20787e-05
-4.24666e-05
-1.77835e-05
-1.19091e-05
-1.04082e-05
-4.37154e-06
-2.96289e-05
-1.86999e-05
-3.28886e-06
7.6715e-06
-9.57569e-06
-1.04497e-05
-1.14619e-05
-1.23444e-05
-1.08613e-05
-1.09232e-05
-1.1006e-05
-1.10632e-05
-1.12508e-05
-1.10994e-05
-1.08846e-05
-1.07307e-05
-1.10115e-05
-1.09976e-05
-1.09759e-05
-1.09596e-05
-1.09478e-05
-1.0945e-05
-1.09419e-05
-1.09387e-05
2.06287e-05
1.09877e-07
-2.20591e-05
-4.24567e-05
-1.77558e-05
-1.18839e-05
-1.03926e-05
-4.37482e-06
-2.9612e-05
-1.8689e-05
-3.28961e-06
7.66139e-06
-9.55964e-06
-1.04458e-05
-1.14738e-05
-1.23661e-05
-1.08561e-05
-1.09231e-05
-1.10139e-05
-1.10773e-05
-1.12502e-05
-1.10987e-05
-1.08842e-05
-1.0731e-05
-1.10117e-05
-1.0997e-05
-1.09737e-05
-1.09559e-05
-1.09505e-05
-1.09458e-05
-1.09411e-05
-1.09383e-05
2.06468e-05
1.26113e-07
-2.20496e-05
-4.24513e-05
-1.77421e-05
-1.18724e-05
-1.0389e-05
-4.38314e-06
-2.96047e-05
-1.86891e-05
-3.29575e-06
7.65212e-06
-9.55477e-06
-1.04473e-05
-1.14813e-05
-1.23759e-05
-1.08543e-05
-1.09233e-05
-1.10166e-05
-1.10819e-05
-1.12482e-05
-1.10968e-05
-1.08829e-05
-1.07301e-05
-1.10117e-05
-1.09976e-05
-1.09739e-05
-1.09543e-05
-1.09533e-05
-1.09486e-05
-1.09445e-05
-1.09394e-05
2.06467e-05
1.22336e-07
-2.2055e-05
-4.24576e-05
-1.77435e-05
-1.18817e-05
-1.04013e-05
-4.39153e-06
-2.96085e-05
-1.86982e-05
-3.30594e-06
7.64667e-06
-9.56107e-06
-1.04522e-05
-1.14818e-05
-1.23717e-05
-1.08558e-05
-1.09226e-05
-1.10134e-05
-1.10774e-05
-1.12456e-05
-1.10942e-05
-1.08811e-05
-1.07295e-05
-1.10104e-05
-1.09973e-05
-1.0974e-05
-1.09544e-05
-1.09536e-05
-1.09505e-05
-1.09466e-05
-1.09403e-05
2.06376e-05
1.07136e-07
-2.20692e-05
-4.24646e-05
-1.77576e-05
-1.19014e-05
-1.04154e-05
-4.39348e-06
-2.96214e-05
-1.87113e-05
-3.31274e-06
7.64993e-06
-9.57488e-06
-1.04581e-05
-1.14755e-05
-1.23561e-05
-1.08587e-05
-1.09198e-05
-1.10049e-05
-1.10659e-05
-1.12435e-05
-1.10912e-05
-1.08791e-05
-1.07288e-05
-1.1009e-05
-1.09965e-05
-1.09746e-05
-1.09563e-05
-1.09506e-05
-1.09492e-05
-1.09453e-05
-1.09391e-05
2.06261e-05
9.49024e-08
-2.20806e-05
-4.24698e-05
-1.77829e-05
-1.19207e-05
-1.04221e-05
-4.38624e-06
-2.96401e-05
-1.87215e-05
-3.30968e-06
7.66113e-06
-9.59054e-06
-1.0462e-05
-1.14641e-05
-1.23345e-05
-1.08632e-05
-1.09165e-05
-1.09941e-05
-1.10515e-05
-1.12443e-05
-1.10904e-05
-1.08775e-05
-1.07286e-05
-1.10085e-05
-1.09961e-05
-1.09758e-05
-1.09595e-05
-1.0945e-05
-1.09454e-05
-1.09429e-05
-1.09364e-05
2.0597e-05
8.68028e-08
-2.20838e-05
-4.24771e-05
-1.78044e-05
-1.19333e-05
-1.04225e-05
-4.37809e-06
-2.96525e-05
-1.87229e-05
-3.30154e-06
7.67358e-06
-9.5991e-06
-1.04618e-05
-1.14538e-05
-1.23189e-05
-1.08676e-05
-1.09172e-05
-1.09892e-05
-1.10433e-05
-1.12472e-05
-1.10927e-05
-1.0879e-05
-1.07296e-05
-1.10098e-05
-1.09969e-05
-1.09774e-05
-1.09626e-05
-1.09424e-05
-1.09432e-05
-1.09418e-05
-1.09363e-05
)
;

boundaryField
{
    movingWall
    {
        type            zeroGradient;
    }
    CPLReceiveMD
    {
        type            zeroGradient;
    }
    streamwiseIn
    {
        type            cyclic;
    }
    streamwiseOut
    {
        type            cyclic;
    }
    front
    {
        type            cyclic;
    }
    back
    {
        type            cyclic;
    }
    procBoundary1to0
    {
        type            processor;
        value           nonuniform List<scalar> 
64
(
2.04372e-05
-1.75961e-05
-2.94602e-05
-9.65474e-06
-1.08685e-05
-1.12498e-05
-1.10088e-05
-1.09436e-05
2.0447e-05
-1.75803e-05
-2.94475e-05
-9.63831e-06
-1.08601e-05
-1.12482e-05
-1.10086e-05
-1.09451e-05
2.04937e-05
-1.75581e-05
-2.9431e-05
-9.62088e-06
-1.0854e-05
-1.12473e-05
-1.10089e-05
-1.09482e-05
2.05274e-05
-1.75424e-05
-2.94192e-05
-9.61284e-06
-1.0853e-05
-1.12467e-05
-1.1009e-05
-1.09514e-05
2.0534e-05
-1.75395e-05
-2.94155e-05
-9.61602e-06
-1.08557e-05
-1.12456e-05
-1.10081e-05
-1.09524e-05
2.05307e-05
-1.75481e-05
-2.94233e-05
-9.62871e-06
-1.08615e-05
-1.12457e-05
-1.10074e-05
-1.09495e-05
2.05001e-05
-1.75668e-05
-2.9441e-05
-9.64643e-06
-1.08679e-05
-1.12473e-05
-1.10071e-05
-1.09435e-05
2.04581e-05
-1.75861e-05
-2.94577e-05
-9.65915e-06
-1.08705e-05
-1.12487e-05
-1.10075e-05
-1.09403e-05
)
;
    }
    procBoundary1to0throughstreamwiseOut
    {
        type            processorCyclic;
        value           nonuniform List<scalar> 
64
(
-4.26515e-05
-4.16267e-06
7.54388e-06
-1.22799e-05
-1.10474e-05
-1.07293e-05
-1.09597e-05
-1.09342e-05
-4.26279e-05
-4.16791e-06
7.53246e-06
-1.23021e-05
-1.10597e-05
-1.07278e-05
-1.09561e-05
-1.09338e-05
-4.26065e-05
-4.18042e-06
7.52203e-06
-1.23219e-05
-1.1073e-05
-1.07276e-05
-1.09527e-05
-1.09334e-05
-4.26045e-05
-4.18996e-06
7.51593e-06
-1.23282e-05
-1.10784e-05
-1.07284e-05
-1.09517e-05
-1.09345e-05
-4.2606e-05
-4.19497e-06
7.51759e-06
-1.23208e-05
-1.1075e-05
-1.0729e-05
-1.09522e-05
-1.09348e-05
-4.26113e-05
-4.19159e-06
7.52598e-06
-1.23039e-05
-1.10661e-05
-1.07302e-05
-1.09545e-05
-1.09337e-05
-4.26193e-05
-4.17697e-06
7.53873e-06
-1.22844e-05
-1.10539e-05
-1.0731e-05
-1.09575e-05
-1.09311e-05
-4.26386e-05
-4.16395e-06
7.54692e-06
-1.22731e-05
-1.10443e-05
-1.073e-05
-1.09596e-05
-1.09311e-05
)
;
    }
}


// ************************************************************************* //
