/*--------------------------------*- C++ -*----------------------------------*\
| =========                 |                                                 |
| \\      /  F ield         | OpenFOAM: The Open Source CFD Toolbox           |
|  \\    /   O peration     | Version:  2306                                  |
|   \\  /    A nd           | Website:  www.openfoam.com                      |
|    \\/     M anipulation  |                                                 |
\*---------------------------------------------------------------------------*/
FoamFile
{
    version     2.0;
    format      ascii;
    arch        "LSB;label=32;scalar=64";
    class       surfaceScalarField;
    location    "3";
    object      phi;
}
// * * * * * * * * * * * * * * * * * * * * * * * * * * * * * * * * * * * * * //

dimensions      [0 3 -1 0 0 0 0];

oriented        oriented;

internalField   nonuniform List<scalar> 
640
(
-0.0764031
0.000207162
-0.0613156
-0.0764866
8.34798e-05
-0.0676404
-0.0764022
-8.43567e-05
-0.0676216
-0.000207405
-0.0612495
-0.00557862
0.000137419
-0.00219197
-0.00555657
6.14213e-05
-0.00260133
-0.00557915
-6.17749e-05
-0.00260044
-0.000137576
-0.00218934
-0.000166288
2.98517e-05
-7.73767e-05
-0.000117004
1.21382e-05
-9.13173e-05
-0.000166518
-1.22596e-05
-9.12885e-05
-2.99002e-05
-7.73007e-05
2.43846e-05
1.08794e-05
-2.70529e-06
3.21118e-05
4.41043e-06
-2.97423e-06
2.4288e-05
-4.43637e-06
-2.97353e-06
-1.08906e-05
-2.70317e-06
0.000490322
2.16237e-06
-8.25191e-08
0.000493852
8.81175e-07
-8.36644e-08
0.000490303
-8.85794e-07
-8.47972e-08
-2.16458e-06
-8.42593e-08
0.0121505
6.51103e-07
-3.02514e-09
0.0121511
2.69441e-07
-2.83467e-09
0.0121505
-2.65815e-07
-1.24299e-09
-6.49454e-07
-1.57144e-09
0.232313
1.37428e-07
-3.03727e-10
0.232313
5.91353e-08
-1.88402e-09
0.232313
-5.18825e-08
1.69328e-09
-1.3415e-07
1.78388e-09
3.01658
-1.59503e-09
3.01658
-4.12148e-09
3.01658
1.69845e-09
2.58914e-09
-0.0764031
0.000207161
-0.0613156
-0.0764866
8.3481e-05
-0.0676404
-0.0764022
-8.43555e-05
-0.0676216
-0.000207409
-0.0612495
-0.00557862
0.000137417
-0.00219197
-0.00555656
6.14223e-05
-0.00260133
-0.00557915
-6.17733e-05
-0.00260044
-0.000137577
-0.00218933
-0.000166288
2.98523e-05
-7.73769e-05
-0.000117005
1.21385e-05
-9.13166e-05
-0.000166518
-1.22597e-05
-9.12887e-05
-2.99009e-05
-7.73003e-05
2.43867e-05
1.08791e-05
-2.70639e-06
3.21146e-05
4.41035e-06
-2.97402e-06
2.429e-05
-4.43555e-06
-2.97309e-06
-1.08892e-05
-2.70353e-06
0.000490323
2.16301e-06
-8.32444e-08
0.000493852
8.81318e-07
-8.45016e-08
0.000490303
-8.85731e-07
-8.50936e-08
-2.16458e-06
-8.3915e-08
0.0121505
6.51214e-07
-2.94712e-09
0.0121511
2.69488e-07
-2.8264e-09
0.0121505
-2.6561e-07
-1.39872e-09
-6.49577e-07
-6.13428e-10
0.232313
1.37945e-07
-4.87274e-10
0.232313
5.95605e-08
-3.04133e-09
0.232313
-5.16185e-08
1.11258e-09
-1.33943e-07
3.51142e-09
3.01658
-2.40645e-09
3.01658
-6.06895e-09
3.01658
6.83765e-10
6.7038e-09
-0.0764031
0.00020716
-0.0613156
-0.0764866
8.34804e-05
-0.0676404
-0.0764022
-8.43548e-05
-0.0676216
-0.000207409
-0.0612495
-0.00557862
0.000137419
-0.00219197
-0.00555656
6.14216e-05
-0.00260133
-0.00557915
-6.17725e-05
-0.00260044
-0.000137574
-0.00218933
-0.000166289
2.98531e-05
-7.73773e-05
-0.000117006
1.21389e-05
-9.13175e-05
-0.000166519
-1.226e-05
-9.12883e-05
-2.99015e-05
-7.72996e-05
2.43883e-05
1.08788e-05
-2.70591e-06
3.21164e-05
4.41094e-06
-2.97409e-06
2.42908e-05
-4.43432e-06
-2.97312e-06
-1.08879e-05
-2.70281e-06
0.000490322
2.16318e-06
-8.40028e-08
0.000493852
8.81156e-07
-8.47459e-08
0.000490303
-8.85898e-07
-8.45584e-08
-2.16476e-06
-8.28147e-08
0.0121505
6.5106e-07
-2.88304e-09
0.0121511
2.69152e-07
-2.5344e-09
0.0121505
-2.65387e-07
-1.7423e-09
-6.49259e-07
-1.05743e-09
0.232313
1.3786e-07
-5.90561e-10
0.232313
5.91569e-08
-2.3252e-09
0.232313
-5.12535e-08
-3.32383e-10
-1.33274e-07
3.34362e-09
3.01658
-5.71428e-10
3.01658
-3.49318e-09
3.01658
-2.57442e-09
6.3031e-09
-0.0764031
0.00020716
-0.0613156
-0.0764866
8.34821e-05
-0.0676404
-0.0764022
-8.4355e-05
-0.0676216
-0.00020741
-0.0612495
-0.00557862
0.000137419
-0.00219197
-0.00555656
6.14226e-05
-0.00260133
-0.00557915
-6.17726e-05
-0.00260044
-0.000137574
-0.00218934
-0.000166289
2.98535e-05
-7.73778e-05
-0.000117006
1.21392e-05
-9.13169e-05
-0.00016652
-1.22601e-05
-9.12871e-05
-2.99021e-05
-7.72987e-05
2.4388e-05
1.0879e-05
-2.70528e-06
3.2116e-05
4.41142e-06
-2.9743e-06
2.42902e-05
-4.43355e-06
-2.9739e-06
-1.08872e-05
-2.70416e-06
0.000490321
2.16305e-06
-8.33504e-08
0.000493851
8.80877e-07
-8.42694e-08
0.000490302
-8.86061e-07
-8.37314e-08
-2.16468e-06
-8.21078e-08
0.0121505
6.50722e-07
-2.15972e-09
0.0121511
2.68854e-07
-2.03229e-09
0.0121505
-2.6556e-07
-2.06289e-09
-6.489e-07
-2.05266e-09
0.232313
1.37713e-07
5.80051e-10
0.232313
5.8783e-08
-6.08377e-10
0.232313
-5.16862e-08
-8.27243e-10
-1.32909e-07
5.05324e-10
3.01658
1.97931e-09
3.01658
-1.38359e-09
3.01658
-1.11436e-09
4.30095e-10
-0.0764031
0.000207159
-0.0613156
-0.0764866
8.34818e-05
-0.0676404
-0.0764022
-8.43554e-05
-0.0676216
-0.00020741
-0.0612495
-0.00557863
0.000137419
-0.00219197
-0.00555657
6.1422e-05
-0.00260133
-0.00557915
-6.17731e-05
-0.00260044
-0.000137574
-0.00218934
-0.000166288
2.98533e-05
-7.73775e-05
-0.000117005
1.2139e-05
-9.1317e-05
-0.000166519
-1.226e-05
-9.12863e-05
-2.99017e-05
-7.72964e-05
2.43875e-05
1.08797e-05
-2.7054e-06
3.21152e-05
4.41189e-06
-2.97488e-06
2.42896e-05
-4.43365e-06
-2.97469e-06
-1.08878e-05
-2.70558e-06
0.000490321
2.16297e-06
-8.23257e-08
0.000493851
8.80725e-07
-8.3548e-08
0.000490303
-8.86108e-07
-8.30497e-08
-2.1646e-06
-8.18064e-08
0.0121505
6.50633e-07
-1.50752e-09
0.0121511
2.6867e-07
-1.55772e-09
0.0121505
-2.65545e-07
-2.36937e-09
-6.48603e-07
-3.03831e-09
0.232313
1.37928e-07
9.15798e-10
0.232313
5.87432e-08
1.73336e-09
0.232313
-5.16947e-08
-1.46997e-09
-1.32649e-07
-2.36393e-09
3.01658
2.86594e-09
3.01658
2.16347e-09
3.01658
2.3252e-10
-4.67403e-09
-0.0764031
0.000207158
-0.0613156
-0.0764866
8.34806e-05
-0.0676404
-0.0764022
-8.43551e-05
-0.0676216
-0.000207409
-0.0612495
-0.00557863
0.000137419
-0.00219197
-0.00555656
6.14212e-05
-0.00260133
-0.00557915
-6.17733e-05
-0.00260044
-0.000137575
-0.00218934
-0.000166287
2.98526e-05
-7.7377e-05
-0.000117004
1.21385e-05
-9.13165e-05
-0.000166519
-1.22598e-05
-9.12851e-05
-2.9901e-05
-7.72946e-05
2.43871e-05
1.08805e-05
-2.707e-06
3.21142e-05
4.41201e-06
-2.97549e-06
2.42891e-05
-4.43447e-06
-2.97483e-06
-1.0889e-05
-2.70624e-06
0.000490322
2.16285e-06
-8.20625e-08
0.000493853
8.80684e-07
-8.3085e-08
0.000490304
-8.86192e-07
-8.25205e-08
-2.16464e-06
-8.13617e-08
0.0121505
6.50627e-07
-8.43651e-10
0.0121511
2.68489e-07
-1.08338e-09
0.0121505
-2.65507e-07
-2.61149e-09
-6.48764e-07
-3.27427e-09
0.232313
1.37925e-07
3.24408e-10
0.232313
5.85271e-08
3.03825e-09
0.232313
-5.16229e-08
-1.32354e-09
-1.33232e-07
-3.45098e-09
3.01658
1.71664e-09
3.01658
6.20931e-09
3.01658
-9.48419e-10
-6.41908e-09
-0.0764031
0.000207158
-0.0613156
-0.0764866
8.34806e-05
-0.0676404
-0.0764022
-8.43568e-05
-0.0676216
-0.000207407
-0.0612495
-0.00557862
0.00013742
-0.00219197
-0.00555657
6.14215e-05
-0.00260133
-0.00557915
-6.1775e-05
-0.00260044
-0.000137575
-0.00218934
-0.000166287
2.98519e-05
-7.7377e-05
-0.000117004
1.21381e-05
-9.13166e-05
-0.000166518
-1.22595e-05
-9.12861e-05
-2.99002e-05
-7.72955e-05
2.43863e-05
1.08806e-05
-2.70694e-06
3.21128e-05
4.41171e-06
-2.97561e-06
2.42881e-05
-4.43532e-06
-2.97432e-06
-1.08904e-05
-2.70405e-06
0.000490323
2.16259e-06
-8.24931e-08
0.000493854
8.80801e-07
-8.31311e-08
0.000490305
-8.86213e-07
-8.25271e-08
-2.16453e-06
-8.15057e-08
0.0121505
6.50948e-07
-1.51879e-09
0.0121511
2.69067e-07
-1.15107e-09
0.0121505
-2.65832e-07
-2.44483e-09
-6.48741e-07
-3.43654e-09
0.232313
1.37957e-07
-1.2596e-10
0.232313
5.90845e-08
2.46684e-09
0.232313
-5.20856e-08
-3.91196e-10
-1.3356e-07
-2.97569e-09
3.01658
-9.96624e-10
3.01658
5.11435e-09
3.01658
8.65376e-10
-4.81544e-09
-0.0764031
0.000207161
-0.0764866
8.34803e-05
-0.0764022
-8.43549e-05
-0.000207408
-0.00557862
0.000137418
-0.00555656
6.14218e-05
-0.00557915
-6.17737e-05
-0.000137579
-0.000166288
2.98514e-05
-0.000117005
1.21382e-05
-0.000166518
-1.22594e-05
-2.99004e-05
2.43845e-05
1.08801e-05
3.21108e-05
4.41103e-06
2.42872e-05
-4.4361e-06
-1.08911e-05
0.000490322
2.16266e-06
0.000493853
8.80889e-07
0.000490304
-8.85935e-07
-2.16412e-06
0.0121505
6.51214e-07
0.0121511
2.69455e-07
0.0121505
-2.65555e-07
-6.48991e-07
0.232313
1.37575e-07
0.232313
5.91532e-08
0.232313
-5.16782e-08
-1.33876e-07
3.01658
3.01658
3.01658
)
;

boundaryField
{
    movingWall
    {
        type            calculated;
        value           uniform 0;
    }
    CPLReceiveMD
    {
        type            calculated;
        value           uniform 0;
    }
    streamwiseIn
    {
        type            cyclic;
        value           nonuniform List<scalar> 0();
    }
    streamwiseOut
    {
        type            cyclic;
        value           nonuniform List<scalar> 0();
    }
    front
    {
        type            cyclic;
        value           nonuniform List<scalar> 
32
(
-0.0613156
-0.00219197
-7.73766e-05
-2.70617e-06
-8.21963e-08
-2.29628e-09
-5.62544e-10
-1.43122e-09
-0.0676404
-0.00260133
-9.13168e-05
-2.9748e-06
-8.32482e-08
-2.04286e-09
5.32578e-10
4.59914e-10
-0.0676216
-0.00260044
-9.12868e-05
-2.97397e-06
-8.36408e-08
-2.09795e-09
9.1948e-10
2.08762e-09
-0.0612495
-0.00218934
-7.7299e-05
-2.70355e-06
-8.28823e-08
-2.45759e-09
-7.46116e-10
-1.37487e-09
)
;
    }
    back
    {
        type            cyclic;
        value           nonuniform List<scalar> 
32
(
0.0613156
0.00219197
7.73766e-05
2.70617e-06
8.21963e-08
2.29628e-09
5.62544e-10
1.43122e-09
0.0676404
0.00260133
9.13168e-05
2.9748e-06
8.32482e-08
2.04286e-09
-5.32578e-10
-4.59914e-10
0.0676216
0.00260044
9.12868e-05
2.97397e-06
8.36408e-08
2.09795e-09
-9.1948e-10
-2.08762e-09
0.0612495
0.00218934
7.7299e-05
2.70355e-06
8.28823e-08
2.45759e-09
7.46116e-10
1.37487e-09
)
;
    }
    procBoundary1to0
    {
        type            processor;
        value           nonuniform List<scalar> 
64
(
0.0761959
0.00564836
0.000273856
-5.41313e-06
-0.000481605
-0.012149
-0.232313
-3.01658
0.0761959
0.00564836
0.000273853
-5.4124e-06
-0.000481606
-0.012149
-0.232313
-3.01658
0.0761959
0.00564836
0.000273856
-5.41442e-06
-0.000481606
-0.012149
-0.232313
-3.01658
0.0761959
0.00564837
0.000273855
-5.41413e-06
-0.000481605
-0.012149
-0.232313
-3.01658
0.0761959
0.00564837
0.000273854
-5.41375e-06
-0.000481605
-0.012149
-0.232313
-3.01658
0.0761959
0.00564837
0.000273852
-5.41336e-06
-0.000481605
-0.012149
-0.232313
-3.01658
0.0761959
0.00564836
0.000273855
-5.41505e-06
-0.000481605
-0.012149
-0.232313
-3.01658
0.0761959
0.00564837
0.000273855
-5.41399e-06
-0.000481605
-0.012149
-0.232313
-3.01658
)
;
    }
    procBoundary1to0throughstreamwiseOut
    {
        type            processorCyclic;
        value           nonuniform List<scalar> 
64
(
-0.0761948
-0.00564898
-0.000274192
5.27803e-06
0.000481578
0.012149
0.232313
3.01658
-0.0761948
-0.00564898
-0.000274195
5.27871e-06
0.000481578
0.012149
0.232313
3.01658
-0.0761948
-0.00564898
-0.000274192
5.27647e-06
0.000481579
0.012149
0.232313
3.01658
-0.0761948
-0.00564898
-0.000274193
5.2767e-06
0.000481579
0.012149
0.232313
3.01658
-0.0761948
-0.00564898
-0.000274194
5.27714e-06
0.00048158
0.012149
0.232313
3.01658
-0.0761948
-0.00564898
-0.000274195
5.27776e-06
0.000481579
0.012149
0.232313
3.01658
-0.0761948
-0.00564898
-0.000274193
5.27612e-06
0.000481579
0.012149
0.232313
3.01658
-0.0761948
-0.00564898
-0.000274193
5.27737e-06
0.000481578
0.012149
0.232313
3.01658
)
;
    }
}


// ************************************************************************* //
