/*--------------------------------*- C++ -*----------------------------------*\
| =========                 |                                                 |
| \\      /  F ield         | OpenFOAM: The Open Source CFD Toolbox           |
|  \\    /   O peration     | Version:  2306                                  |
|   \\  /    A nd           | Website:  www.openfoam.com                      |
|    \\/     M anipulation  |                                                 |
\*---------------------------------------------------------------------------*/
FoamFile
{
    version     2.0;
    format      ascii;
    arch        "LSB;label=32;scalar=64";
    class       surfaceScalarField;
    location    "3";
    object      phi_0;
}
// * * * * * * * * * * * * * * * * * * * * * * * * * * * * * * * * * * * * * //

dimensions      [0 3 -1 0 0 0 0];

oriented        oriented;

internalField   nonuniform List<scalar> 
640
(
-0.0742847
0.000199785
-0.0570567
-0.0743621
7.73542e-05
-0.0630264
-0.0742838
-7.82098e-05
-0.0630096
-0.000199915
-0.0569967
-0.00525498
0.000147756
-0.00192436
-0.00524303
6.53979e-05
-0.00229702
-0.0052555
-6.5737e-05
-0.00229623
-0.000147905
-0.00192204
-0.000130179
3.01436e-05
-6.79059e-05
-7.70628e-05
1.22823e-05
-7.97228e-05
-0.000130391
-1.24064e-05
-7.96992e-05
-3.01943e-05
-6.7843e-05
2.33722e-05
1.12361e-05
-2.36152e-06
3.11103e-05
4.54357e-06
-2.55832e-06
2.32728e-05
-4.57006e-06
-2.55691e-06
-1.12479e-05
-2.35766e-06
0.000433818
2.29447e-06
-6.99572e-08
0.000437428
9.33659e-07
-6.97212e-08
0.000433798
-9.38074e-07
-7.11013e-08
-2.29674e-06
-7.23482e-08
0.0110773
6.82041e-07
-2.81458e-09
0.0110779
2.81918e-07
-2.51028e-09
0.0110773
-2.78527e-07
-9.59979e-10
-6.80382e-07
-1.37321e-09
0.218893
1.45174e-07
-3.47724e-10
0.218894
6.20032e-08
-1.70498e-09
0.218893
-5.5409e-08
1.71971e-09
-1.4236e-07
1.80106e-09
2.9367
-1.75714e-09
2.9367
-4.2822e-09
2.9367
1.74174e-09
2.71874e-09
-0.0742847
0.000199785
-0.0570566
-0.0743621
7.73557e-05
-0.0630264
-0.0742839
-7.8208e-05
-0.0630096
-0.000199921
-0.0569967
-0.00525498
0.000147753
-0.00192436
-0.00524303
6.5399e-05
-0.00229702
-0.0052555
-6.57353e-05
-0.00229623
-0.000147907
-0.00192203
-0.000130179
3.01448e-05
-6.7906e-05
-7.70641e-05
1.22829e-05
-7.9722e-05
-0.000130392
-1.24069e-05
-7.96992e-05
-3.01959e-05
-6.78424e-05
2.33749e-05
1.12357e-05
-2.36287e-06
3.11138e-05
4.54348e-06
-2.55786e-06
2.32753e-05
-4.56906e-06
-2.55628e-06
-1.12462e-05
-2.3582e-06
0.000433818
2.2952e-06
-7.07714e-08
0.000437429
9.33847e-07
-7.07493e-08
0.000433798
-9.37974e-07
-7.1522e-08
-2.29662e-06
-7.1835e-08
0.0110773
6.8219e-07
-2.65223e-09
0.0110779
2.81984e-07
-2.48718e-09
0.0110773
-2.78362e-07
-1.05927e-09
-6.80644e-07
-4.22639e-11
0.218893
1.45848e-07
-3.25773e-10
0.218894
6.25408e-08
-2.80647e-09
0.218893
-5.5134e-08
1.32488e-09
-1.42188e-07
3.55778e-09
2.9367
-2.65021e-09
2.9367
-6.07201e-09
2.9367
5.71795e-10
6.86064e-09
-0.0742847
0.000199782
-0.0570567
-0.0743621
7.73551e-05
-0.0630264
-0.0742839
-7.82073e-05
-0.0630096
-0.000199921
-0.0569968
-0.00525498
0.000147755
-0.00192436
-0.00524303
6.53975e-05
-0.00229702
-0.0052555
-6.57347e-05
-0.00229623
-0.000147903
-0.00192203
-0.000130181
3.01464e-05
-6.7907e-05
-7.70659e-05
1.22834e-05
-7.9723e-05
-0.000130394
-1.24075e-05
-7.96985e-05
-3.01974e-05
-6.78412e-05
2.33768e-05
1.12353e-05
-2.36163e-06
3.11159e-05
4.54427e-06
-2.55788e-06
2.32764e-05
-4.56756e-06
-2.55677e-06
-1.12445e-05
-2.35798e-06
0.000433818
2.29539e-06
-7.1793e-08
0.000437428
9.3371e-07
-7.10371e-08
0.000433798
-9.38122e-07
-7.08876e-08
-2.2968e-06
-7.04904e-08
0.0110773
6.82057e-07
-2.68002e-09
0.0110779
2.81626e-07
-2.18377e-09
0.0110773
-2.78188e-07
-1.31916e-09
-6.8035e-07
-6.19245e-10
0.218893
1.45878e-07
-4.6704e-10
0.218894
6.22074e-08
-2.13628e-09
0.218893
-5.47617e-08
-1.27562e-11
-1.41503e-07
3.32429e-09
2.9367
-7.27597e-10
2.9367
-3.59943e-09
2.9367
-2.45993e-09
6.30862e-09
-0.0742847
0.000199781
-0.0570566
-0.0743621
7.73571e-05
-0.0630264
-0.0742839
-7.82074e-05
-0.0630096
-0.000199923
-0.0569967
-0.00525498
0.000147754
-0.00192436
-0.00524302
6.53983e-05
-0.00229702
-0.0052555
-6.57351e-05
-0.00229623
-0.000147904
-0.00192204
-0.000130181
3.01469e-05
-6.79082e-05
-7.70666e-05
1.22837e-05
-7.97226e-05
-0.000130395
-1.24078e-05
-7.9697e-05
-3.01984e-05
-6.78399e-05
2.33764e-05
1.12356e-05
-2.36017e-06
3.11153e-05
4.54486e-06
-2.558e-06
2.32757e-05
-4.56662e-06
-2.55825e-06
-1.12437e-05
-2.3606e-06
0.000433816
2.2953e-06
-7.10308e-08
0.000437427
9.33444e-07
-7.05084e-08
0.000433798
-9.38284e-07
-6.98952e-08
-2.29672e-06
-6.95979e-08
0.0110773
6.81682e-07
-1.87008e-09
0.0110779
2.81262e-07
-1.6021e-09
0.0110773
-2.78406e-07
-1.56516e-09
-6.80011e-07
-1.59861e-09
0.218893
1.4576e-07
6.30437e-10
0.218894
6.18724e-08
-4.90005e-10
0.218893
-5.51902e-08
-6.7598e-10
-1.41132e-07
4.69907e-10
2.9367
1.92266e-09
2.9367
-1.37298e-09
2.9367
-1.09259e-09
4.91318e-10
-0.0742847
0.00019978
-0.0570567
-0.0743621
7.73566e-05
-0.0630264
-0.0742839
-7.82081e-05
-0.0630096
-0.000199923
-0.0569967
-0.00525499
0.000147755
-0.00192436
-0.00524303
6.53974e-05
-0.00229702
-0.0052555
-6.57358e-05
-0.00229624
-0.000147903
-0.00192204
-0.00013018
3.01463e-05
-6.79083e-05
-7.70652e-05
1.22835e-05
-7.97229e-05
-0.000130394
-1.24074e-05
-7.96962e-05
-3.01975e-05
-6.7837e-05
2.33756e-05
1.12365e-05
-2.35987e-06
3.11143e-05
4.54543e-06
-2.55869e-06
2.32749e-05
-4.56676e-06
-2.5595e-06
-1.12445e-05
-2.36287e-06
0.000433816
2.29523e-06
-6.98456e-08
0.000437427
9.33265e-07
-6.96983e-08
0.000433798
-9.38395e-07
-6.9064e-08
-2.29673e-06
-6.91984e-08
0.0110773
6.81533e-07
-1.10514e-09
0.0110779
2.8104e-07
-1.04567e-09
0.0110773
-2.78385e-07
-1.83272e-09
-6.79678e-07
-2.55641e-09
0.218893
1.45968e-07
8.42946e-10
0.218894
6.18447e-08
1.74103e-09
0.218893
-5.51919e-08
-1.43713e-09
-1.40858e-07
-2.3763e-09
2.9367
3.0426e-09
2.9367
2.27743e-09
2.9367
1.15906e-10
-4.60951e-09
-0.0742847
0.000199779
-0.0570566
-0.0743621
7.73551e-05
-0.0630264
-0.0742839
-7.82077e-05
-0.0630096
-0.000199922
-0.0569967
-0.00525499
0.000147754
-0.00192436
-0.00524303
6.53969e-05
-0.00229702
-0.0052555
-6.57357e-05
-0.00229624
-0.000147905
-0.00192204
-0.000130177
3.0145e-05
-6.79075e-05
-7.70637e-05
1.22828e-05
-7.97226e-05
-0.000130394
-1.24068e-05
-7.96951e-05
-3.01958e-05
-6.78348e-05
2.33751e-05
1.12375e-05
-2.36194e-06
3.1113e-05
4.54556e-06
-2.55937e-06
2.3274e-05
-4.56776e-06
-2.55955e-06
-1.12459e-05
-2.36368e-06
0.000433818
2.2951e-06
-6.95307e-08
0.00043743
9.33157e-07
-6.91388e-08
0.0004338
-9.38594e-07
-6.841e-08
-2.29686e-06
-6.85205e-08
0.0110773
6.81466e-07
-2.96068e-10
0.0110779
2.80834e-07
-3.97341e-10
0.0110773
-2.78336e-07
-2.14287e-09
-6.79783e-07
-2.69538e-09
0.218893
1.45918e-07
1.89071e-10
0.218894
6.16277e-08
2.89828e-09
0.218893
-5.5097e-08
-1.36293e-09
-1.41412e-07
-3.3227e-09
2.9367
2.07311e-09
2.9367
6.37103e-09
2.9367
-9.84333e-10
-6.40027e-09
-0.0742847
0.000199779
-0.0570567
-0.0743621
7.73549e-05
-0.0630264
-0.0742839
-7.82099e-05
-0.0630096
-0.000199918
-0.0569967
-0.00525499
0.000147756
-0.00192437
-0.00524303
6.53976e-05
-0.00229702
-0.0052555
-6.57375e-05
-0.00229624
-0.000147905
-0.00192204
-0.000130178
3.01438e-05
-6.79071e-05
-7.70624e-05
1.22822e-05
-7.97227e-05
-0.000130392
-1.24063e-05
-7.96964e-05
-3.01942e-05
-6.78361e-05
2.3374e-05
1.12375e-05
-2.36235e-06
3.11113e-05
4.54518e-06
-2.55968e-06
2.3273e-05
-4.56874e-06
-2.55871e-06
-1.12477e-05
-2.36025e-06
0.000433819
2.29478e-06
-7.01868e-08
0.000437431
9.33181e-07
-6.91619e-08
0.000433801
-9.38691e-07
-6.83846e-08
-2.29681e-06
-6.8715e-08
0.0110773
6.81792e-07
-1.24358e-09
0.0110779
2.81447e-07
-6.39663e-10
0.0110773
-2.78618e-07
-2.03812e-09
-6.79708e-07
-3.16647e-09
0.218893
1.45836e-07
-2.70382e-10
0.218894
6.20902e-08
2.30971e-09
0.218893
-5.55318e-08
-5.33748e-10
-1.41748e-07
-2.87286e-09
2.9367
-7.14428e-10
2.9367
5.21464e-09
2.9367
9.05508e-10
-4.80628e-09
-0.0742847
0.000199784
-0.0743621
7.73546e-05
-0.0742839
-7.82073e-05
-0.000199919
-0.00525498
0.000147755
-0.00524303
6.53985e-05
-0.0052555
-6.57355e-05
-0.000147909
-0.000130179
3.0143e-05
-7.70628e-05
1.22823e-05
-0.000130392
-1.24059e-05
-3.01942e-05
2.33718e-05
1.12369e-05
3.1109e-05
4.5443e-06
2.3272e-05
-4.56975e-06
-1.12484e-05
0.000433818
2.29487e-06
0.000437429
9.33249e-07
0.000433799
-9.38385e-07
-2.29626e-06
0.0110773
6.82039e-07
0.0110779
2.81896e-07
0.0110773
-2.78267e-07
-6.79922e-07
0.218893
1.45304e-07
0.218894
6.20549e-08
0.218893
-5.51605e-08
-1.42102e-07
2.9367
2.9367
2.9367
)
;

boundaryField
{
    movingWall
    {
        type            calculated;
        value           uniform 0;
    }
    CPLReceiveMD
    {
        type            calculated;
        value           uniform 0;
    }
    streamwiseIn
    {
        type            cyclic;
        value           nonuniform List<scalar> 0();
    }
    streamwiseOut
    {
        type            cyclic;
        value           nonuniform List<scalar> 0();
    }
    front
    {
        type            cyclic;
        value           nonuniform List<scalar> 
32
(
-0.0570566
-0.00192437
-6.79063e-05
-2.36215e-06
-6.95815e-08
-1.79131e-09
-5.44033e-10
-1.29847e-09
-0.0630264
-0.00229702
-7.97225e-05
-2.559e-06
-6.91818e-08
-1.80565e-09
4.51436e-10
4.10733e-10
-0.0630096
-0.00229623
-7.9697e-05
-2.55793e-06
-6.97115e-08
-1.87711e-09
8.23686e-10
2.03831e-09
-0.0569967
-0.00192204
-6.78408e-05
-2.35858e-06
-7.05445e-08
-2.05058e-09
-4.63417e-10
-1.2794e-09
)
;
    }
    back
    {
        type            cyclic;
        value           nonuniform List<scalar> 
32
(
0.0570566
0.00192437
6.79063e-05
2.36215e-06
6.95815e-08
1.79131e-09
5.44033e-10
1.29847e-09
0.0630264
0.00229702
7.97225e-05
2.559e-06
6.91818e-08
1.80565e-09
-4.51436e-10
-4.10733e-10
0.0630096
0.00229623
7.9697e-05
2.55793e-06
6.97115e-08
1.87711e-09
-8.23686e-10
-2.03831e-09
0.0569967
0.00192204
6.78408e-05
2.35858e-06
7.05445e-08
2.05058e-09
4.63417e-10
1.2794e-09
)
;
    }
    procBoundary1to0
    {
        type            processor;
        value           nonuniform List<scalar> 
64
(
0.0740849
0.00530701
0.00024779
-4.46513e-06
-0.000424876
-0.0110757
-0.218893
-2.9367
0.0740849
0.00530701
0.000247787
-4.46438e-06
-0.000424877
-0.0110757
-0.218893
-2.9367
0.0740849
0.00530701
0.00024779
-4.46689e-06
-0.000424877
-0.0110757
-0.218893
-2.9367
0.0740849
0.00530701
0.000247789
-4.46657e-06
-0.000424876
-0.0110757
-0.218893
-2.9367
0.0740849
0.00530701
0.000247788
-4.46605e-06
-0.000424876
-0.0110757
-0.218893
-2.9367
0.0740849
0.00530701
0.000247786
-4.46548e-06
-0.000424876
-0.0110757
-0.218893
-2.9367
0.0740849
0.00530701
0.000247789
-4.46741e-06
-0.000424875
-0.0110757
-0.218893
-2.9367
0.0740849
0.00530701
0.00024779
-4.46612e-06
-0.000424876
-0.0110757
-0.218893
-2.9367
)
;
    }
    procBoundary1to0throughstreamwiseOut
    {
        type            processorCyclic;
        value           nonuniform List<scalar> 
64
(
-0.0740839
-0.00530751
-0.000248101
4.325e-06
0.000424849
0.0110757
0.218893
2.9367
-0.0740839
-0.00530752
-0.000248104
4.32593e-06
0.000424848
0.0110757
0.218893
2.9367
-0.0740839
-0.00530751
-0.000248101
4.32331e-06
0.000424849
0.0110757
0.218893
2.9367
-0.0740839
-0.00530751
-0.000248102
4.32364e-06
0.00042485
0.0110757
0.218893
2.9367
-0.0740839
-0.00530751
-0.000248103
4.3242e-06
0.00042485
0.0110757
0.218893
2.9367
-0.0740839
-0.00530751
-0.000248105
4.32498e-06
0.00042485
0.0110757
0.218893
2.9367
-0.0740839
-0.00530751
-0.000248101
4.323e-06
0.00042485
0.0110757
0.218893
2.9367
-0.0740839
-0.00530751
-0.000248102
4.32458e-06
0.000424849
0.0110757
0.218893
2.9367
)
;
    }
}


// ************************************************************************* //
