/*--------------------------------*- C++ -*----------------------------------*\
| =========                 |                                                 |
| \\      /  F ield         | OpenFOAM: The Open Source CFD Toolbox           |
|  \\    /   O peration     | Version:  2306                                  |
|   \\  /    A nd           | Website:  www.openfoam.com                      |
|    \\/     M anipulation  |                                                 |
\*---------------------------------------------------------------------------*/
FoamFile
{
    version     2.0;
    format      ascii;
    arch        "LSB;label=32;scalar=64";
    class       volVectorField;
    location    "3";
    object      U;
}
// * * * * * * * * * * * * * * * * * * * * * * * * * * * * * * * * * * * * * //

dimensions      [0 1 -1 0 0 0 0];

internalField   nonuniform List<vector> 
256
(
(-0.00637542 3.66091e-05 -0.00515202)
(-0.0064267 1.64962e-05 -0.00568345)
(-0.00642664 -1.68752e-05 -0.00568188)
(-0.00637531 -3.67686e-05 -0.00514646)
(-0.000471034 4.52499e-05 -0.00018418)
(-0.000466026 2.00672e-05 -0.000218576)
(-0.000466051 -2.01584e-05 -0.000218501)
(-0.00047108 -4.52872e-05 -0.000183958)
(-1.74328e-05 1.21536e-05 -6.50186e-06)
(-9.47194e-06 4.87569e-06 -7.67295e-06)
(-9.48309e-06 -4.92457e-06 -7.67038e-06)
(-1.74588e-05 -1.21742e-05 -6.49517e-06)
(1.4577e-06 3.96868e-06 -2.27689e-07)
(2.84107e-06 1.62539e-06 -2.50202e-07)
(2.83666e-06 -1.63243e-06 -2.4977e-07)
(1.44641e-06 -3.97043e-06 -2.26649e-07)
(4.09002e-05 6.09616e-07 -7.1291e-09)
(4.15063e-05 2.47492e-07 -7.12461e-09)
(4.15055e-05 -2.48585e-07 -6.97399e-09)
(4.08981e-05 -6.09298e-07 -6.8223e-09)
(0.00102089 2.57098e-07 -2.23672e-10)
(0.001021 1.05398e-07 -2.07521e-10)
(0.001021 -1.06909e-07 -1.17205e-10)
(0.00102089 -2.58866e-07 -1.70668e-10)
(0.01952 4.40484e-08 -6.66699e-11)
(0.01952 1.86754e-08 -3.49574e-11)
(0.01952 -1.73119e-08 1.42367e-10)
(0.01952 -4.32889e-08 7.05937e-11)
(0.253467 1.18583e-08 -8.38422e-11)
(0.253467 6.08841e-09 -1.26915e-10)
(0.253467 -2.95016e-09 5.44041e-11)
(0.253467 -1.00264e-08 1.23984e-11)
(-0.00637542 3.66083e-05 -0.00515202)
(-0.0064267 1.64965e-05 -0.00568345)
(-0.00642664 -1.68749e-05 -0.00568188)
(-0.00637532 -3.67692e-05 -0.00514646)
(-0.000471034 4.52492e-05 -0.00018418)
(-0.000466026 2.00676e-05 -0.000218576)
(-0.000466051 -2.01581e-05 -0.000218501)
(-0.00047108 -4.52879e-05 -0.000183958)
(-1.74327e-05 1.21535e-05 -6.50172e-06)
(-9.47204e-06 4.87576e-06 -7.67321e-06)
(-9.48296e-06 -4.9244e-06 -7.6707e-06)
(-1.74589e-05 -1.2174e-05 -6.49502e-06)
(1.45775e-06 3.96863e-06 -2.27954e-07)
(2.84174e-06 1.62537e-06 -2.49956e-07)
(2.83695e-06 -1.63236e-06 -2.49402e-07)
(1.44673e-06 -3.97041e-06 -2.26622e-07)
(4.09003e-05 6.0979e-07 -7.26769e-09)
(4.15065e-05 2.47497e-07 -7.22033e-09)
(4.15057e-05 -2.48652e-07 -6.99574e-09)
(4.08982e-05 -6.09351e-07 -6.78357e-09)
(0.00102089 2.57192e-07 -2.2437e-10)
(0.001021 1.05421e-07 -2.79099e-10)
(0.001021 -1.06852e-07 -1.13971e-10)
(0.00102089 -2.58849e-07 -4.69976e-11)
(0.01952 4.41057e-08 3.75572e-11)
(0.01952 1.87392e-08 -2.21685e-10)
(0.01952 -1.72205e-08 2.04183e-10)
(0.01952 -4.32461e-08 2.81103e-10)
(0.253467 1.19044e-08 -6.47348e-11)
(0.253467 6.15135e-09 -3.65974e-10)
(0.253467 -2.8745e-09 3.57845e-10)
(0.253467 -9.97716e-09 5.72974e-10)
(-0.00637542 3.6609e-05 -0.00515202)
(-0.0064267 1.64963e-05 -0.00568345)
(-0.00642664 -1.68746e-05 -0.00568188)
(-0.00637531 -3.67684e-05 -0.00514646)
(-0.000471035 4.525e-05 -0.000184179)
(-0.000466026 2.00673e-05 -0.000218576)
(-0.000466051 -2.01579e-05 -0.000218501)
(-0.00047108 -4.52873e-05 -0.000183958)
(-1.74328e-05 1.21536e-05 -6.50178e-06)
(-9.47214e-06 4.87588e-06 -7.67309e-06)
(-9.48284e-06 -4.92425e-06 -7.67062e-06)
(-1.74588e-05 -1.21739e-05 -6.49514e-06)
(1.45807e-06 3.96861e-06 -2.27503e-07)
(2.84213e-06 1.62545e-06 -2.49839e-07)
(2.83727e-06 -1.63229e-06 -2.49578e-07)
(1.44673e-06 -3.97034e-06 -2.26783e-07)
(4.09004e-05 6.09814e-07 -7.08924e-09)
(4.15067e-05 2.47455e-07 -7.11117e-09)
(4.15059e-05 -2.48742e-07 -7.08971e-09)
(4.08983e-05 -6.09468e-07 -6.9507e-09)
(0.00102089 2.57232e-07 -2.99144e-10)
(0.001021 1.05389e-07 -2.57274e-10)
(0.001021 -1.06836e-07 -1.57239e-10)
(0.00102089 -2.58813e-07 -6.32489e-11)
(0.01952 4.40604e-08 -1.32468e-10)
(0.01952 1.86346e-08 -3.24599e-10)
(0.01952 -1.71015e-08 -4.43354e-11)
(0.01952 -4.30793e-08 2.827e-10)
(0.253467 1.18629e-08 -2.50082e-10)
(0.253467 6.09645e-09 -5.07582e-10)
(0.253467 -2.74441e-09 -1.91484e-10)
(0.253467 -9.823e-09 6.36202e-10)
(-0.00637542 3.66091e-05 -0.00515202)
(-0.0064267 1.64966e-05 -0.00568346)
(-0.00642664 -1.68747e-05 -0.00568188)
(-0.00637532 -3.67682e-05 -0.00514646)
(-0.000471035 4.525e-05 -0.000184179)
(-0.000466026 2.00677e-05 -0.000218576)
(-0.00046605 -2.0158e-05 -0.000218501)
(-0.000471079 -4.52873e-05 -0.000183958)
(-1.74327e-05 1.21536e-05 -6.50168e-06)
(-9.4721e-06 4.87599e-06 -7.67283e-06)
(-9.48293e-06 -4.92418e-06 -7.67034e-06)
(-1.74587e-05 -1.2174e-05 -6.49487e-06)
(1.45815e-06 3.96866e-06 -2.27224e-07)
(2.84217e-06 1.62544e-06 -2.4983e-07)
(2.83727e-06 -1.63228e-06 -2.49856e-07)
(1.44668e-06 -3.97034e-06 -2.27229e-07)
(4.09004e-05 6.09793e-07 -6.93559e-09)
(4.15067e-05 2.47425e-07 -7.04889e-09)
(4.15058e-05 -2.48761e-07 -7.09225e-09)
(4.08983e-05 -6.09468e-07 -7.00174e-09)
(0.00102089 2.57194e-07 -2.02747e-10)
(0.001021 1.05331e-07 -1.8773e-10)
(0.001021 -1.06836e-07 -1.39907e-10)
(0.00102089 -2.58734e-07 -9.82764e-11)
(0.01952 4.39947e-08 -5.1387e-12)
(0.01952 1.85439e-08 -1.63303e-10)
(0.01952 -1.71946e-08 -4.6873e-11)
(0.01952 -4.30001e-08 2.20733e-10)
(0.253467 1.18507e-08 8.92333e-11)
(0.253467 6.02938e-09 -2.07119e-10)
(0.253467 -2.83607e-09 -4.16185e-10)
(0.253467 -9.75962e-09 3.01803e-10)
(-0.00637542 3.66092e-05 -0.00515202)
(-0.0064267 1.64965e-05 -0.00568345)
(-0.00642664 -1.68748e-05 -0.00568188)
(-0.00637532 -3.67682e-05 -0.00514646)
(-0.000471035 4.52501e-05 -0.000184179)
(-0.000466026 2.00676e-05 -0.000218576)
(-0.00046605 -2.01581e-05 -0.000218501)
(-0.000471079 -4.52873e-05 -0.000183958)
(-1.74326e-05 1.21536e-05 -6.50156e-06)
(-9.47203e-06 4.87596e-06 -7.67271e-06)
(-9.4828e-06 -4.92424e-06 -7.67004e-06)
(-1.74588e-05 -1.2174e-05 -6.49478e-06)
(1.45815e-06 3.96866e-06 -2.27073e-07)
(2.84201e-06 1.62543e-06 -2.49825e-07)
(2.83713e-06 -1.63231e-06 -2.50002e-07)
(1.44658e-06 -3.97039e-06 -2.27482e-07)
(4.09004e-05 6.09749e-07 -6.9663e-09)
(4.15066e-05 2.47404e-07 -7.07436e-09)
(4.15058e-05 -2.48742e-07 -7.0504e-09)
(4.08983e-05 -6.09433e-07 -6.93427e-09)
(0.00102089 2.57225e-07 -1.39121e-10)
(0.001021 1.05333e-07 -1.26114e-10)
(0.001021 -1.06827e-07 -1.70481e-10)
(0.00102089 -2.58705e-07 -2.04303e-10)
(0.01952 4.40402e-08 1.35801e-10)
(0.01952 1.85044e-08 6.83581e-11)
(0.01952 -1.72082e-08 -7.05681e-11)
(0.01952 -4.29518e-08 -1.15217e-10)
(0.253467 1.18844e-08 1.99817e-10)
(0.253467 6.00044e-09 -1.07986e-10)
(0.253467 -2.86898e-09 1.55506e-10)
(0.253467 -9.73491e-09 -2.73789e-10)
(-0.00637542 3.6609e-05 -0.00515202)
(-0.0064267 1.64962e-05 -0.00568345)
(-0.00642664 -1.68748e-05 -0.00568188)
(-0.00637531 -3.67685e-05 -0.00514646)
(-0.000471035 4.52498e-05 -0.000184179)
(-0.000466026 2.00673e-05 -0.000218575)
(-0.000466051 -2.0158e-05 -0.000218501)
(-0.00047108 -4.52876e-05 -0.000183958)
(-1.74325e-05 1.21537e-05 -6.50142e-06)
(-9.4718e-06 4.87591e-06 -7.67262e-06)
(-9.48292e-06 -4.92433e-06 -7.67014e-06)
(-1.7459e-05 -1.21741e-05 -6.49483e-06)
(1.45805e-06 3.96864e-06 -2.26987e-07)
(2.84175e-06 1.62537e-06 -2.49842e-07)
(2.83688e-06 -1.6324e-06 -2.50064e-07)
(1.44646e-06 -3.9704e-06 -2.27662e-07)
(4.09004e-05 6.09696e-07 -6.84427e-09)
(4.15067e-05 2.47395e-07 -7.02543e-09)
(4.15059e-05 -2.48718e-07 -7.02822e-09)
(4.08983e-05 -6.09379e-07 -6.95004e-09)
(0.00102089 2.57254e-07 -1.10318e-10)
(0.001021 1.05367e-07 -9.84464e-11)
(0.001021 -1.06861e-07 -2.1453e-10)
(0.00102089 -2.58779e-07 -3.0379e-10)
(0.01952 4.40835e-08 2.83137e-11)
(0.01952 1.84434e-08 2.47002e-10)
(0.01952 -1.72039e-08 -1.64717e-10)
(0.01952 -4.30714e-08 -3.03673e-10)
(0.253467 1.18941e-08 2.76219e-10)
(0.253467 5.95267e-09 4.55122e-10)
(0.253467 -2.851e-09 -8.50569e-11)
(0.253467 -9.84761e-09 -4.93469e-10)
(-0.00637542 3.66091e-05 -0.00515202)
(-0.0064267 1.64963e-05 -0.00568346)
(-0.00642664 -1.68753e-05 -0.00568188)
(-0.00637531 -3.67684e-05 -0.00514646)
(-0.000471034 4.52499e-05 -0.000184179)
(-0.000466026 2.00674e-05 -0.000218576)
(-0.000466051 -2.01585e-05 -0.000218501)
(-0.00047108 -4.52872e-05 -0.000183958)
(-1.74325e-05 1.21537e-05 -6.50112e-06)
(-9.47196e-06 4.8758e-06 -7.67271e-06)
(-9.48292e-06 -4.92442e-06 -7.67041e-06)
(-1.74589e-05 -1.21742e-05 -6.49468e-06)
(1.45794e-06 3.96863e-06 -2.27234e-07)
(2.84144e-06 1.62535e-06 -2.49919e-07)
(2.83658e-06 -1.6324e-06 -2.50184e-07)
(1.44625e-06 -3.97044e-06 -2.27942e-07)
(4.09002e-05 6.0963e-07 -6.5988e-09)
(4.15065e-05 2.4739e-07 -6.84402e-09)
(4.15058e-05 -2.48694e-07 -7.03455e-09)
(4.08983e-05 -6.09314e-07 -7.06233e-09)
(0.00102089 2.57202e-07 -4.89636e-11)
(0.001021 1.05417e-07 -7.79789e-11)
(0.001021 -1.06901e-07 -2.23847e-10)
(0.00102089 -2.58817e-07 -2.72392e-10)
(0.01952 4.41714e-08 4.7955e-11)
(0.01952 1.86478e-08 2.77687e-10)
(0.01952 -1.73266e-08 -4.09661e-11)
(0.01952 -4.3118e-08 -2.53437e-10)
(0.253467 1.19822e-08 1.33822e-10)
(0.253467 6.09615e-09 7.4225e-10)
(0.253467 -2.94524e-09 -1.86574e-11)
(0.253467 -9.87936e-09 -3.7509e-10)
(-0.00637542 3.66088e-05 -0.00515202)
(-0.0064267 1.64964e-05 -0.00568345)
(-0.00642664 -1.68748e-05 -0.00568188)
(-0.00637532 -3.67694e-05 -0.00514646)
(-0.000471034 4.52496e-05 -0.000184179)
(-0.000466026 2.00674e-05 -0.000218576)
(-0.000466051 -2.01579e-05 -0.000218501)
(-0.00047108 -4.52881e-05 -0.000183958)
(-1.74325e-05 1.21536e-05 -6.5015e-06)
(-9.47229e-06 4.8758e-06 -7.67281e-06)
(-9.48281e-06 -4.9245e-06 -7.67027e-06)
(-1.7459e-05 -1.21744e-05 -6.49506e-06)
(1.45758e-06 3.96859e-06 -2.27334e-07)
(2.84131e-06 1.62538e-06 -2.50159e-07)
(2.83612e-06 -1.63239e-06 -2.50212e-07)
(1.44642e-06 -3.97054e-06 -2.27343e-07)
(4.09002e-05 6.09691e-07 -6.73589e-09)
(4.15063e-05 2.47417e-07 -6.85951e-09)
(4.15055e-05 -2.48628e-07 -7.03244e-09)
(4.08981e-05 -6.09145e-07 -7.03425e-09)
(0.00102089 2.57147e-07 -1.73465e-10)
(0.001021 1.05397e-07 -1.03612e-10)
(0.001021 -1.06885e-07 -2.00364e-10)
(0.00102089 -2.58832e-07 -2.61548e-10)
(0.01952 4.41244e-08 -7.6114e-11)
(0.01952 1.87146e-08 1.24474e-10)
(0.01952 -1.72409e-08 -6.09541e-12)
(0.01952 -4.32003e-08 -2.13524e-10)
(0.253467 1.19435e-08 -3.01003e-10)
(0.253467 6.15873e-09 1.17738e-10)
(0.253467 -2.89164e-09 1.43165e-10)
(0.253467 -9.934e-09 -3.81588e-10)
)
;

boundaryField
{
    movingWall
    {
        type            fixedValue;
        value           uniform (1 0 0);
    }
    CPLReceiveMD
    {
        type            fixedValue;
        value           uniform (-0.0300428 0 -0.0431208);
    }
    streamwiseIn
    {
        type            cyclic;
    }
    streamwiseOut
    {
        type            cyclic;
    }
    front
    {
        type            cyclic;
    }
    back
    {
        type            cyclic;
    }
    procBoundary1to0
    {
        type            processor;
        value           nonuniform List<vector> 
64
(
(-0.00642933 3.67685e-05 -0.00304662)
(-0.000478117 4.52853e-05 -9.75834e-05)
(-2.8585e-05 1.21694e-05 -3.76923e-06)
(-5.4444e-07 3.97444e-06 -1.70615e-07)
(4.0033e-05 6.10216e-07 -6.56433e-09)
(0.00102074 2.56966e-07 -1.8145e-10)
(0.01952 4.34677e-08 7.18745e-11)
(0.253467 1.08135e-08 1.37854e-11)
(-0.00642933 3.67686e-05 -0.00304662)
(-0.000478117 4.52855e-05 -9.75837e-05)
(-2.85849e-05 1.21694e-05 -3.76964e-06)
(-5.44762e-07 3.97443e-06 -1.70569e-07)
(4.0033e-05 6.10242e-07 -6.6949e-09)
(0.00102074 2.57102e-07 -2.16731e-10)
(0.01952 4.35488e-08 2.72741e-10)
(0.253467 1.08683e-08 5.6467e-10)
(-0.00642933 3.67688e-05 -0.00304662)
(-0.000478117 4.52856e-05 -9.75836e-05)
(-2.8585e-05 1.21694e-05 -3.76955e-06)
(-5.44756e-07 3.97443e-06 -1.70484e-07)
(4.00329e-05 6.10345e-07 -6.45372e-09)
(0.00102074 2.57202e-07 -1.67315e-10)
(0.01952 4.37403e-08 3.03478e-10)
(0.253467 1.10218e-08 6.48039e-10)
(-0.00642933 3.67693e-05 -0.00304662)
(-0.000478117 4.5286e-05 -9.75835e-05)
(-2.85851e-05 1.21695e-05 -3.76957e-06)
(-5.44702e-07 3.97448e-06 -1.70155e-07)
(4.0033e-05 6.10357e-07 -6.32406e-09)
(0.00102074 2.57258e-07 -1.84578e-10)
(0.01952 4.38366e-08 2.34041e-10)
(0.253467 1.10835e-08 2.98976e-10)
(-0.00642933 3.67696e-05 -0.00304662)
(-0.000478117 4.52862e-05 -9.75833e-05)
(-2.8585e-05 1.21694e-05 -3.76939e-06)
(-5.44605e-07 3.97453e-06 -1.69976e-07)
(4.00329e-05 6.10331e-07 -6.36835e-09)
(0.00102074 2.57283e-07 -2.39855e-10)
(0.01952 4.38955e-08 -9.44532e-11)
(0.253467 1.11046e-08 -2.67719e-10)
(-0.00642933 3.67697e-05 -0.00304662)
(-0.000478117 4.52863e-05 -9.75835e-05)
(-2.85848e-05 1.21695e-05 -3.76913e-06)
(-5.44484e-07 3.97449e-06 -1.6988e-07)
(4.00329e-05 6.10257e-07 -6.24709e-09)
(0.00102074 2.57232e-07 -2.00823e-10)
(0.01952 4.37769e-08 -2.84033e-10)
(0.253467 1.09913e-08 -4.81121e-10)
(-0.00642933 3.6769e-05 -0.00304662)
(-0.000478117 4.52856e-05 -9.75837e-05)
(-2.85849e-05 1.21695e-05 -3.76917e-06)
(-5.4429e-07 3.97449e-06 -1.697e-07)
(4.00329e-05 6.10209e-07 -6.01684e-09)
(0.00102074 2.57138e-07 -1.56242e-10)
(0.01952 4.369e-08 -2.98705e-10)
(0.253467 1.09558e-08 -3.94462e-10)
(-0.00642933 3.67691e-05 -0.00304662)
(-0.000478117 4.52858e-05 -9.75834e-05)
(-2.85847e-05 1.21696e-05 -3.76902e-06)
(-5.44446e-07 3.97454e-06 -1.70171e-07)
(4.0033e-05 6.10084e-07 -6.13719e-09)
(0.00102074 2.56994e-07 -1.42729e-10)
(0.01952 4.35873e-08 -2.40555e-10)
(0.253467 1.09037e-08 -3.82882e-10)
)
;
    }
    procBoundary1to0throughstreamwiseOut
    {
        type            processorCyclic;
        value           nonuniform List<vector> 
64
(
(-0.00642923 -3.66147e-05 -0.0030411)
(-0.000478163 -4.52462e-05 -9.73834e-05)
(-2.8611e-05 -1.21526e-05 -3.76378e-06)
(-5.5551e-07 -3.969e-06 -1.69642e-07)
(4.00307e-05 -6.07595e-07 -6.27726e-09)
(0.00102073 -2.5909e-07 -1.99073e-10)
(0.01952 -4.38202e-08 -4.39746e-11)
(0.253467 -1.09901e-08 -7.14596e-11)
(-0.00642922 -3.66132e-05 -0.0030411)
(-0.000478163 -4.52448e-05 -9.73827e-05)
(-2.86112e-05 -1.21524e-05 -3.76424e-06)
(-5.55552e-07 -3.96888e-06 -1.69265e-07)
(4.00306e-05 -6.07797e-07 -6.2277e-09)
(0.00102073 -2.59098e-07 -1.4255e-10)
(0.01952 -4.37594e-08 1.6456e-11)
(0.253467 -1.0942e-08 -8.53402e-11)
(-0.00642923 -3.66134e-05 -0.00304109)
(-0.000478163 -4.52454e-05 -9.73828e-05)
(-2.8611e-05 -1.21525e-05 -3.764e-06)
(-5.5589e-07 -3.96882e-06 -1.69816e-07)
(4.00306e-05 -6.07875e-07 -6.35661e-09)
(0.00102074 -2.59127e-07 -1.52509e-10)
(0.01952 -4.38474e-08 -1.36732e-10)
(0.253467 -1.09903e-08 -2.51339e-10)
(-0.00642923 -3.66128e-05 -0.0030411)
(-0.000478163 -4.52448e-05 -9.7383e-05)
(-2.86111e-05 -1.21524e-05 -3.7639e-06)
(-5.55973e-07 -3.96884e-06 -1.70187e-07)
(4.00306e-05 -6.07877e-07 -6.39614e-09)
(0.00102074 -2.59147e-07 -1.41693e-10)
(0.01952 -4.39266e-08 -3.08352e-11)
(0.253467 -1.09981e-08 9.29945e-11)
(-0.00642923 -3.66126e-05 -0.0030411)
(-0.000478163 -4.52448e-05 -9.7383e-05)
(-2.86112e-05 -1.21525e-05 -3.76381e-06)
(-5.55965e-07 -3.96884e-06 -1.70401e-07)
(4.00307e-05 -6.07813e-07 -6.30532e-09)
(0.00102074 -2.59122e-07 -1.4948e-10)
(0.01952 -4.38917e-08 1.10056e-10)
(0.253467 -1.09618e-08 1.98094e-10)
(-0.00642923 -3.66126e-05 -0.0030411)
(-0.000478163 -4.52447e-05 -9.73834e-05)
(-2.86113e-05 -1.21526e-05 -3.76374e-06)
(-5.55855e-07 -3.96886e-06 -1.70576e-07)
(4.00307e-05 -6.07739e-07 -6.32726e-09)
(0.00102074 -2.5912e-07 -2.00259e-10)
(0.01952 -4.38393e-08 3.05223e-11)
(0.253467 -1.0949e-08 2.83249e-10)
(-0.00642922 -3.66135e-05 -0.0030411)
(-0.000478163 -4.52453e-05 -9.73837e-05)
(-2.86113e-05 -1.21527e-05 -3.76402e-06)
(-5.55731e-07 -3.96889e-06 -1.70403e-07)
(4.00307e-05 -6.0763e-07 -6.45267e-09)
(0.00102074 -2.59114e-07 -2.43543e-10)
(0.01952 -4.37294e-08 5.28654e-11)
(0.253467 -1.08607e-08 1.24354e-10)
(-0.00642923 -3.66133e-05 -0.00304109)
(-0.000478163 -4.52449e-05 -9.73837e-05)
(-2.86113e-05 -1.21527e-05 -3.76372e-06)
(-5.55361e-07 -3.96886e-06 -1.70234e-07)
(4.00307e-05 -6.07636e-07 -6.44076e-09)
(0.00102073 -2.59058e-07 -2.60104e-10)
(0.01952 -4.37315e-08 -3.39283e-11)
(0.253467 -1.08944e-08 -2.91254e-10)
)
;
    }
}


// ************************************************************************* //
