/*--------------------------------*- C++ -*----------------------------------*\
| =========                 |                                                 |
| \\      /  F ield         | OpenFOAM: The Open Source CFD Toolbox           |
|  \\    /   O peration     | Version:  2306                                  |
|   \\  /    A nd           | Website:  www.openfoam.com                      |
|    \\/     M anipulation  |                                                 |
\*---------------------------------------------------------------------------*/
FoamFile
{
    version     2.0;
    format      ascii;
    arch        "LSB;label=32;scalar=64";
    class       volVectorField;
    location    "3";
    object      U_0;
}
// * * * * * * * * * * * * * * * * * * * * * * * * * * * * * * * * * * * * * //

dimensions      [0 1 -1 0 0 0 0];

internalField   nonuniform List<vector> 
256
(
(-0.00618584 3.61245e-05 -0.00479416)
(-0.00624849 1.67578e-05 -0.00529577)
(-0.00624845 -1.71377e-05 -0.00529436)
(-0.00618573 -3.62869e-05 -0.00478913)
(-0.000443224 4.41189e-05 -0.000161694)
(-0.00043901 2.00213e-05 -0.000193006)
(-0.000439035 -2.01129e-05 -0.00019294)
(-0.000443265 -4.41576e-05 -0.000161499)
(-1.47374e-05 1.17776e-05 -5.70619e-06)
(-6.09984e-06 4.67443e-06 -6.69874e-06)
(-6.11028e-06 -4.7219e-06 -6.69658e-06)
(-1.47614e-05 -1.17973e-05 -5.70047e-06)
(1.3919e-06 4.2389e-06 -1.98862e-07)
(2.79212e-06 1.73103e-06 -2.1531e-07)
(2.78774e-06 -1.73732e-06 -2.14757e-07)
(1.3803e-06 -4.24028e-06 -1.9752e-07)
(3.61447e-05 6.12981e-07 -6.13485e-09)
(3.67659e-05 2.48618e-07 -5.96103e-09)
(3.67651e-05 -2.49467e-07 -5.76506e-09)
(3.61427e-05 -6.1243e-07 -5.72965e-09)
(0.00093071 2.63247e-07 -1.9385e-10)
(0.000930825 1.07821e-07 -1.56984e-10)
(0.000930825 -1.09448e-07 -6.80793e-11)
(0.00093071 -2.65097e-07 -1.50338e-10)
(0.0183924 4.67016e-08 -5.46837e-11)
(0.0183925 1.97283e-08 -2.79689e-11)
(0.0183925 -1.84678e-08 1.44007e-10)
(0.0183924 -4.60044e-08 5.72036e-11)
(0.246755 1.2284e-08 -7.60629e-11)
(0.246755 6.22642e-09 -1.26515e-10)
(0.246755 -3.17927e-09 6.14635e-11)
(0.246755 -1.04821e-08 -6.98788e-12)
(-0.00618584 3.61235e-05 -0.00479416)
(-0.00624849 1.67581e-05 -0.00529577)
(-0.00624844 -1.71373e-05 -0.00529436)
(-0.00618574 -3.62877e-05 -0.00478913)
(-0.000443225 4.41181e-05 -0.000161694)
(-0.00043901 2.00218e-05 -0.000193007)
(-0.000439035 -2.01124e-05 -0.000192941)
(-0.000443265 -4.41586e-05 -0.000161499)
(-1.47373e-05 1.17775e-05 -5.70599e-06)
(-6.09997e-06 4.67456e-06 -6.69907e-06)
(-6.11013e-06 -4.72171e-06 -6.69693e-06)
(-1.47615e-05 -1.17971e-05 -5.70028e-06)
(1.392e-06 4.23885e-06 -1.99217e-07)
(2.79302e-06 1.73101e-06 -2.15011e-07)
(2.78812e-06 -1.73722e-06 -2.14292e-07)
(1.38074e-06 -4.24024e-06 -1.97486e-07)
(3.61449e-05 6.13214e-07 -6.29376e-09)
(3.67662e-05 2.48621e-07 -6.092e-09)
(3.67654e-05 -2.49571e-07 -5.80467e-09)
(3.61427e-05 -6.12505e-07 -5.65862e-09)
(0.000930711 2.63358e-07 -1.96864e-10)
(0.000930825 1.07851e-07 -2.74264e-10)
(0.000930825 -1.09405e-07 -1.11977e-10)
(0.00093071 -2.65104e-07 -1.14903e-11)
(0.0183924 4.67565e-08 5.68837e-11)
(0.0183925 1.97966e-08 -2.13788e-10)
(0.0183925 -1.83685e-08 1.9001e-10)
(0.0183924 -4.59765e-08 2.79407e-10)
(0.246755 1.2329e-08 -6.24404e-11)
(0.246755 6.28985e-09 -3.71407e-10)
(0.246755 -3.0979e-09 3.72127e-10)
(0.246755 -1.04382e-08 5.65793e-10)
(-0.00618584 3.61244e-05 -0.00479416)
(-0.00624849 1.67578e-05 -0.00529577)
(-0.00624845 -1.7137e-05 -0.00529436)
(-0.00618573 -3.62866e-05 -0.00478913)
(-0.000443225 4.4119e-05 -0.000161694)
(-0.00043901 2.00214e-05 -0.000193006)
(-0.000439035 -2.01122e-05 -0.00019294)
(-0.000443264 -4.41577e-05 -0.000161498)
(-1.47375e-05 1.17775e-05 -5.70606e-06)
(-6.10012e-06 4.67468e-06 -6.69892e-06)
(-6.10999e-06 -4.72149e-06 -6.69682e-06)
(-1.47615e-05 -1.17969e-05 -5.70041e-06)
(1.39242e-06 4.23881e-06 -1.98636e-07)
(2.79355e-06 1.73111e-06 -2.14867e-07)
(2.78858e-06 -1.73715e-06 -2.14527e-07)
(1.38076e-06 -4.24015e-06 -1.97707e-07)
(3.6145e-05 6.13254e-07 -6.07996e-09)
(3.67664e-05 2.48576e-07 -5.95358e-09)
(3.67656e-05 -2.49696e-07 -5.92786e-09)
(3.61429e-05 -6.1268e-07 -5.90137e-09)
(0.000930711 2.63415e-07 -2.88529e-10)
(0.000930826 1.07828e-07 -2.34262e-10)
(0.000930826 -1.09391e-07 -1.36356e-10)
(0.00093071 -2.65075e-07 -4.92901e-11)
(0.0183924 4.67146e-08 -1.21278e-10)
(0.0183925 1.96941e-08 -3.04764e-10)
(0.0183925 -1.82409e-08 -3.5102e-11)
(0.0183924 -4.57972e-08 2.79487e-10)
(0.246755 1.22835e-08 -2.64056e-10)
(0.246755 6.22876e-09 -5.1492e-10)
(0.246755 -2.96503e-09 -1.75558e-10)
(0.246755 -1.02771e-08 6.46007e-10)
(-0.00618584 3.61246e-05 -0.00479416)
(-0.00624849 1.67582e-05 -0.00529577)
(-0.00624845 -1.7137e-05 -0.00529436)
(-0.00618573 -3.62865e-05 -0.00478913)
(-0.000443225 4.41191e-05 -0.000161694)
(-0.00043901 2.0022e-05 -0.000193006)
(-0.000439034 -2.01123e-05 -0.00019294)
(-0.000443264 -4.41578e-05 -0.000161498)
(-1.47373e-05 1.17775e-05 -5.70598e-06)
(-6.10007e-06 4.67482e-06 -6.69858e-06)
(-6.11012e-06 -4.72142e-06 -6.69648e-06)
(-1.47614e-05 -1.17971e-05 -5.70006e-06)
(1.39252e-06 4.23886e-06 -1.98241e-07)
(2.79363e-06 1.73108e-06 -2.14839e-07)
(2.78859e-06 -1.73714e-06 -2.14906e-07)
(1.38071e-06 -4.24015e-06 -1.98321e-07)
(3.6145e-05 6.13238e-07 -5.88221e-09)
(3.67664e-05 2.48541e-07 -5.88265e-09)
(3.67655e-05 -2.49721e-07 -5.9415e-09)
(3.61429e-05 -6.12688e-07 -5.97716e-09)
(0.000930711 2.63378e-07 -1.81824e-10)
(0.000930826 1.07771e-07 -1.54428e-10)
(0.000930826 -1.09385e-07 -9.86892e-11)
(0.000930711 -2.64992e-07 -5.76348e-11)
(0.0183924 4.66513e-08 3.01092e-14)
(0.0183925 1.96043e-08 -1.51742e-10)
(0.0183925 -1.83338e-08 -3.14397e-11)
(0.0183924 -4.57201e-08 2.1986e-10)
(0.246755 1.22696e-08 8.41148e-11)
(0.246755 6.16102e-09 -2.08424e-10)
(0.246755 -3.05693e-09 -4.09957e-10)
(0.246755 -1.02139e-08 2.96136e-10)
(-0.00618584 3.61247e-05 -0.00479416)
(-0.00624849 1.67581e-05 -0.00529577)
(-0.00624845 -1.71372e-05 -0.00529436)
(-0.00618573 -3.62864e-05 -0.00478913)
(-0.000443225 4.41192e-05 -0.000161694)
(-0.00043901 2.00218e-05 -0.000193005)
(-0.000439034 -2.01124e-05 -0.00019294)
(-0.000443264 -4.41577e-05 -0.000161499)
(-1.47371e-05 1.17776e-05 -5.70589e-06)
(-6.09994e-06 4.67475e-06 -6.69848e-06)
(-6.10995e-06 -4.72151e-06 -6.6961e-06)
(-1.47615e-05 -1.17971e-05 -5.69997e-06)
(1.39251e-06 4.23887e-06 -1.98006e-07)
(2.79339e-06 1.73108e-06 -2.14827e-07)
(2.78841e-06 -1.73719e-06 -2.15115e-07)
(1.38058e-06 -4.24023e-06 -1.98695e-07)
(3.6145e-05 6.13171e-07 -5.91811e-09)
(3.67663e-05 2.48514e-07 -5.91773e-09)
(3.67655e-05 -2.49693e-07 -5.89687e-09)
(3.61429e-05 -6.12638e-07 -5.89743e-09)
(0.000930711 2.63407e-07 -1.21131e-10)
(0.000930826 1.07776e-07 -9.0992e-11)
(0.000930826 -1.09371e-07 -1.25159e-10)
(0.000930711 -2.6496e-07 -1.56806e-10)
(0.0183924 4.66996e-08 1.29298e-10)
(0.0183925 1.95661e-08 7.3117e-11)
(0.0183925 -1.83496e-08 -6.49542e-11)
(0.0183924 -4.56758e-08 -1.13869e-10)
(0.246755 1.23038e-08 1.99198e-10)
(0.246755 6.13104e-09 -1.04206e-10)
(0.246755 -3.09196e-09 1.50314e-10)
(0.246755 -1.019e-08 -2.6474e-10)
(-0.00618584 3.61243e-05 -0.00479416)
(-0.00624849 1.67578e-05 -0.00529577)
(-0.00624845 -1.71371e-05 -0.00529436)
(-0.00618573 -3.62869e-05 -0.00478913)
(-0.000443225 4.41188e-05 -0.000161694)
(-0.00043901 2.00215e-05 -0.000193005)
(-0.000439034 -2.01122e-05 -0.00019294)
(-0.000443264 -4.41581e-05 -0.000161499)
(-1.4737e-05 1.17777e-05 -5.70572e-06)
(-6.0996e-06 4.67469e-06 -6.69838e-06)
(-6.1101e-06 -4.72163e-06 -6.69629e-06)
(-1.47617e-05 -1.17972e-05 -5.70003e-06)
(1.39236e-06 4.23887e-06 -1.97885e-07)
(2.79303e-06 1.731e-06 -2.1485e-07)
(2.78804e-06 -1.73731e-06 -2.15203e-07)
(1.3804e-06 -4.24023e-06 -1.98939e-07)
(3.6145e-05 6.1309e-07 -5.77688e-09)
(3.67664e-05 2.48498e-07 -5.86936e-09)
(3.67656e-05 -2.49651e-07 -5.8755e-09)
(3.61429e-05 -6.12544e-07 -5.92749e-09)
(0.000930711 2.63434e-07 -8.99847e-11)
(0.000930826 1.07813e-07 -7.18404e-11)
(0.000930826 -1.09404e-07 -1.79098e-10)
(0.00093071 -2.65034e-07 -2.72367e-10)
(0.0183924 4.67447e-08 1.12116e-11)
(0.0183925 1.95059e-08 2.32518e-10)
(0.0183925 -1.83487e-08 -1.6872e-10)
(0.0183924 -4.57952e-08 -3.03982e-10)
(0.246755 1.23158e-08 2.94253e-10)
(0.246755 6.08443e-09 4.55952e-10)
(0.246755 -3.07531e-09 -9.55008e-11)
(0.246755 -1.03e-08 -4.94416e-10)
(-0.00618584 3.61246e-05 -0.00479416)
(-0.00624849 1.67579e-05 -0.00529577)
(-0.00624845 -1.71377e-05 -0.00529436)
(-0.00618573 -3.62866e-05 -0.00478913)
(-0.000443224 4.4119e-05 -0.000161693)
(-0.00043901 2.00216e-05 -0.000193006)
(-0.000439035 -2.01129e-05 -0.00019294)
(-0.000443265 -4.41575e-05 -0.000161499)
(-1.4737e-05 1.17777e-05 -5.7053e-06)
(-6.09983e-06 4.67459e-06 -6.69851e-06)
(-6.11007e-06 -4.72175e-06 -6.69663e-06)
(-1.47615e-05 -1.17972e-05 -5.69986e-06)
(1.39218e-06 4.23886e-06 -1.98214e-07)
(2.79258e-06 1.73097e-06 -2.14939e-07)
(2.78763e-06 -1.73728e-06 -2.15335e-07)
(1.38012e-06 -4.2403e-06 -1.99263e-07)
(3.61448e-05 6.12989e-07 -5.46657e-09)
(3.67662e-05 2.48486e-07 -5.65884e-09)
(3.67654e-05 -2.4961e-07 -5.89698e-09)
(3.61429e-05 -6.12447e-07 -6.05986e-09)
(0.000930711 2.63369e-07 2.21818e-11)
(0.000930826 1.07858e-07 -5.39522e-11)
(0.000930825 -1.09441e-07 -2.06505e-10)
(0.00093071 -2.65064e-07 -2.24664e-10)
(0.0183924 4.68386e-08 3.46023e-11)
(0.0183925 1.97108e-08 2.49262e-10)
(0.0183925 -1.8471e-08 -5.42983e-11)
(0.0183924 -4.58428e-08 -2.34866e-10)
(0.246755 1.2412e-08 1.40707e-10)
(0.246755 6.22965e-09 7.45471e-10)
(0.246755 -3.17155e-09 -3.63885e-11)
(0.246755 -1.03367e-08 -3.74489e-10)
(-0.00618584 3.61242e-05 -0.00479416)
(-0.00624849 1.6758e-05 -0.00529577)
(-0.00624844 -1.71371e-05 -0.00529436)
(-0.00618573 -3.6288e-05 -0.00478913)
(-0.000443224 4.41186e-05 -0.000161694)
(-0.00043901 2.00216e-05 -0.000193006)
(-0.000439035 -2.01122e-05 -0.00019294)
(-0.000443265 -4.41588e-05 -0.000161499)
(-1.4737e-05 1.17776e-05 -5.70575e-06)
(-6.10024e-06 4.67458e-06 -6.69862e-06)
(-6.10991e-06 -4.72182e-06 -6.69644e-06)
(-1.47617e-05 -1.17975e-05 -5.70035e-06)
(1.39174e-06 4.23881e-06 -1.98376e-07)
(2.79241e-06 1.73102e-06 -2.15244e-07)
(2.78702e-06 -1.73728e-06 -2.15334e-07)
(1.38033e-06 -4.24041e-06 -1.98438e-07)
(3.61447e-05 6.13072e-07 -5.64663e-09)
(3.67659e-05 2.4851e-07 -5.64717e-09)
(3.67651e-05 -2.4953e-07 -5.86508e-09)
(3.61427e-05 -6.12216e-07 -6.02503e-09)
(0.00093071 2.6329e-07 -1.12656e-10)
(0.000930825 1.07825e-07 -3.56578e-11)
(0.000930825 -1.09422e-07 -1.46335e-10)
(0.00093071 -2.65064e-07 -2.39607e-10)
(0.0183924 4.67717e-08 -8.01869e-11)
(0.0183925 1.97792e-08 1.22658e-10)
(0.0183925 -1.83869e-08 -1.97439e-13)
(0.0183924 -4.59294e-08 -2.0733e-10)
(0.246755 1.23693e-08 -3.16141e-10)
(0.246755 6.29984e-09 1.23708e-10)
(0.246755 -3.11908e-09 1.33162e-10)
(0.246755 -1.03949e-08 -3.67723e-10)
)
;

boundaryField
{
    movingWall
    {
        type            fixedValue;
        value           uniform (1 0 0);
    }
    CPLReceiveMD
    {
        type            fixedValue;
        value           uniform (-0.0208405 0 -0.0564069);
    }
    streamwiseIn
    {
        type            cyclic;
    }
    streamwiseOut
    {
        type            cyclic;
    }
    front
    {
        type            cyclic;
    }
    back
    {
        type            cyclic;
    }
    procBoundary1to0
    {
        type            processor;
        value           nonuniform List<vector> 
64
(
(-0.00626419 3.62878e-05 -0.00286678)
(-0.000448547 4.41581e-05 -8.10226e-05)
(-2.6887e-05 1.17911e-05 -3.2739e-06)
(-6.40257e-07 4.24229e-06 -1.52471e-07)
(3.5255e-05 6.1392e-07 -5.82027e-09)
(0.000930547 2.63152e-07 -1.48439e-10)
(0.0183924 4.61454e-08 8.40291e-11)
(0.246755 1.12902e-08 3.22849e-12)
(-0.00626419 3.62878e-05 -0.00286678)
(-0.000448548 4.41582e-05 -8.10229e-05)
(-2.68869e-05 1.17912e-05 -3.27437e-06)
(-6.40677e-07 4.24224e-06 -1.52428e-07)
(3.52551e-05 6.13955e-07 -5.99449e-09)
(0.000930547 2.63318e-07 -2.18289e-10)
(0.0183924 4.62368e-08 2.87826e-10)
(0.246755 1.13429e-08 5.66706e-10)
(-0.00626419 3.62882e-05 -0.00286678)
(-0.000448548 4.41585e-05 -8.10227e-05)
(-2.6887e-05 1.17911e-05 -3.27429e-06)
(-6.40684e-07 4.24225e-06 -1.52295e-07)
(3.5255e-05 6.14097e-07 -5.66266e-09)
(0.000930547 2.63433e-07 -1.38646e-10)
(0.0183924 4.64331e-08 3.17748e-10)
(0.246755 1.14978e-08 6.57517e-10)
(-0.00626419 3.62888e-05 -0.00286678)
(-0.000448548 4.41589e-05 -8.10226e-05)
(-2.68871e-05 1.17912e-05 -3.27435e-06)
(-6.40627e-07 4.2423e-06 -1.51837e-07)
(3.5255e-05 6.14113e-07 -5.49812e-09)
(0.000930547 2.63487e-07 -1.68884e-10)
(0.0183924 4.6529e-08 2.29346e-10)
(0.246755 1.15584e-08 2.89624e-10)
(-0.00626419 3.62892e-05 -0.00286678)
(-0.000448548 4.41591e-05 -8.10224e-05)
(-2.68869e-05 1.17912e-05 -3.27416e-06)
(-6.40498e-07 4.24238e-06 -1.51563e-07)
(3.5255e-05 6.14074e-07 -5.54488e-09)
(0.000930547 2.63505e-07 -2.27893e-10)
(0.0183924 4.65893e-08 -9.82121e-11)
(0.246755 1.15796e-08 -2.5375e-10)
(-0.00626419 3.62893e-05 -0.00286678)
(-0.000448548 4.41592e-05 -8.10227e-05)
(-2.68867e-05 1.17912e-05 -3.27385e-06)
(-6.40328e-07 4.24233e-06 -1.51425e-07)
(3.52549e-05 6.13966e-07 -5.39222e-09)
(0.000930547 2.63453e-07 -1.59169e-10)
(0.0183924 4.64792e-08 -2.87567e-10)
(0.246755 1.14716e-08 -4.77139e-10)
(-0.00626419 3.62884e-05 -0.00286678)
(-0.000448548 4.41584e-05 -8.10231e-05)
(-2.68869e-05 1.17913e-05 -3.27385e-06)
(-6.40073e-07 4.24235e-06 -1.51225e-07)
(3.52549e-05 6.13901e-07 -5.13596e-09)
(0.000930547 2.63342e-07 -1.10645e-10)
(0.0183924 4.63793e-08 -3.17917e-10)
(0.246755 1.1431e-08 -4.07272e-10)
(-0.00626419 3.62885e-05 -0.00286678)
(-0.000448548 4.41587e-05 -8.10226e-05)
(-2.68867e-05 1.17915e-05 -3.27364e-06)
(-6.40264e-07 4.2424e-06 -1.51864e-07)
(3.5255e-05 6.13737e-07 -5.27893e-09)
(0.000930547 2.63182e-07 -7.92811e-11)
(0.0183924 4.62775e-08 -2.43956e-10)
(0.246755 1.13816e-08 -3.79467e-10)
)
;
    }
    procBoundary1to0throughstreamwiseOut
    {
        type            processorCyclic;
        value           nonuniform List<vector> 
64
(
(-0.00626408 -3.6132e-05 -0.00286177)
(-0.000448588 -4.41184e-05 -8.08489e-05)
(-2.69111e-05 -1.17759e-05 -3.26938e-06)
(-6.51508e-07 -4.23706e-06 -1.51205e-07)
(3.52528e-05 -6.10899e-07 -5.42803e-09)
(0.000930546 -2.65311e-07 -1.77355e-10)
(0.0183924 -4.65306e-08 -6.07576e-11)
(0.246755 -1.14208e-08 -6.95101e-11)
(-0.00626408 -3.61298e-05 -0.00286177)
(-0.000448588 -4.41164e-05 -8.0848e-05)
(-2.69113e-05 -1.17756e-05 -3.26998e-06)
(-6.5159e-07 -4.23691e-06 -1.50693e-07)
(3.52526e-05 -6.11188e-07 -5.37229e-09)
(0.000930546 -2.65338e-07 -1.42824e-10)
(0.0183924 -4.64589e-08 -1.42726e-11)
(0.246755 -1.13621e-08 -1.03975e-10)
(-0.00626408 -3.61303e-05 -0.00286177)
(-0.000448588 -4.41173e-05 -8.08481e-05)
(-2.6911e-05 -1.17757e-05 -3.26966e-06)
(-6.52033e-07 -4.23682e-06 -1.51411e-07)
(3.52526e-05 -6.11297e-07 -5.52888e-09)
(0.000930546 -2.65376e-07 -1.08676e-10)
(0.0183924 -4.65544e-08 -1.18441e-10)
(0.246755 -1.14144e-08 -2.6054e-10)
(-0.00626408 -3.61294e-05 -0.00286177)
(-0.000448588 -4.41166e-05 -8.08484e-05)
(-2.69112e-05 -1.17757e-05 -3.26951e-06)
(-6.52147e-07 -4.23685e-06 -1.51935e-07)
(3.52526e-05 -6.11307e-07 -5.59978e-09)
(0.000930547 -2.65387e-07 -1.03479e-10)
(0.0183924 -4.66316e-08 -1.87452e-11)
(0.246755 -1.14247e-08 9.18196e-11)
(-0.00626408 -3.61293e-05 -0.00286177)
(-0.000448588 -4.41166e-05 -8.08485e-05)
(-2.69114e-05 -1.17758e-05 -3.26939e-06)
(-6.52126e-07 -4.23685e-06 -1.52268e-07)
(3.52527e-05 -6.11221e-07 -5.49639e-09)
(0.000930547 -2.65361e-07 -1.11563e-10)
(0.0183924 -4.65993e-08 1.0117e-10)
(0.246755 -1.13888e-08 1.9274e-10)
(-0.00626408 -3.61292e-05 -0.00286177)
(-0.000448588 -4.41164e-05 -8.08491e-05)
(-2.69115e-05 -1.1776e-05 -3.2693e-06)
(-6.51956e-07 -4.23688e-06 -1.52508e-07)
(3.52527e-05 -6.11112e-07 -5.52567e-09)
(0.000930546 -2.65363e-07 -1.5074e-10)
(0.0183924 -4.65499e-08 3.778e-11)
(0.246755 -1.13746e-08 3.06068e-10)
(-0.00626408 -3.61303e-05 -0.00286177)
(-0.000448588 -4.41173e-05 -8.08496e-05)
(-2.69114e-05 -1.1776e-05 -3.26967e-06)
(-6.51772e-07 -4.23693e-06 -1.52252e-07)
(3.52528e-05 -6.10951e-07 -5.70129e-09)
(0.000930546 -2.65348e-07 -2.27824e-10)
(0.0183924 -4.64394e-08 6.36936e-11)
(0.246755 -1.12851e-08 1.37039e-10)
(-0.00626408 -3.613e-05 -0.00286177)
(-0.000448588 -4.41166e-05 -8.08495e-05)
(-2.69114e-05 -1.17759e-05 -3.2693e-06)
(-6.51301e-07 -4.2369e-06 -1.52e-07)
(3.52528e-05 -6.10965e-07 -5.65686e-09)
(0.000930546 -2.65276e-07 -2.28375e-10)
(0.0183924 -4.64336e-08 -1.90973e-11)
(0.246755 -1.13215e-08 -2.94184e-10)
)
;
    }
}


// ************************************************************************* //
