/*--------------------------------*- C++ -*----------------------------------*\
| =========                 |                                                 |
| \\      /  F ield         | OpenFOAM: The Open Source CFD Toolbox           |
|  \\    /   O peration     | Version:  2306                                  |
|   \\  /    A nd           | Website:  www.openfoam.com                      |
|    \\/     M anipulation  |                                                 |
\*---------------------------------------------------------------------------*/
FoamFile
{
    version     2.0;
    format      ascii;
    arch        "LSB;label=32;scalar=64";
    class       volScalarField;
    location    "1";
    object      p;
}
// * * * * * * * * * * * * * * * * * * * * * * * * * * * * * * * * * * * * * //

dimensions      [0 2 -2 0 0 0 0];

internalField   nonuniform List<scalar> 
256
(
-0.00133118
-0.000643267
1.88339e-12
0.000687802
-0.000486197
-0.000385198
-0.00025833
-0.000157383
-0.000350126
-0.000333174
-0.000310407
-0.00029347
-0.000325194
-0.000323151
-0.000320437
-0.000318399
-0.00032305
-0.000322162
-0.000321465
-0.000320579
-0.000321762
-0.000321769
-0.000321796
-0.000321798
-0.000321793
-0.000321781
-0.000321762
-0.000321746
-0.000321826
-0.000321821
-0.000321816
-0.000321813
-0.00133118
-0.000643282
-4.41771e-08
0.000687787
-0.000486187
-0.000385193
-0.000258332
-0.000157389
-0.000350123
-0.000333172
-0.000310405
-0.000293468
-0.000325197
-0.00032315
-0.000320434
-0.000318394
-0.000323052
-0.000322161
-0.00032146
-0.000320571
-0.000321768
-0.000321773
-0.000321796
-0.000321796
-0.000321799
-0.000321786
-0.000321765
-0.000321748
-0.000321823
-0.000321818
-0.000321813
-0.000321812
-0.00133121
-0.000643318
-8.56604e-08
0.000687746
-0.000486182
-0.000385193
-0.000258336
-0.000157393
-0.000350123
-0.000333175
-0.000310408
-0.000293467
-0.000325198
-0.000323149
-0.00032043
-0.00031839
-0.000323052
-0.000322156
-0.000321451
-0.000320561
-0.000321775
-0.000321776
-0.000321795
-0.000321792
-0.000321805
-0.00032179
-0.000321769
-0.000321751
-0.00032182
-0.000321816
-0.000321811
-0.000321809
-0.00133121
-0.000643338
-1.04967e-07
0.000687729
-0.000486183
-0.000385194
-0.000258336
-0.000157391
-0.000350127
-0.00033318
-0.000310411
-0.000293467
-0.000325198
-0.000323149
-0.000320429
-0.000318389
-0.000323051
-0.000322153
-0.000321447
-0.000320556
-0.000321778
-0.000321776
-0.000321793
-0.00032179
-0.000321808
-0.000321792
-0.00032177
-0.000321752
-0.000321819
-0.000321814
-0.00032181
-0.000321808
-0.00133121
-0.000643334
-1.05422e-07
0.000687732
-0.000486188
-0.000385198
-0.000258338
-0.000157388
-0.000350131
-0.000333185
-0.000310415
-0.000293468
-0.000325197
-0.000323149
-0.000320431
-0.000318392
-0.00032305
-0.000322153
-0.000321447
-0.000320557
-0.000321777
-0.000321776
-0.000321792
-0.00032179
-0.000321808
-0.000321792
-0.000321769
-0.000321751
-0.000321819
-0.000321814
-0.00032181
-0.000321808
-0.00133121
-0.000643328
-9.47133e-08
0.000687732
-0.000486195
-0.000385204
-0.00025834
-0.000157388
-0.000350133
-0.000333187
-0.000310418
-0.000293472
-0.000325195
-0.00032315
-0.000320435
-0.000318397
-0.000323049
-0.000322153
-0.000321449
-0.000320562
-0.000321773
-0.000321773
-0.000321792
-0.000321791
-0.000321804
-0.000321789
-0.000321767
-0.000321749
-0.00032182
-0.000321816
-0.000321811
-0.000321808
-0.00133121
-0.000643309
-7.14795e-08
0.000687752
-0.000486205
-0.000385208
-0.000258338
-0.000157386
-0.000350132
-0.000333186
-0.000310418
-0.000293473
-0.000325193
-0.00032315
-0.000320437
-0.000318401
-0.000323047
-0.000322154
-0.000321455
-0.000320571
-0.000321767
-0.000321769
-0.000321792
-0.000321794
-0.000321798
-0.000321784
-0.000321764
-0.000321747
-0.000321823
-0.000321819
-0.000321813
-0.000321811
-0.00133119
-0.000643279
-3.74066e-08
0.000687795
-0.000486207
-0.000385204
-0.000258332
-0.000157383
-0.000350128
-0.000333181
-0.000310413
-0.000293471
-0.000325194
-0.00032315
-0.000320438
-0.000318402
-0.000323049
-0.000322158
-0.000321462
-0.00032058
-0.000321762
-0.000321766
-0.000321793
-0.000321798
-0.000321793
-0.00032178
-0.000321761
-0.000321745
-0.000321826
-0.000321821
-0.000321815
-0.000321813
)
;

boundaryField
{
    movingWall
    {
        type            zeroGradient;
    }
    CPLReceiveMD
    {
        type            zeroGradient;
    }
    streamwiseIn
    {
        type            cyclic;
    }
    streamwiseOut
    {
        type            cyclic;
    }
    front
    {
        type            cyclic;
    }
    back
    {
        type            cyclic;
    }
    procBoundary0to1
    {
        type            processor;
        value           nonuniform List<scalar> 
64
(
0.000687399
-0.000157196
-0.00029344
-0.000318409
-0.000320686
-0.000321801
-0.000321746
-0.000321815
0.000687383
-0.0001572
-0.00029344
-0.000318404
-0.000320676
-0.000321797
-0.000321748
-0.000321812
0.000687361
-0.0001572
-0.000293437
-0.000318402
-0.000320668
-0.000321794
-0.00032175
-0.00032181
0.000687356
-0.000157195
-0.000293432
-0.000318402
-0.000320665
-0.000321792
-0.000321751
-0.000321808
0.000687351
-0.000157192
-0.00029343
-0.000318405
-0.000320667
-0.000321793
-0.000321751
-0.000321808
0.000687348
-0.000157192
-0.000293432
-0.000318409
-0.000320674
-0.000321795
-0.00032175
-0.00032181
0.000687357
-0.000157192
-0.000293436
-0.000318413
-0.000320682
-0.000321799
-0.000321748
-0.000321812
0.000687383
-0.000157192
-0.000293439
-0.000318412
-0.000320687
-0.000321801
-0.000321746
-0.000321815
)
;
    }
    procBoundary0to1throughstreamwiseIn
    {
        type            processorCyclic;
        value           nonuniform List<scalar> 
64
(
-0.00133092
-0.00048646
-0.000350173
-0.000325194
-0.000322943
-0.000321757
-0.000321792
-0.000321825
-0.00133092
-0.000486448
-0.000350171
-0.000325197
-0.000322943
-0.000321762
-0.000321798
-0.000321823
-0.00133093
-0.000486441
-0.00035017
-0.000325199
-0.000322945
-0.000321769
-0.000321804
-0.000321821
-0.00133094
-0.00048644
-0.00035017
-0.000325201
-0.000322947
-0.000321773
-0.000321808
-0.000321819
-0.00133094
-0.000486445
-0.000350171
-0.0003252
-0.000322946
-0.000321774
-0.000321807
-0.000321819
-0.00133094
-0.000486453
-0.000350171
-0.000325197
-0.000322946
-0.000321771
-0.000321804
-0.00032182
-0.00133094
-0.000486463
-0.000350173
-0.000325195
-0.000322945
-0.000321764
-0.000321798
-0.000321823
-0.00133094
-0.000486467
-0.000350174
-0.000325193
-0.000322942
-0.000321757
-0.000321792
-0.000321825
)
;
    }
}


// ************************************************************************* //
