/*--------------------------------*- C++ -*----------------------------------*\
| =========                 |                                                 |
| \\      /  F ield         | OpenFOAM: The Open Source CFD Toolbox           |
|  \\    /   O peration     | Version:  2306                                  |
|   \\  /    A nd           | Website:  www.openfoam.com                      |
|    \\/     M anipulation  |                                                 |
\*---------------------------------------------------------------------------*/
FoamFile
{
    version     2.0;
    format      ascii;
    arch        "LSB;label=32;scalar=64";
    class       surfaceScalarField;
    location    "1";
    object      phi;
}
// * * * * * * * * * * * * * * * * * * * * * * * * * * * * * * * * * * * * * //

dimensions      [0 3 -1 0 0 0 0];

oriented        oriented;

internalField   nonuniform List<scalar> 
640
(
-0.0252589
-0.000223906
-0.0126183
-0.0251809
-7.79489e-05
-0.0135285
-0.0252589
7.79747e-05
-0.0135282
0.000223919
-0.0126172
-0.000622123
-0.000124475
-0.000306929
-0.000656265
-4.38071e-05
-0.000344546
-0.000622101
4.38154e-05
-0.000344565
0.000124481
-0.000306959
-0.00011211
-2.03202e-05
-4.00932e-06
-0.000148337
-7.57819e-06
-4.73095e-06
-0.000112099
7.58039e-06
-4.73198e-06
2.03208e-05
-4.01086e-06
-1.34053e-05
-6.89478e-06
-3.93306e-08
-1.82893e-05
-2.69351e-06
-4.7962e-08
-1.34017e-05
2.69418e-06
-4.87162e-08
6.89542e-06
-3.85132e-08
2.61294e-06
-1.38849e-06
5.19781e-10
4.66691e-07
-5.47347e-07
-2.85834e-10
2.61381e-06
5.4698e-07
-1.97259e-10
1.3884e-06
6.78148e-10
0.000563654
-3.61033e-07
-5.52517e-11
0.000563255
-1.47009e-07
-5.65737e-11
0.000563656
1.4627e-07
3.70132e-10
3.60576e-07
8.46404e-10
0.0308702
-8.16425e-08
-2.99182e-10
0.0308701
-3.39856e-08
-2.75985e-10
0.0308702
3.33135e-08
4.28569e-10
8.0634e-08
6.35424e-10
1.16377
-2.60961e-10
1.16377
-1.65103e-09
1.16377
5.54164e-10
6.04091e-10
-0.0252589
-0.000223903
-0.0126183
-0.0251809
-7.79513e-05
-0.0135284
-0.0252589
7.79841e-05
-0.0135282
0.000223918
-0.0126172
-0.000622125
-0.000124475
-0.000306927
-0.000656267
-4.3808e-05
-0.000344548
-0.000622105
4.38201e-05
-0.000344563
0.000124481
-0.00030696
-0.00011211
-2.03199e-05
-4.01012e-06
-0.000148339
-7.57816e-06
-4.73161e-06
-0.000112099
7.58071e-06
-4.73283e-06
2.03216e-05
-4.01176e-06
-1.34055e-05
-6.89487e-06
-3.92617e-08
-1.82894e-05
-2.69358e-06
-4.85883e-08
-1.34026e-05
2.69422e-06
-4.90159e-08
6.89565e-06
-3.88303e-08
2.61299e-06
-1.38845e-06
2.50319e-10
4.66663e-07
-5.47293e-07
-2.67188e-10
2.61383e-06
5.47052e-07
-1.88641e-10
1.38854e-06
5.16843e-10
0.000563655
-3.60986e-07
-4.39915e-10
0.000563255
-1.46893e-07
-2.65696e-10
0.000563655
1.46497e-07
2.10511e-10
3.60598e-07
9.43063e-10
0.0308702
-8.1374e-08
-4.54098e-10
0.0308701
-3.38444e-08
-4.31815e-10
0.0308702
3.34685e-08
3.95782e-10
8.07396e-08
6.43814e-10
1.16377
-1.36347e-09
1.16377
-2.19112e-09
1.16377
8.45579e-10
1.65493e-09
-0.0252589
-0.000223898
-0.0126183
-0.0251809
-7.79443e-05
-0.0135284
-0.0252589
7.79864e-05
-0.0135282
0.000223924
-0.0126172
-0.000622129
-0.000124475
-0.000306922
-0.000656269
-4.3805e-05
-0.000344547
-0.000622104
4.38217e-05
-0.000344564
0.000124483
-0.000306962
-0.000112111
-2.03199e-05
-4.00975e-06
-0.000148339
-7.57767e-06
-4.73128e-06
-0.000112099
7.5814e-06
-4.73248e-06
2.03222e-05
-4.01147e-06
-1.34054e-05
-6.89502e-06
-3.91778e-08
-1.82896e-05
-2.69355e-06
-4.84151e-08
-1.3403e-05
2.6943e-06
-4.8506e-08
6.89561e-06
-3.88686e-08
2.61297e-06
-1.38834e-06
-6.33342e-10
4.66609e-07
-5.47163e-07
-2.84648e-10
2.61394e-06
5.47206e-07
-4.09786e-10
1.38868e-06
-3.11175e-10
0.000563655
-3.60949e-07
-8.0371e-10
0.000563255
-1.46882e-07
-3.85104e-11
0.000563655
1.46737e-07
1.82676e-10
3.6089e-07
6.88406e-12
0.0308702
-8.13276e-08
-6.91366e-10
0.0308701
-3.39947e-08
-3.7288e-10
0.0308702
3.35927e-08
4.71452e-10
8.13321e-08
3.0969e-10
1.16377
-7.37036e-10
1.16377
-1.21574e-09
1.16377
-7.99392e-11
1.19381e-09
-0.0252589
-0.000223898
-0.0126183
-0.0251809
-7.79407e-05
-0.0135285
-0.0252589
7.79895e-05
-0.0135282
0.000223925
-0.0126172
-0.000622127
-0.000124475
-0.000306924
-0.000656265
-4.38035e-05
-0.000344547
-0.000622098
4.3823e-05
-0.000344564
0.000124483
-0.000306962
-0.000112112
-2.03197e-05
-4.01022e-06
-0.000148338
-7.57722e-06
-4.7308e-06
-0.000112099
7.58168e-06
-4.73096e-06
2.03219e-05
-4.01127e-06
-1.34055e-05
-6.89501e-06
-3.89453e-08
-1.82895e-05
-2.69351e-06
-4.80835e-08
-1.34026e-05
2.69436e-06
-4.81113e-08
6.89552e-06
-3.87029e-08
2.61299e-06
-1.38827e-06
-7.72858e-10
4.66661e-07
-5.47082e-07
-3.64901e-10
2.61372e-06
5.47314e-07
-3.99742e-10
1.38874e-06
-6.88212e-10
0.000563655
-3.60892e-07
-3.25897e-10
0.000563255
-1.46868e-07
4.69106e-11
0.000563655
1.46824e-07
4.99178e-11
3.61082e-07
-4.08524e-10
0.0308702
-8.12558e-08
-6.75456e-11
0.0308701
-3.40187e-08
-3.01721e-11
0.0308702
3.35495e-08
6.06698e-11
8.15003e-08
-1.74652e-10
1.16377
4.43971e-11
1.16377
-2.10114e-10
1.16377
-1.54297e-10
1.44759e-11
-0.0252589
-0.000223896
-0.0126183
-0.0251809
-7.79408e-05
-0.0135284
-0.0252589
7.79899e-05
-0.0135282
0.000223926
-0.0126172
-0.000622125
-0.000124475
-0.000306922
-0.000656265
-4.38041e-05
-0.000344544
-0.0006221
4.38225e-05
-0.000344561
0.000124483
-0.000306959
-0.000112112
-2.03196e-05
-4.01027e-06
-0.000148339
-7.57721e-06
-4.73048e-06
-0.000112099
7.58153e-06
-4.73002e-06
2.0322e-05
-4.01112e-06
-1.34057e-05
-6.89501e-06
-3.84012e-08
-1.82895e-05
-2.69344e-06
-4.80634e-08
-1.34026e-05
2.69439e-06
-4.79095e-08
6.89542e-06
-3.85129e-08
2.61279e-06
-1.38826e-06
-8.76225e-10
4.66658e-07
-5.47078e-07
-5.82914e-10
2.61389e-06
5.47344e-07
-5.75201e-10
1.38877e-06
-1.05318e-09
0.000563655
-3.60863e-07
1.61818e-10
0.000563255
-1.46847e-07
-5.44847e-11
0.000563655
1.46865e-07
-3.45863e-10
3.61138e-07
-8.28244e-10
0.0308702
-8.11822e-08
3.41887e-10
0.0308701
-3.39849e-08
3.82312e-10
0.0308702
3.35836e-08
-4.27683e-10
8.15601e-08
-5.56414e-10
1.16377
7.15735e-10
1.16377
1.0175e-09
1.16377
-2.44378e-10
-1.05221e-09
-0.0252589
-0.000223898
-0.0126183
-0.0251809
-7.79412e-05
-0.0135285
-0.0252589
7.79913e-05
-0.0135282
0.000223925
-0.0126172
-0.000622127
-0.000124474
-0.000306918
-0.000656267
-4.38044e-05
-0.000344541
-0.000622102
4.38232e-05
-0.000344558
0.000124483
-0.000306956
-0.000112111
-2.03193e-05
-4.01011e-06
-0.00014834
-7.57725e-06
-4.72908e-06
-0.000112099
7.5816e-06
-4.72887e-06
2.03224e-05
-4.0106e-06
-1.34056e-05
-6.89485e-06
-3.7884e-08
-1.82895e-05
-2.69338e-06
-4.8063e-08
-1.34026e-05
2.69437e-06
-4.75306e-08
6.89549e-06
-3.81504e-08
2.61303e-06
-1.3883e-06
-2.48219e-10
4.66869e-07
-5.47125e-07
-6.7388e-10
2.61402e-06
5.47287e-07
-6.49569e-10
1.38871e-06
-1.55037e-10
0.000563655
-3.60898e-07
9.76535e-10
0.000563255
-1.46922e-07
-1.58214e-10
0.000563656
1.46726e-07
-6.9981e-10
3.6099e-07
-2.61343e-10
0.0308702
-8.12582e-08
5.93868e-10
0.0308701
-3.39877e-08
3.25204e-10
0.0308702
3.36081e-08
-6.53683e-10
8.13839e-08
-4.18967e-10
1.16377
1.19293e-09
1.16377
2.20984e-09
1.16377
-7.8878e-10
-1.50957e-09
-0.0252589
-0.000223898
-0.0126183
-0.0251809
-7.79418e-05
-0.0135285
-0.0252589
7.7987e-05
-0.0135282
0.000223925
-0.0126172
-0.000622129
-0.000124474
-0.000306916
-0.000656269
-4.3804e-05
-0.000344539
-0.000622101
4.38217e-05
-0.000344562
0.000124484
-0.000306957
-0.000112111
-2.03197e-05
-4.00905e-06
-0.000148339
-7.57711e-06
-4.72793e-06
-0.000112099
7.58161e-06
-4.72868e-06
2.03221e-05
-4.00902e-06
-1.34053e-05
-6.89473e-06
-3.78509e-08
-1.82894e-05
-2.69332e-06
-4.77424e-08
-1.34025e-05
2.69432e-06
-4.71993e-08
6.89542e-06
-3.76095e-08
2.61308e-06
-1.38842e-06
2.49671e-10
4.66785e-07
-5.4728e-07
-4.32641e-10
2.61387e-06
5.47098e-07
-5.31313e-10
1.38861e-06
1.19815e-10
0.000563655
-3.60939e-07
8.52577e-10
0.000563255
-1.46939e-07
8.66236e-11
0.000563655
1.46441e-07
-3.73538e-10
3.60728e-07
8.13771e-11
0.0308702
-8.12928e-08
6.37752e-10
0.0308701
-3.38961e-08
2.70656e-10
0.0308702
3.34198e-08
-4.52738e-10
8.09174e-08
-3.73849e-10
1.16377
5.55249e-10
1.16377
1.52423e-09
1.16377
-4.02512e-10
-5.97046e-10
-0.0252589
-0.0002239
-0.0251809
-7.79499e-05
-0.0252589
7.79856e-05
0.000223918
-0.000622127
-0.000124474
-0.000656263
-4.3807e-05
-0.000622099
4.38208e-05
0.00012448
-0.000112111
-2.03195e-05
-0.000148339
-7.57745e-06
-0.000112099
7.58085e-06
2.03212e-05
-1.34049e-05
-6.89458e-06
-1.82894e-05
-2.69337e-06
-1.34027e-05
2.69435e-06
6.89562e-06
2.61299e-06
-1.38847e-06
4.66801e-07
-5.47397e-07
2.61388e-06
5.46923e-07
1.38849e-06
0.000563656
-3.61164e-07
0.000563255
-1.46973e-07
0.000563654
1.46354e-07
3.60443e-07
0.0308702
-8.16658e-08
0.0308701
-3.39484e-08
0.0308702
3.3428e-08
8.05265e-08
1.16377
1.16377
1.16377
)
;

boundaryField
{
    movingWall
    {
        type            calculated;
        value           uniform 0;
    }
    CPLReceiveMD
    {
        type            calculated;
        value           uniform 0;
    }
    streamwiseIn
    {
        type            cyclic;
        value           nonuniform List<scalar> 0();
    }
    streamwiseOut
    {
        type            cyclic;
        value           nonuniform List<scalar> 0();
    }
    front
    {
        type            cyclic;
        value           nonuniform List<scalar> 
32
(
-0.0126183
-0.000306923
-4.00922e-06
-3.83733e-08
-9.05603e-10
-4.95802e-10
-1.9936e-10
-2.39738e-10
-0.0135285
-0.000344546
-4.72927e-06
-4.73039e-08
-3.10506e-10
6.13663e-10
2.14677e-10
2.96668e-10
-0.0135282
-0.00034456
-4.72872e-06
-4.73961e-08
-2.35791e-10
6.27121e-10
2.13477e-10
4.44238e-10
-0.0126172
-0.000306959
-4.01072e-06
-3.83259e-08
-8.65221e-10
-4.30688e-10
-1.8028e-10
-2.66345e-10
)
;
    }
    back
    {
        type            cyclic;
        value           nonuniform List<scalar> 
32
(
0.0126183
0.000306923
4.00922e-06
3.83733e-08
9.05603e-10
4.95802e-10
1.9936e-10
2.39738e-10
0.0135285
0.000344546
4.72927e-06
4.73039e-08
3.10506e-10
-6.13663e-10
-2.14677e-10
-2.96668e-10
0.0135282
0.00034456
4.72872e-06
4.73961e-08
2.35791e-10
-6.27121e-10
-2.13477e-10
-4.44238e-10
0.0126172
0.000306959
4.01072e-06
3.83259e-08
8.65221e-10
4.30688e-10
1.8028e-10
2.66345e-10
)
;
    }
    procBoundary0to1
    {
        type            processor;
        value           nonuniform List<scalar> 
64
(
-0.0254828
-0.000522663
-7.93918e-06
2.38178e-08
8.11937e-06
0.000564682
0.0308705
1.16377
-0.0254828
-0.000522667
-7.93904e-06
2.35964e-08
8.12115e-06
0.000564683
0.0308705
1.16377
-0.0254828
-0.00052266
-7.93846e-06
2.35831e-08
8.12176e-06
0.000564684
0.0308705
1.16377
-0.0254828
-0.000522656
-7.93793e-06
2.36159e-08
8.12092e-06
0.000564683
0.0308705
1.16377
-0.0254828
-0.000522661
-7.93786e-06
2.38643e-08
8.12094e-06
0.000564684
0.0308705
1.16377
-0.0254828
-0.000522663
-7.93862e-06
2.39318e-08
8.11991e-06
0.000564683
0.0308705
1.16377
-0.0254828
-0.000522659
-7.93909e-06
2.36779e-08
8.12041e-06
0.000564683
0.0308705
1.16377
-0.0254828
-0.000522659
-7.93791e-06
2.36131e-08
8.122e-06
0.000564683
0.0308705
1.16377
)
;
    }
    procBoundary0to1throughstreamwiseIn
    {
        type            processorCyclic;
        value           nonuniform List<scalar> 
64
(
0.0254828
0.000522699
7.95563e-06
-1.9222e-08
-8.12071e-06
-0.000564682
-0.0308705
-1.16377
0.0254828
0.000522697
7.95552e-06
-1.95953e-08
-8.11917e-06
-0.000564682
-0.0308705
-1.16377
0.0254828
0.000522701
7.95627e-06
-1.95653e-08
-8.11878e-06
-0.000564682
-0.0308705
-1.16377
0.0254828
0.000522706
7.95676e-06
-1.94227e-08
-8.11959e-06
-0.000564683
-0.0308705
-1.16377
0.0254828
0.000522702
7.95646e-06
-1.93306e-08
-8.11942e-06
-0.000564683
-0.0308705
-1.16377
0.0254828
0.0005227
7.95586e-06
-1.93326e-08
-8.12021e-06
-0.000564683
-0.0308705
-1.16377
0.0254828
0.000522703
7.95566e-06
-1.96508e-08
-8.11991e-06
-0.000564683
-0.0308705
-1.16377
0.0254828
0.000522707
7.9562e-06
-1.96673e-08
-8.1181e-06
-0.000564682
-0.0308705
-1.16377
)
;
    }
}


// ************************************************************************* //
