/*--------------------------------*- C++ -*----------------------------------*\
| =========                 |                                                 |
| \\      /  F ield         | OpenFOAM: The Open Source CFD Toolbox           |
|  \\    /   O peration     | Version:  2306                                  |
|   \\  /    A nd           | Website:  www.openfoam.com                      |
|    \\/     M anipulation  |                                                 |
\*---------------------------------------------------------------------------*/
FoamFile
{
    version     2.0;
    format      ascii;
    arch        "LSB;label=32;scalar=64";
    class       surfaceScalarField;
    location    "1";
    object      phi_0;
}
// * * * * * * * * * * * * * * * * * * * * * * * * * * * * * * * * * * * * * //

dimensions      [0 3 -1 0 0 0 0];

oriented        oriented;

internalField   nonuniform List<scalar> 
640
(
-0.0225387
-0.000193047
-0.0135782
-0.0224714
-6.72896e-05
-0.0145181
-0.0225388
6.7302e-05
-0.0145178
0.000193053
-0.0135772
-0.000472315
-0.000121871
-0.000245934
-0.000497823
-4.17805e-05
-0.000276579
-0.000472303
4.17884e-05
-0.000276597
0.000121877
-0.000245959
-0.000107737
-1.96865e-05
-2.65283e-06
-0.00014226
-7.25668e-06
-3.15385e-06
-0.000107727
7.25755e-06
-3.15464e-06
1.96863e-05
-2.65486e-06
-1.28544e-05
-6.8146e-06
-2.24698e-08
-1.74702e-05
-2.64019e-06
-2.72845e-08
-1.28518e-05
2.64055e-06
-2.80048e-08
6.81452e-06
-2.15723e-08
1.12851e-07
-1.41072e-06
1.80628e-10
-1.96459e-06
-5.62384e-07
-2.39237e-10
1.14188e-07
5.62367e-07
-3.01806e-10
1.41121e-06
8.23554e-10
0.000419591
-3.58661e-07
8.70297e-11
0.000419175
-1.46497e-07
1.76451e-10
0.000419592
1.45813e-07
5.68425e-10
3.58486e-07
1.16118e-09
0.0252985
-8.22189e-08
1.42265e-10
0.0252984
-3.44899e-08
3.99134e-11
0.0252985
3.3563e-08
6.27619e-10
8.07301e-08
8.68079e-10
1.05529
-4.50797e-10
1.05529
-1.29643e-09
1.05529
-4.15057e-11
7.94444e-11
-0.0225387
-0.000193043
-0.0135782
-0.0224714
-6.72916e-05
-0.014518
-0.0225387
6.73109e-05
-0.0145179
0.000193052
-0.0135772
-0.000472318
-0.000121872
-0.000245932
-0.000497824
-4.17814e-05
-0.000276583
-0.000472307
4.17917e-05
-0.000276595
0.000121878
-0.00024596
-0.000107737
-1.9686e-05
-2.65357e-06
-0.000142262
-7.2567e-06
-3.15359e-06
-0.000107728
7.25771e-06
-3.15498e-06
1.96871e-05
-2.65528e-06
-1.28545e-05
-6.81442e-06
-2.22266e-08
-1.74702e-05
-2.64029e-06
-2.80296e-08
-1.28527e-05
2.64056e-06
-2.83408e-08
6.81509e-06
-2.16331e-08
1.12844e-07
-1.41082e-06
1.47352e-10
-1.96486e-06
-5.62416e-07
-4.04234e-10
1.13588e-07
5.62301e-07
-4.96603e-10
1.41115e-06
8.60556e-10
0.000419591
-3.58741e-07
3.11519e-11
0.000419175
-1.46326e-07
5.37833e-11
0.000419592
1.45996e-07
4.27745e-10
3.5835e-07
1.46578e-09
0.0252985
-8.18973e-08
1.41135e-10
0.0252984
-3.41814e-08
-2.79133e-11
0.0252985
3.38108e-08
6.738e-10
8.10044e-08
9.90438e-10
1.05529
-1.23495e-09
1.05529
-1.93782e-09
1.05529
1.00794e-10
6.70565e-10
-0.0225387
-0.000193038
-0.0135782
-0.0224714
-6.72841e-05
-0.014518
-0.0225388
6.73145e-05
-0.0145178
0.000193058
-0.0135772
-0.000472321
-0.000121873
-0.000245926
-0.000497828
-4.17796e-05
-0.000276581
-0.000472306
4.1793e-05
-0.000276595
0.000121879
-0.000245964
-0.000107738
-1.9686e-05
-2.65312e-06
-0.000142262
-7.25612e-06
-3.15363e-06
-0.000107728
7.25858e-06
-3.1547e-06
1.96877e-05
-2.65469e-06
-1.28544e-05
-6.8146e-06
-2.24677e-08
-1.74704e-05
-2.64024e-06
-2.79111e-08
-1.2853e-05
2.64071e-06
-2.7905e-08
6.81512e-06
-2.19601e-08
1.12725e-07
-1.41086e-06
-9.85844e-10
-1.96515e-06
-5.62458e-07
-3.19304e-10
1.13354e-07
5.62271e-07
-5.60905e-10
1.41109e-06
-6.70217e-10
0.000419591
-3.58615e-07
-7.29943e-10
0.000419175
-1.46261e-07
2.05454e-10
0.000419591
1.46219e-07
3.63009e-10
3.58543e-07
1.12165e-11
0.0252985
-8.1553e-08
-3.82798e-10
0.0252984
-3.40852e-08
4.32779e-11
0.0252985
3.40678e-08
5.66307e-10
8.18104e-08
4.0819e-10
1.05529
-7.70068e-10
1.05529
-1.04523e-09
1.05529
-4.17529e-10
4.53944e-10
-0.0225387
-0.000193038
-0.0135782
-0.0224714
-6.72797e-05
-0.0145181
-0.0225387
6.73175e-05
-0.0145179
0.00019306
-0.0135772
-0.00047232
-0.000121874
-0.000245928
-0.000497823
-4.17784e-05
-0.00027658
-0.000472299
4.17935e-05
-0.000276594
0.000121878
-0.000245964
-0.000107738
-1.96857e-05
-2.65438e-06
-0.000142261
-7.25536e-06
-3.15395e-06
-0.000107728
7.25906e-06
-3.15378e-06
1.96874e-05
-2.65504e-06
-1.28547e-05
-6.81463e-06
-2.23333e-08
-1.74702e-05
-2.64017e-06
-2.75562e-08
-1.28524e-05
2.64085e-06
-2.75713e-08
6.81515e-06
-2.19458e-08
1.12777e-07
-1.4109e-06
-8.72581e-10
-1.96507e-06
-5.6251e-07
-1.38096e-10
1.13203e-07
5.62226e-07
-2.11281e-10
1.411e-06
-8.33094e-10
0.000419591
-3.58548e-07
-4.55414e-10
0.000419175
-1.4625e-07
6.6806e-11
0.000419591
1.46264e-07
8.0619e-11
3.58687e-07
-5.41321e-10
0.0252985
-8.13697e-08
-1.70656e-10
0.0252984
-3.39923e-08
8.84248e-12
0.0252985
3.41088e-08
5.06981e-11
8.21245e-08
-2.33403e-10
1.05529
-2.69337e-11
1.05529
-1.29796e-10
1.05529
-1.19088e-10
-1.13409e-11
-0.0225387
-0.000193036
-0.0135782
-0.0224714
-6.72799e-05
-0.014518
-0.0225387
6.73183e-05
-0.0145179
0.000193061
-0.0135772
-0.000472318
-0.000121873
-0.000245924
-0.000497823
-4.1779e-05
-0.000276576
-0.000472301
4.1793e-05
-0.000276591
0.000121879
-0.000245959
-0.000107738
-1.96854e-05
-2.65529e-06
-0.000142262
-7.25523e-06
-3.15442e-06
-0.000107728
7.25887e-06
-3.15353e-06
1.96876e-05
-2.65562e-06
-1.2855e-05
-6.8147e-06
-2.18152e-08
-1.74701e-05
-2.6401e-06
-2.75326e-08
-1.28522e-05
2.6409e-06
-2.75189e-08
6.81505e-06
-2.1948e-08
1.12483e-07
-1.41092e-06
-7.1603e-10
-1.96508e-06
-5.62538e-07
-1.3904e-10
1.13465e-07
5.62224e-07
-6.97037e-11
1.41103e-06
-8.27995e-10
0.000419591
-3.58514e-07
-1.52434e-10
0.000419175
-1.46233e-07
-2.57386e-10
0.000419591
1.46298e-07
-4.78824e-10
3.58756e-07
-1.14018e-09
0.0252985
-8.12975e-08
-8.28433e-11
0.0252984
-3.397e-08
1.90968e-11
0.0252985
3.41273e-08
-5.48042e-10
8.21707e-08
-7.57609e-10
1.05529
6.93057e-10
1.05529
8.68181e-10
1.05529
1.58385e-10
-4.23132e-10
-0.0225387
-0.000193037
-0.0135782
-0.0224714
-6.72806e-05
-0.0145181
-0.0225387
6.73193e-05
-0.0145179
0.00019306
-0.0135772
-0.000472319
-0.000121872
-0.000245918
-0.000497825
-4.17791e-05
-0.000276571
-0.000472303
4.17938e-05
-0.000276587
0.000121879
-0.000245955
-0.000107738
-1.9685e-05
-2.65609e-06
-0.000142262
-7.2553e-06
-3.15341e-06
-0.000107728
7.25893e-06
-3.15292e-06
1.9688e-05
-2.65595e-06
-1.28548e-05
-6.81454e-06
-2.10236e-08
-1.747e-05
-2.64004e-06
-2.75794e-08
-1.28523e-05
2.64086e-06
-2.72038e-08
6.81506e-06
-2.14466e-08
1.12659e-07
-1.41088e-06
6.22356e-10
-1.96483e-06
-5.6251e-07
-1.78263e-10
1.13748e-07
5.62263e-07
-4.64025e-11
1.41109e-06
9.48197e-10
0.000419591
-3.58565e-07
1.01232e-09
0.000419175
-1.46335e-07
-4.68705e-10
0.000419591
1.4617e-07
-9.75874e-10
3.58651e-07
-3.24435e-10
0.0252985
-8.147e-08
2.02535e-10
0.0252984
-3.4094e-08
-1.49043e-10
0.0252985
3.40507e-08
-9.45459e-10
8.18512e-08
-6.69979e-10
1.05529
1.23368e-09
1.05529
1.84673e-09
1.05529
-1.56905e-10
-4.81227e-10
-0.0225387
-0.000193039
-0.0135782
-0.0224714
-6.72818e-05
-0.0145181
-0.0225388
6.7315e-05
-0.0145179
0.000193059
-0.0135773
-0.000472322
-0.000121871
-0.000245917
-0.000497828
-4.17781e-05
-0.000276569
-0.000472303
4.1793e-05
-0.00027659
0.000121879
-0.000245956
-0.000107737
-1.96857e-05
-2.6546e-06
-0.000142261
-7.25524e-06
-3.15236e-06
-0.000107727
7.25898e-06
-3.15297e-06
1.96876e-05
-2.65408e-06
-1.28545e-05
-6.8145e-06
-2.11608e-08
-1.74701e-05
-2.64003e-06
-2.7221e-08
-1.28523e-05
2.6407e-06
-2.67514e-08
6.81475e-06
-2.09804e-08
1.12931e-07
-1.41085e-06
7.21085e-10
-1.96485e-06
-5.62516e-07
9.54675e-11
1.13548e-07
5.62283e-07
-2.50264e-11
1.41123e-06
6.46548e-10
0.000419592
-3.58628e-07
7.81746e-10
0.000419175
-1.46358e-07
-6.9988e-11
0.000419591
1.45973e-07
-6.05953e-10
3.58538e-07
-1.10554e-10
0.0252985
-8.17683e-08
2.96244e-10
0.0252984
-3.4207e-08
-6.69545e-11
0.0252985
3.38025e-08
-5.98684e-10
8.12132e-08
-5.52718e-10
1.05529
6.97267e-10
1.05529
1.26968e-09
1.05529
1.37101e-10
-3.02818e-11
-0.0225387
-0.000193041
-0.0224714
-6.72903e-05
-0.0225387
6.73125e-05
0.000193053
-0.00047232
-0.000121871
-0.000497821
-4.17801e-05
-0.000472301
4.17922e-05
0.000121877
-0.000107737
-1.96856e-05
-0.000142261
-7.25572e-06
-0.000107727
7.25801e-06
1.96868e-05
-1.2854e-05
-6.81417e-06
-1.74702e-05
-2.64019e-06
-1.28529e-05
2.6406e-06
6.81505e-06
1.13295e-07
-1.41078e-06
-1.96444e-06
-5.62464e-07
1.13595e-07
5.62273e-07
1.41122e-06
0.000419592
-3.5895e-07
0.000419176
-1.46391e-07
0.000419591
1.45958e-07
3.58201e-07
0.0252985
-8.23021e-08
0.0252984
-3.44096e-08
0.0252985
3.3708e-08
8.05489e-08
1.05529
1.05529
1.05529
)
;

boundaryField
{
    movingWall
    {
        type            calculated;
        value           uniform 0;
    }
    CPLReceiveMD
    {
        type            calculated;
        value           uniform 0;
    }
    streamwiseIn
    {
        type            cyclic;
        value           nonuniform List<scalar> 0();
    }
    streamwiseOut
    {
        type            cyclic;
        value           nonuniform List<scalar> 0();
    }
    front
    {
        type            cyclic;
        value           nonuniform List<scalar> 
32
(
-0.0135782
-0.000245925
-2.65402e-06
-2.14651e-08
-1.13071e-09
-6.88796e-10
-1.4352e-10
-2.16142e-10
-0.014518
-0.000276578
-3.15299e-06
-2.65817e-08
1.19262e-10
6.97123e-10
2.48651e-10
2.47728e-10
-0.0145179
-0.00027659
-3.15278e-06
-2.66287e-08
2.84094e-10
5.91259e-10
1.95505e-10
3.0194e-10
-0.0135772
-0.00024596
-2.65522e-06
-2.16214e-08
-9.72362e-10
-5.1421e-10
-2.27531e-10
-1.93119e-10
)
;
    }
    back
    {
        type            cyclic;
        value           nonuniform List<scalar> 
32
(
0.0135782
0.000245925
2.65402e-06
2.14651e-08
1.13071e-09
6.88796e-10
1.4352e-10
2.16142e-10
0.014518
0.000276578
3.15299e-06
2.65817e-08
-1.19262e-10
-6.97123e-10
-2.48651e-10
-2.47728e-10
0.0145179
0.00027659
3.15278e-06
2.66287e-08
-2.84094e-10
-5.91259e-10
-1.95505e-10
-3.0194e-10
0.0135772
0.00024596
2.65522e-06
2.16214e-08
9.72362e-10
5.1421e-10
2.27531e-10
1.93119e-10
)
;
    }
    procBoundary0to1
    {
        type            processor;
        value           nonuniform List<scalar> 
64
(
-0.0227318
-0.000401127
-5.53711e-06
1.9844e-08
5.5157e-06
0.000420643
0.0252988
1.05529
-0.0227318
-0.000401132
-5.53648e-06
1.93785e-08
5.51748e-06
0.000420644
0.0252988
1.05529
-0.0227318
-0.000401123
-5.53709e-06
1.99712e-08
5.51891e-06
0.000420645
0.0252988
1.05529
-0.0227318
-0.000401118
-5.53647e-06
1.98835e-08
5.5175e-06
0.000420644
0.0252988
1.05529
-0.0227318
-0.000401124
-5.53639e-06
2.03209e-08
5.51747e-06
0.000420644
0.0252988
1.05529
-0.0227318
-0.000401127
-5.53689e-06
2.01971e-08
5.51594e-06
0.000420643
0.0252988
1.05529
-0.0227318
-0.000401122
-5.53786e-06
2.01101e-08
5.51737e-06
0.000420644
0.0252988
1.05529
-0.0227318
-0.000401122
-5.53552e-06
1.94886e-08
5.51903e-06
0.000420644
0.0252988
1.05529
)
;
    }
    procBoundary0to1throughstreamwiseIn
    {
        type            processorCyclic;
        value           nonuniform List<scalar> 
64
(
0.0227318
0.000401148
5.55142e-06
-1.63906e-08
-5.51804e-06
-0.000420644
-0.0252988
-1.05529
0.0227318
0.000401145
5.55138e-06
-1.72638e-08
-5.51641e-06
-0.000420643
-0.0252988
-1.05529
0.0227318
0.00040115
5.55119e-06
-1.67108e-08
-5.51534e-06
-0.000420643
-0.0252988
-1.05529
0.0227318
0.000401157
5.55176e-06
-1.64955e-08
-5.51662e-06
-0.000420644
-0.0252988
-1.05529
0.0227318
0.000401151
5.55137e-06
-1.62314e-08
-5.51642e-06
-0.000420643
-0.0252988
-1.05529
0.0227318
0.000401149
5.551e-06
-1.64088e-08
-5.51766e-06
-0.000420644
-0.0252988
-1.05529
0.0227318
0.000401153
5.55041e-06
-1.65063e-08
-5.51668e-06
-0.000420644
-0.0252988
-1.05529
0.0227318
0.000401158
5.55176e-06
-1.7085e-08
-5.5148e-06
-0.000420643
-0.0252988
-1.05529
)
;
    }
}


// ************************************************************************* //
