/*--------------------------------*- C++ -*----------------------------------*\
| =========                 |                                                 |
| \\      /  F ield         | OpenFOAM: The Open Source CFD Toolbox           |
|  \\    /   O peration     | Version:  2306                                  |
|   \\  /    A nd           | Website:  www.openfoam.com                      |
|    \\/     M anipulation  |                                                 |
\*---------------------------------------------------------------------------*/
FoamFile
{
    version     2.0;
    format      ascii;
    arch        "LSB;label=32;scalar=64";
    class       volVectorField;
    location    "1";
    object      U;
}
// * * * * * * * * * * * * * * * * * * * * * * * * * * * * * * * * * * * * * //

dimensions      [0 1 -1 0 0 0 0];

internalField   nonuniform List<vector> 
256
(
(-0.00210986 -4.85663e-05 -0.00106025)
(-0.00212361 -1.70388e-05 -0.00113672)
(-0.00212361 1.70489e-05 -0.0011367)
(-0.00210987 4.85697e-05 -0.00106016)
(-4.80683e-05 -5.16198e-05 -2.57889e-05)
(-5.57725e-05 -1.80855e-05 -2.89496e-05)
(-5.57716e-05 1.80852e-05 -2.89515e-05)
(-4.80668e-05 5.16205e-05 -2.57926e-05)
(-5.78278e-06 -5.83395e-06 -3.36883e-07)
(-1.23996e-05 -2.12023e-06 -3.97414e-07)
(-1.23992e-05 2.12314e-06 -3.97428e-07)
(-5.7815e-06 5.83592e-06 -3.37024e-07)
(-6.80106e-07 -3.03943e-06 -3.24451e-09)
(-1.57991e-06 -1.18146e-06 -4.07669e-09)
(-1.57987e-06 1.18059e-06 -3.99641e-09)
(-6.79854e-07 3.03835e-06 -3.14546e-09)
(4.09779e-07 -3.89335e-07 -4.34573e-11)
(4.62846e-08 -1.5397e-07 -3.62939e-11)
(4.61728e-08 1.54172e-07 -4.76559e-12)
(4.09989e-07 3.89576e-07 -8.78046e-12)
(4.73978e-05 -1.58343e-07 -7.61954e-11)
(4.73297e-05 -6.32192e-08 -1.30153e-11)
(4.73299e-05 6.37771e-08 5.82763e-11)
(4.73982e-05 1.59074e-07 9.83683e-12)
(0.00259387 -2.83964e-08 -6.85282e-11)
(0.00259385 -1.16252e-08 -3.24197e-11)
(0.00259385 1.14628e-08 1.7629e-11)
(0.00259387 2.81193e-08 8.65788e-12)
(0.097785 -6.71739e-09 4.01604e-11)
(0.097785 -3.21663e-09 -3.82266e-11)
(0.097785 1.529e-09 2.70517e-11)
(0.097785 4.8568e-09 -2.15961e-11)
(-0.00210986 -4.85656e-05 -0.00106025)
(-0.00212361 -1.7039e-05 -0.00113672)
(-0.00212361 1.70511e-05 -0.0011367)
(-0.00210987 4.85694e-05 -0.00106015)
(-4.80684e-05 -5.16193e-05 -2.57891e-05)
(-5.57724e-05 -1.80861e-05 -2.89506e-05)
(-5.5772e-05 1.80874e-05 -2.89521e-05)
(-4.80673e-05 5.16201e-05 -2.57928e-05)
(-5.78281e-06 -5.83389e-06 -3.36865e-07)
(-1.23997e-05 -2.12019e-06 -3.97496e-07)
(-1.23993e-05 2.12321e-06 -3.97659e-07)
(-5.78148e-06 5.83611e-06 -3.37151e-07)
(-6.80124e-07 -3.03939e-06 -3.28731e-09)
(-1.57988e-06 -1.18146e-06 -4.1158e-09)
(-1.57981e-06 1.18064e-06 -4.03385e-09)
(-6.79835e-07 3.03844e-06 -3.18e-09)
(4.0989e-07 -3.89322e-07 8.91867e-11)
(4.62439e-08 -1.53965e-07 1.61902e-11)
(4.62811e-08 1.54175e-07 5.13431e-11)
(4.0987e-07 3.89617e-07 1.48851e-10)
(4.73979e-05 -1.58388e-07 -3.8859e-11)
(4.73298e-05 -6.32461e-08 -4.69826e-11)
(4.73301e-05 6.37577e-08 2.43838e-11)
(4.73982e-05 1.59048e-07 1.63773e-10)
(0.00259387 -2.83526e-08 -5.979e-11)
(0.00259385 -1.15838e-08 -6.51786e-11)
(0.00259385 1.15217e-08 2.09982e-11)
(0.00259387 2.80952e-08 7.20088e-11)
(0.097785 -6.61842e-09 -6.11049e-11)
(0.097785 -3.13834e-09 -1.54644e-10)
(0.097785 1.6213e-09 1.3774e-10)
(0.097785 4.89879e-09 1.27165e-10)
(-0.00210986 -4.85644e-05 -0.00106025)
(-0.00212361 -1.70371e-05 -0.00113672)
(-0.00212361 1.70521e-05 -0.0011367)
(-0.00210987 4.8571e-05 -0.00106016)
(-4.80688e-05 -5.16184e-05 -2.57892e-05)
(-5.57729e-05 -1.80846e-05 -2.8951e-05)
(-5.57719e-05 1.80879e-05 -2.89522e-05)
(-4.8067e-05 5.16215e-05 -2.57919e-05)
(-5.7829e-06 -5.83389e-06 -3.36894e-07)
(-1.23999e-05 -2.12002e-06 -3.97549e-07)
(-1.23993e-05 2.12344e-06 -3.97653e-07)
(-5.78146e-06 5.83628e-06 -3.36996e-07)
(-6.8009e-07 -3.03941e-06 -3.30455e-09)
(-1.57984e-06 -1.18142e-06 -4.07633e-09)
(-1.57975e-06 1.18069e-06 -4.04772e-09)
(-6.79826e-07 3.03847e-06 -3.1836e-09)
(4.09912e-07 -3.89323e-07 -2.93519e-11)
(4.62574e-08 -1.53956e-07 3.43815e-12)
(4.6298e-08 1.54182e-07 -5.66113e-12)
(4.09893e-07 3.89624e-07 6.00213e-12)
(4.7398e-05 -1.58405e-07 -8.02438e-11)
(4.73298e-05 -6.32596e-08 7.99559e-13)
(4.73301e-05 6.37561e-08 3.38903e-11)
(4.73982e-05 1.59039e-07 4.25506e-11)
(0.00259387 -2.83508e-08 -7.26068e-11)
(0.00259385 -1.16175e-08 -4.21059e-11)
(0.00259385 1.1562e-08 2.96827e-11)
(0.00259387 2.81649e-08 3.31289e-11)
(0.0977851 -6.57896e-09 -1.23355e-10)
(0.097785 -3.13643e-09 -1.89904e-10)
(0.097785 1.68966e-09 3.59084e-12)
(0.0977851 5.00829e-09 1.79547e-10)
(-0.00210986 -4.85642e-05 -0.00106025)
(-0.00212361 -1.70362e-05 -0.00113672)
(-0.00212361 1.7053e-05 -0.0011367)
(-0.00210987 4.85715e-05 -0.00106015)
(-4.80689e-05 -5.16184e-05 -2.57894e-05)
(-5.57729e-05 -1.80838e-05 -2.89506e-05)
(-5.57711e-05 1.80886e-05 -2.89517e-05)
(-4.80666e-05 5.16216e-05 -2.57919e-05)
(-5.78295e-06 -5.83383e-06 -3.36913e-07)
(-1.23999e-05 -2.11984e-06 -3.97505e-07)
(-1.23992e-05 2.12354e-06 -3.97556e-07)
(-5.78138e-06 5.83615e-06 -3.36928e-07)
(-6.80065e-07 -3.0394e-06 -3.25331e-09)
(-1.5798e-06 -1.1814e-06 -4.04216e-09)
(-1.57973e-06 1.18071e-06 -4.0544e-09)
(-6.79824e-07 3.03845e-06 -3.24008e-09)
(4.09909e-07 -3.89319e-07 -5.15996e-11)
(4.62775e-08 -1.53948e-07 -2.8925e-11)
(4.62755e-08 1.54193e-07 -3.70535e-11)
(4.09904e-07 3.89621e-07 -5.90509e-11)
(4.7398e-05 -1.58412e-07 -5.18056e-11)
(4.73299e-05 -6.3274e-08 1.86768e-12)
(4.73301e-05 6.37604e-08 1.28344e-11)
(4.73982e-05 1.5905e-07 -2.61696e-11)
(0.00259387 -2.83388e-08 -3.13158e-11)
(0.00259385 -1.16272e-08 -2.31915e-11)
(0.00259385 1.15536e-08 3.47352e-11)
(0.00259387 2.81851e-08 1.83465e-11)
(0.0977851 -6.54985e-09 -1.99127e-12)
(0.097785 -3.12594e-09 -3.42116e-11)
(0.097785 1.69608e-09 -4.38276e-11)
(0.0977851 5.04072e-09 2.74572e-11)
(-0.00210986 -4.8564e-05 -0.00106025)
(-0.00212361 -1.70362e-05 -0.00113672)
(-0.00212361 1.70531e-05 -0.0011367)
(-0.00210987 4.85717e-05 -0.00106015)
(-4.80689e-05 -5.16181e-05 -2.57895e-05)
(-5.57725e-05 -1.80839e-05 -2.89502e-05)
(-5.57713e-05 1.80885e-05 -2.89517e-05)
(-4.80667e-05 5.16218e-05 -2.57927e-05)
(-5.78291e-06 -5.83374e-06 -3.36973e-07)
(-1.24e-05 -2.11982e-06 -3.97478e-07)
(-1.23992e-05 2.12349e-06 -3.97464e-07)
(-5.7814e-06 5.83622e-06 -3.37064e-07)
(-6.80072e-07 -3.03942e-06 -3.1852e-09)
(-1.57983e-06 -1.1814e-06 -4.00517e-09)
(-1.57977e-06 1.18071e-06 -4.05578e-09)
(-6.79827e-07 3.03843e-06 -3.30243e-09)
(4.0987e-07 -3.89328e-07 -7.21747e-11)
(4.62813e-08 -1.53952e-07 -5.57013e-11)
(4.62591e-08 1.54195e-07 -5.18115e-11)
(4.09943e-07 3.89623e-07 -7.15341e-11)
(4.7398e-05 -1.58406e-07 -1.15543e-11)
(4.73299e-05 -6.32695e-08 4.64554e-13)
(4.73301e-05 6.37708e-08 -1.24429e-11)
(4.73983e-05 1.59059e-07 -6.21442e-11)
(0.00259387 -2.83269e-08 2.00299e-11)
(0.00259385 -1.16238e-08 2.26819e-11)
(0.00259385 1.15607e-08 -1.27528e-11)
(0.00259387 2.82003e-08 -4.17733e-11)
(0.0977851 -6.54235e-09 3.45603e-12)
(0.097785 -3.12586e-09 6.65453e-12)
(0.097785 1.69328e-09 3.62845e-11)
(0.0977851 5.04764e-09 -2.95794e-11)
(-0.00210986 -4.85644e-05 -0.00106025)
(-0.00212361 -1.70364e-05 -0.00113672)
(-0.00212361 1.70533e-05 -0.0011367)
(-0.00210987 4.85714e-05 -0.00106016)
(-4.80691e-05 -5.16183e-05 -2.57889e-05)
(-5.57724e-05 -1.8084e-05 -2.89503e-05)
(-5.57718e-05 1.80889e-05 -2.8952e-05)
(-4.80665e-05 5.16217e-05 -2.57924e-05)
(-5.7829e-06 -5.83365e-06 -3.3701e-07)
(-1.23998e-05 -2.11985e-06 -3.97493e-07)
(-1.23993e-05 2.12353e-06 -3.9739e-07)
(-5.78144e-06 5.83635e-06 -3.37057e-07)
(-6.80083e-07 -3.0394e-06 -3.13057e-09)
(-1.57986e-06 -1.1814e-06 -3.95738e-09)
(-1.57984e-06 1.1807e-06 -4.02388e-09)
(-6.79861e-07 3.03846e-06 -3.27311e-09)
(4.09853e-07 -3.89334e-07 -5.64216e-11)
(4.63069e-08 -1.53958e-07 -4.74312e-11)
(4.62505e-08 1.54197e-07 -4.83051e-11)
(4.09958e-07 3.8963e-07 -8.74112e-11)
(4.7398e-05 -1.58388e-07 5.55594e-11)
(4.73299e-05 -6.3258e-08 4.66026e-14)
(4.733e-05 6.37616e-08 -4.51724e-11)
(4.73983e-05 1.59052e-07 -8.01666e-11)
(0.00259387 -2.83398e-08 4.52707e-11)
(0.00259385 -1.16364e-08 4.4849e-11)
(0.00259385 1.15504e-08 -5.54569e-11)
(0.00259387 2.81839e-08 -4.5566e-11)
(0.0977851 -6.57912e-09 1.26898e-10)
(0.097785 -3.15269e-09 1.3889e-10)
(0.097785 1.67506e-09 -9.0214e-11)
(0.0977851 5.00978e-09 -1.43552e-10)
(-0.00210986 -4.85645e-05 -0.00106025)
(-0.00212361 -1.70368e-05 -0.00113672)
(-0.00212361 1.70521e-05 -0.0011367)
(-0.00210987 4.85714e-05 -0.00106015)
(-4.8069e-05 -5.16184e-05 -2.57887e-05)
(-5.5773e-05 -1.80841e-05 -2.89503e-05)
(-5.57715e-05 1.8088e-05 -2.89514e-05)
(-4.80666e-05 5.16217e-05 -2.57913e-05)
(-5.78286e-06 -5.83379e-06 -3.36949e-07)
(-1.23998e-05 -2.11982e-06 -3.97381e-07)
(-1.23992e-05 2.12356e-06 -3.97413e-07)
(-5.78148e-06 5.83626e-06 -3.36928e-07)
(-6.80074e-07 -3.0394e-06 -3.12616e-09)
(-1.5799e-06 -1.18139e-06 -3.97088e-09)
(-1.5799e-06 1.18067e-06 -4.03065e-09)
(-6.79901e-07 3.03843e-06 -3.23223e-09)
(4.09857e-07 -3.89338e-07 4.63916e-11)
(4.62979e-08 -1.53979e-07 -4.62824e-11)
(4.62095e-08 1.54175e-07 -7.26138e-11)
(4.09921e-07 3.89615e-07 -2.43065e-11)
(4.73979e-05 -1.58379e-07 1.67368e-10)
(4.73298e-05 -6.32494e-08 1.077e-11)
(4.733e-05 6.37535e-08 -8.07049e-11)
(4.73982e-05 1.59064e-07 9.13097e-12)
(0.00259387 -2.83349e-08 1.21102e-10)
(0.00259385 -1.16067e-08 5.18372e-11)
(0.00259385 1.14971e-08 -3.45653e-11)
(0.00259387 2.81354e-08 -1.66268e-14)
(0.097785 -6.60314e-09 7.9739e-11)
(0.097785 -3.16598e-09 2.21476e-10)
(0.097785 1.59054e-09 -6.69271e-11)
(0.097785 4.91998e-09 -1.28371e-10)
(-0.00210986 -4.85652e-05 -0.00106025)
(-0.00212361 -1.70389e-05 -0.00113672)
(-0.00212361 1.70515e-05 -0.0011367)
(-0.00210987 4.85697e-05 -0.00106016)
(-4.80689e-05 -5.16187e-05 -2.57888e-05)
(-5.57724e-05 -1.80857e-05 -2.89495e-05)
(-5.57709e-05 1.80878e-05 -2.8951e-05)
(-4.80668e-05 5.16201e-05 -2.57915e-05)
(-5.78279e-06 -5.83381e-06 -3.3691e-07)
(-1.23997e-05 -2.11992e-06 -3.97327e-07)
(-1.23993e-05 2.12329e-06 -3.97353e-07)
(-5.78135e-06 5.83593e-06 -3.36875e-07)
(-6.80119e-07 -3.03937e-06 -3.18924e-09)
(-1.57994e-06 -1.18144e-06 -4.01373e-09)
(-1.57992e-06 1.18065e-06 -4.01844e-09)
(-6.79866e-07 3.03843e-06 -3.17053e-09)
(4.09956e-07 -3.89305e-07 -7.97579e-11)
(4.61954e-08 -1.53976e-07 -7.46735e-11)
(4.62618e-08 1.54166e-07 -1.00837e-10)
(4.0981e-07 3.89639e-07 -1.01008e-10)
(4.73979e-05 -1.58371e-07 3.44797e-11)
(4.73296e-05 -6.32364e-08 4.40871e-11)
(4.733e-05 6.37605e-08 6.97282e-12)
(4.73981e-05 1.59049e-07 -5.8063e-11)
(0.00259387 -2.84223e-08 4.58319e-11)
(0.00259385 -1.16091e-08 4.35146e-11)
(0.00259385 1.14991e-08 -2.82911e-13)
(0.00259387 2.80806e-08 -4.47925e-11)
(0.097785 -6.72155e-09 -6.38022e-11)
(0.097785 -3.20103e-09 4.99654e-11)
(0.097785 1.54968e-09 -3.69843e-12)
(0.097785 4.84452e-09 -1.10705e-11)
)
;

boundaryField
{
    movingWall
    {
        type            fixedValue;
        value           uniform (1 0 0);
    }
    CPLReceiveMD
    {
        type            fixedValue;
        value           uniform (-0.0160253 0 0.011852);
    }
    streamwiseIn
    {
        type            cyclic;
    }
    streamwiseOut
    {
        type            cyclic;
    }
    front
    {
        type            cyclic;
    }
    back
    {
        type            cyclic;
    }
    procBoundary0to1
    {
        type            processor;
        value           nonuniform List<vector> 
64
(
(-0.00217426 4.84319e-05 -0.000994458)
(-3.92437e-05 5.14966e-05 -1.45066e-05)
(4.45299e-06 5.84214e-06 -1.07241e-07)
(6.84586e-07 3.03894e-06 -1.99897e-10)
(9.46716e-07 3.88863e-07 9.19135e-11)
(4.74961e-05 1.58208e-07 6.11659e-11)
(0.00259389 2.80562e-08 -2.8302e-11)
(0.0977851 4.88948e-09 3.76144e-11)
(-0.00217426 4.84327e-05 -0.000994459)
(-3.92437e-05 5.14975e-05 -1.45069e-05)
(4.45299e-06 5.84235e-06 -1.07303e-07)
(6.84593e-07 3.03893e-06 -2.41294e-10)
(9.46615e-07 3.88837e-07 -1.01454e-11)
(4.7496e-05 1.58211e-07 -1.44434e-11)
(0.00259389 2.81003e-08 -6.74345e-11)
(0.0977851 4.97066e-09 -1.04041e-10)
(-0.00217426 4.8433e-05 -0.000994457)
(-3.92433e-05 5.14977e-05 -1.45062e-05)
(4.45299e-06 5.84241e-06 -1.07233e-07)
(6.84552e-07 3.03898e-06 -2.71119e-10)
(9.4659e-07 3.88849e-07 6.55239e-11)
(4.7496e-05 1.58191e-07 5.90274e-11)
(0.0025939 2.80658e-08 -2.84277e-11)
(0.0977851 4.98424e-09 -1.31051e-10)
(-0.00217426 4.84332e-05 -0.000994457)
(-3.92434e-05 5.14978e-05 -1.4506e-05)
(4.45296e-06 5.84235e-06 -1.07176e-07)
(6.84518e-07 3.03898e-06 -2.89197e-10)
(9.46592e-07 3.8886e-07 5.12182e-11)
(4.7496e-05 1.58179e-07 4.7229e-11)
(0.0025939 2.80545e-08 5.46552e-12)
(0.0977851 5.0004e-09 6.75799e-12)
(-0.00217426 4.84333e-05 -0.000994458)
(-3.92434e-05 5.14977e-05 -1.45062e-05)
(4.45294e-06 5.84231e-06 -1.0721e-07)
(6.84532e-07 3.039e-06 -3.27649e-10)
(9.46631e-07 3.88874e-07 4.11065e-11)
(4.74961e-05 1.58177e-07 2.40023e-11)
(0.0025939 2.80562e-08 4.67792e-11)
(0.0977851 5.00393e-09 2.2031e-11)
(-0.00217426 4.84335e-05 -0.000994459)
(-3.92433e-05 5.1498e-05 -1.45065e-05)
(4.45294e-06 5.84228e-06 -1.07163e-07)
(6.84555e-07 3.03901e-06 -3.32568e-10)
(9.46642e-07 3.88891e-07 -2.8005e-11)
(4.74961e-05 1.58183e-07 -3.27254e-11)
(0.0025939 2.80522e-08 3.02943e-11)
(0.0977851 4.97455e-09 1.50892e-10)
(-0.00217426 4.84335e-05 -0.000994457)
(-3.92434e-05 5.1498e-05 -1.45063e-05)
(4.45293e-06 5.84234e-06 -1.07006e-07)
(6.84565e-07 3.03899e-06 -2.70254e-10)
(9.4667e-07 3.88886e-07 -1.7641e-10)
(4.74961e-05 1.58199e-07 -1.43734e-10)
(0.00259389 2.80998e-08 9.95632e-12)
(0.0977851 4.97722e-09 7.14055e-11)
(-0.00217426 4.84327e-05 -0.000994456)
(-3.92436e-05 5.14973e-05 -1.45058e-05)
(4.45297e-06 5.84224e-06 -1.07048e-07)
(6.84624e-07 3.03888e-06 -2.0586e-10)
(9.46578e-07 3.88839e-07 9.06574e-12)
(4.7496e-05 1.58252e-07 4.00964e-13)
(0.00259389 2.80927e-08 3.16805e-11)
(0.0977851 4.8978e-09 -5.36088e-11)
)
;
    }
    procBoundary0to1throughstreamwiseIn
    {
        type            processorCyclic;
        value           nonuniform List<vector> 
64
(
(-0.00217425 -4.84453e-05 -0.000994554)
(-3.92449e-05 -5.14976e-05 -1.45052e-05)
(4.45164e-06 -5.84204e-06 -1.07101e-07)
(6.84213e-07 -3.04025e-06 -3.06628e-10)
(9.46376e-07 -3.88616e-07 7.18213e-11)
(4.74962e-05 -1.57528e-07 -2.93191e-11)
(0.00259389 -2.83347e-08 -5.25823e-12)
(0.0977851 -6.62544e-09 -2.59296e-12)
(-0.00217425 -4.8445e-05 -0.000994554)
(-3.9245e-05 -5.14975e-05 -1.45051e-05)
(4.4517e-06 -5.84208e-06 -1.07086e-07)
(6.84213e-07 -3.0403e-06 -3.66801e-10)
(9.46484e-07 -3.88645e-07 -7.39344e-11)
(4.74962e-05 -1.57507e-07 -1.55151e-10)
(0.0025939 -2.82747e-08 -4.48215e-11)
(0.0977851 -6.54228e-09 1.16821e-10)
(-0.00217425 -4.84447e-05 -0.000994554)
(-3.92451e-05 -5.14975e-05 -1.45056e-05)
(4.45171e-06 -5.84211e-06 -1.07112e-07)
(6.84215e-07 -3.04031e-06 -3.70056e-10)
(9.4648e-07 -3.88637e-07 2.59842e-11)
(4.74962e-05 -1.57512e-07 -4.59053e-11)
(0.0025939 -2.81632e-08 1.38167e-11)
(0.0977851 -6.40645e-09 1.98382e-10)
(-0.00217425 -4.84444e-05 -0.000994554)
(-3.92454e-05 -5.14972e-05 -1.45056e-05)
(4.45164e-06 -5.84199e-06 -1.07191e-07)
(6.84206e-07 -3.04031e-06 -2.94647e-10)
(9.46467e-07 -3.88624e-07 5.34305e-11)
(4.74962e-05 -1.57508e-07 1.79208e-11)
(0.0025939 -2.81359e-08 3.99883e-11)
(0.0977851 -6.36649e-09 3.98894e-11)
(-0.00217425 -4.84445e-05 -0.000994554)
(-3.92453e-05 -5.14973e-05 -1.4505e-05)
(4.4517e-06 -5.84199e-06 -1.07221e-07)
(6.84221e-07 -3.04028e-06 -2.22914e-10)
(9.46439e-07 -3.8862e-07 3.86158e-11)
(4.74962e-05 -1.57514e-07 4.56127e-11)
(0.0025939 -2.8136e-08 -4.58336e-12)
(0.0977851 -6.36302e-09 -2.52238e-11)
(-0.00217425 -4.84445e-05 -0.000994554)
(-3.92454e-05 -5.14973e-05 -1.45053e-05)
(4.45175e-06 -5.8421e-06 -1.07242e-07)
(6.84248e-07 -3.04027e-06 -1.90262e-10)
(9.46424e-07 -3.88623e-07 2.36434e-12)
(4.74962e-05 -1.57522e-07 6.53632e-11)
(0.0025939 -2.81771e-08 6.94664e-12)
(0.0977851 -6.41511e-09 -1.48683e-10)
(-0.00217425 -4.84449e-05 -0.000994554)
(-3.92452e-05 -5.14974e-05 -1.45055e-05)
(4.45177e-06 -5.84199e-06 -1.07191e-07)
(6.84279e-07 -3.04025e-06 -1.69179e-10)
(9.46446e-07 -3.88624e-07 -1.14291e-10)
(4.74962e-05 -1.57512e-07 3.00728e-11)
(0.0025939 -2.82631e-08 -3.9693e-12)
(0.0977851 -6.53175e-09 -1.70565e-10)
(-0.00217425 -4.84451e-05 -0.000994554)
(-3.92452e-05 -5.14975e-05 -1.45052e-05)
(4.45165e-06 -5.84202e-06 -1.07106e-07)
(6.8424e-07 -3.0403e-06 -2.17068e-10)
(9.46529e-07 -3.88649e-07 4.02698e-11)
(4.74962e-05 -1.57482e-07 7.23279e-11)
(0.00259389 -2.83143e-08 -2.10763e-12)
(0.0977851 -6.62561e-09 -8.02727e-12)
)
;
    }
}


// ************************************************************************* //
