/*--------------------------------*- C++ -*----------------------------------*\
| =========                 |                                                 |
| \\      /  F ield         | OpenFOAM: The Open Source CFD Toolbox           |
|  \\    /   O peration     | Version:  2306                                  |
|   \\  /    A nd           | Website:  www.openfoam.com                      |
|    \\/     M anipulation  |                                                 |
\*---------------------------------------------------------------------------*/
FoamFile
{
    version     2.0;
    format      ascii;
    arch        "LSB;label=32;scalar=64";
    class       volVectorField;
    location    "1";
    object      U_0;
}
// * * * * * * * * * * * * * * * * * * * * * * * * * * * * * * * * * * * * * //

dimensions      [0 1 -1 0 0 0 0];

internalField   nonuniform List<vector> 
256
(
(-0.0018878 -4.61455e-05 -0.0011409)
(-0.00189673 -1.60456e-05 -0.00121987)
(-0.00189672 1.60524e-05 -0.00121986)
(-0.00188781 4.61475e-05 -0.00114082)
(-3.6682e-05 -4.83615e-05 -2.06638e-05)
(-4.29437e-05 -1.67544e-05 -2.32386e-05)
(-4.29434e-05 1.6754e-05 -2.32403e-05)
(-3.66814e-05 4.83619e-05 -2.06672e-05)
(-5.508e-06 -4.93878e-06 -2.22957e-07)
(-1.19503e-05 -1.75338e-06 -2.64972e-07)
(-1.19497e-05 1.75518e-06 -2.64984e-07)
(-5.50687e-06 4.93998e-06 -2.2308e-07)
(-6.58461e-07 -2.97123e-06 -1.84215e-09)
(-1.5253e-06 -1.14523e-06 -2.33969e-09)
(-1.52538e-06 1.14482e-06 -2.24479e-09)
(-6.58293e-07 2.97045e-06 -1.74085e-09)
(2.02716e-07 -3.74316e-07 -8.11311e-11)
(-1.51896e-07 -1.47515e-07 1.03856e-11)
(-1.52281e-07 1.47677e-07 3.26176e-11)
(2.02966e-07 3.74509e-07 -9.089e-11)
(3.52942e-05 -1.53588e-07 -6.63356e-11)
(3.52249e-05 -6.21949e-08 4.43842e-11)
(3.52249e-05 6.22393e-08 1.0208e-10)
(3.52946e-05 1.53881e-07 -6.53141e-12)
(0.00212571 -2.8795e-08 -3.68117e-11)
(0.00212569 -1.17228e-08 1.85658e-11)
(0.00212569 1.19102e-08 5.54365e-11)
(0.00212571 2.88769e-08 2.65345e-11)
(0.0886707 -6.36198e-09 -2.27116e-11)
(0.0886707 -2.91237e-09 -3.53543e-11)
(0.0886707 1.75003e-09 -9.4591e-12)
(0.0886707 4.99757e-09 -3.90741e-11)
(-0.0018878 -4.61448e-05 -0.00114091)
(-0.00189673 -1.60458e-05 -0.00121987)
(-0.00189673 1.60542e-05 -0.00121986)
(-0.00188781 4.61475e-05 -0.00114082)
(-3.66823e-05 -4.8361e-05 -2.0664e-05)
(-4.29436e-05 -1.67549e-05 -2.32398e-05)
(-4.29436e-05 1.67558e-05 -2.32412e-05)
(-3.66821e-05 4.83617e-05 -2.06674e-05)
(-5.50808e-06 -4.93871e-06 -2.2292e-07)
(-1.19503e-05 -1.75332e-06 -2.64882e-07)
(-1.195e-05 1.75524e-06 -2.65032e-07)
(-5.50679e-06 4.94017e-06 -2.23249e-07)
(-6.5849e-07 -2.97113e-06 -1.86045e-09)
(-1.52529e-06 -1.14527e-06 -2.42187e-09)
(-1.52524e-06 1.14481e-06 -2.31642e-09)
(-6.58296e-07 2.97061e-06 -1.71183e-09)
(2.02896e-07 -3.74273e-07 1.68856e-10)
(-1.52124e-07 -1.475e-07 -6.54436e-11)
(-1.52037e-07 1.47674e-07 -6.75359e-11)
(2.02742e-07 3.74559e-07 1.61696e-10)
(3.52944e-05 -1.53651e-07 7.18177e-11)
(3.52248e-05 -6.21889e-08 -3.44691e-11)
(3.52251e-05 6.22522e-08 1.52363e-11)
(3.52945e-05 1.53843e-07 2.22198e-10)
(0.00212571 -2.87997e-08 3.75348e-11)
(0.00212569 -1.16867e-08 -3.46609e-12)
(0.00212569 1.19467e-08 5.9919e-11)
(0.00212571 2.88296e-08 1.32219e-10)
(0.0886707 -6.29809e-09 -6.22076e-11)
(0.0886707 -2.85022e-09 -1.50788e-10)
(0.0886707 1.81086e-09 3.67675e-11)
(0.0886707 5.02213e-09 4.33549e-11)
(-0.0018878 -4.61437e-05 -0.00114091)
(-0.00189673 -1.60441e-05 -0.00121988)
(-0.00189673 1.60552e-05 -0.00121986)
(-0.00188781 4.61487e-05 -0.00114082)
(-3.66826e-05 -4.83601e-05 -2.06641e-05)
(-4.29441e-05 -1.67536e-05 -2.32402e-05)
(-4.29436e-05 1.67564e-05 -2.32414e-05)
(-3.66816e-05 4.83629e-05 -2.06665e-05)
(-5.50811e-06 -4.93867e-06 -2.22845e-07)
(-1.19505e-05 -1.75314e-06 -2.64928e-07)
(-1.195e-05 1.75552e-06 -2.65053e-07)
(-5.50686e-06 4.94037e-06 -2.2295e-07)
(-6.58468e-07 -2.9712e-06 -1.90056e-09)
(-1.52525e-06 -1.14528e-06 -2.35108e-09)
(-1.52517e-06 1.14482e-06 -2.32025e-09)
(-6.58246e-07 2.97058e-06 -1.75311e-09)
(2.02854e-07 -3.74267e-07 -7.4627e-11)
(-1.52126e-07 -1.47484e-07 -1.86264e-11)
(-1.52058e-07 1.47687e-07 -5.33876e-11)
(2.02822e-07 3.74558e-07 -7.54758e-11)
(3.52944e-05 -1.53639e-07 -7.3742e-11)
(3.52248e-05 -6.21761e-08 2.62091e-11)
(3.52251e-05 6.22826e-08 5.18005e-11)
(3.52946e-05 1.53868e-07 3.54493e-11)
(0.00212571 -2.87878e-08 -3.94435e-11)
(0.00212569 -1.17163e-08 3.87087e-12)
(0.00212569 1.19716e-08 5.8646e-11)
(0.00212571 2.88652e-08 4.98559e-11)
(0.0886707 -6.25985e-09 -1.14593e-10)
(0.0886707 -2.85154e-09 -1.64287e-10)
(0.0886707 1.8565e-09 -3.42867e-11)
(0.0886707 5.08804e-09 6.61758e-11)
(-0.0018878 -4.61436e-05 -0.00114091)
(-0.00189673 -1.60432e-05 -0.00121987)
(-0.00189672 1.60559e-05 -0.00121986)
(-0.00188781 4.61493e-05 -0.00114082)
(-3.66827e-05 -4.83601e-05 -2.06642e-05)
(-4.29442e-05 -1.67527e-05 -2.32399e-05)
(-4.29426e-05 1.67569e-05 -2.32406e-05)
(-3.66813e-05 4.83631e-05 -2.06664e-05)
(-5.50814e-06 -4.9386e-06 -2.22923e-07)
(-1.19505e-05 -1.75289e-06 -2.64949e-07)
(-1.195e-05 1.75566e-06 -2.64993e-07)
(-5.50681e-06 4.94023e-06 -2.22944e-07)
(-6.58442e-07 -2.97122e-06 -1.84255e-09)
(-1.5252e-06 -1.14529e-06 -2.30923e-09)
(-1.52514e-06 1.14482e-06 -2.31292e-09)
(-6.58245e-07 2.97054e-06 -1.81477e-09)
(2.02859e-07 -3.74263e-07 -6.16661e-11)
(-1.52097e-07 -1.47473e-07 -9.90419e-12)
(-1.52098e-07 1.47699e-07 -2.37165e-11)
(2.02825e-07 3.74555e-07 -6.97047e-11)
(3.52944e-05 -1.53641e-07 -5.51181e-11)
(3.52249e-05 -6.21854e-08 1.5214e-11)
(3.52251e-05 6.22892e-08 2.43235e-11)
(3.52946e-05 1.53886e-07 -2.60063e-11)
(0.00212571 -2.87821e-08 -2.97759e-11)
(0.00212569 -1.17283e-08 -7.92626e-12)
(0.00212569 1.1954e-08 3.02292e-11)
(0.00212571 2.88775e-08 2.07398e-11)
(0.0886707 -6.23756e-09 -2.911e-11)
(0.0886707 -2.84217e-09 -3.26199e-11)
(0.0886707 1.85733e-09 -5.72793e-11)
(0.0886707 5.11108e-09 1.28574e-11)
(-0.0018878 -4.61434e-05 -0.00114091)
(-0.00189673 -1.60433e-05 -0.00121987)
(-0.00189673 1.60561e-05 -0.00121986)
(-0.00188781 4.61494e-05 -0.00114082)
(-3.66828e-05 -4.83598e-05 -2.06643e-05)
(-4.29437e-05 -1.67528e-05 -2.32392e-05)
(-4.29429e-05 1.67569e-05 -2.32404e-05)
(-3.66814e-05 4.83633e-05 -2.06674e-05)
(-5.50809e-06 -4.9385e-06 -2.23078e-07)
(-1.19506e-05 -1.75288e-06 -2.65007e-07)
(-1.19499e-05 1.75559e-06 -2.64953e-07)
(-5.50687e-06 4.94033e-06 -2.23122e-07)
(-6.58444e-07 -2.97126e-06 -1.78041e-09)
(-1.52522e-06 -1.14528e-06 -2.27121e-09)
(-1.52518e-06 1.14481e-06 -2.31942e-09)
(-6.58242e-07 2.9705e-06 -1.8868e-09)
(2.02812e-07 -3.74272e-07 -6.02829e-11)
(-1.52083e-07 -1.47476e-07 -2.01482e-11)
(-1.52123e-07 1.47699e-07 -8.14634e-12)
(2.02872e-07 3.74554e-07 -5.56393e-11)
(3.52944e-05 -1.53631e-07 -2.28637e-11)
(3.52249e-05 -6.21812e-08 1.88118e-13)
(3.52251e-05 6.22969e-08 -1.26767e-11)
(3.52946e-05 1.53898e-07 -7.69249e-11)
(0.00212571 -2.87703e-08 6.83673e-12)
(0.00212569 -1.17268e-08 1.11893e-11)
(0.00212569 1.19577e-08 -2.04274e-11)
(0.00212571 2.88936e-08 -5.06383e-11)
(0.0886707 -6.23219e-09 1.8158e-11)
(0.0886707 -2.84375e-09 4.9696e-12)
(0.0886707 1.85318e-09 3.37504e-11)
(0.0886707 5.11689e-09 -2.14214e-11)
(-0.0018878 -4.61437e-05 -0.00114091)
(-0.00189673 -1.60434e-05 -0.00121987)
(-0.00189673 1.60563e-05 -0.00121986)
(-0.00188781 4.61492e-05 -0.00114082)
(-3.66831e-05 -4.836e-05 -2.06635e-05)
(-4.29435e-05 -1.67529e-05 -2.32392e-05)
(-4.29435e-05 1.67573e-05 -2.32409e-05)
(-3.66812e-05 4.83631e-05 -2.06668e-05)
(-5.50808e-06 -4.93839e-06 -2.23194e-07)
(-1.19504e-05 -1.75292e-06 -2.65095e-07)
(-1.195e-05 1.75562e-06 -2.64939e-07)
(-5.50689e-06 4.94048e-06 -2.23149e-07)
(-6.5844e-07 -2.97121e-06 -1.72755e-09)
(-1.52524e-06 -1.14528e-06 -2.21898e-09)
(-1.52526e-06 1.14481e-06 -2.30808e-09)
(-6.58285e-07 2.97054e-06 -1.88245e-09)
(2.02799e-07 -3.74279e-07 -5.27173e-11)
(-1.5204e-07 -1.47485e-07 -1.12002e-11)
(-1.52139e-07 1.477e-07 9.89747e-12)
(2.02878e-07 3.74558e-07 -6.12555e-11)
(3.52944e-05 -1.53621e-07 1.62414e-12)
(3.52249e-05 -6.21806e-08 -3.3558e-11)
(3.5225e-05 6.22778e-08 -6.5156e-11)
(3.52946e-05 1.53883e-07 -1.21948e-10)
(0.00212571 -2.87762e-08 -8.98657e-12)
(0.00212569 -1.17385e-08 4.89625e-13)
(0.00212569 1.19529e-08 -7.36643e-11)
(0.00212571 2.88859e-08 -8.16196e-11)
(0.0886707 -6.25902e-09 1.09018e-10)
(0.0886707 -2.86766e-09 1.30719e-10)
(0.0886707 1.84107e-09 -1.10859e-11)
(0.0886707 5.09e-09 -5.57356e-11)
(-0.0018878 -4.61438e-05 -0.00114091)
(-0.00189673 -1.60437e-05 -0.00121987)
(-0.00189673 1.60552e-05 -0.00121986)
(-0.00188781 4.61491e-05 -0.00114082)
(-3.66828e-05 -4.83601e-05 -2.0663e-05)
(-4.29443e-05 -1.6753e-05 -2.32392e-05)
(-4.29432e-05 1.67566e-05 -2.32402e-05)
(-3.66813e-05 4.83631e-05 -2.06655e-05)
(-5.50802e-06 -4.93862e-06 -2.23234e-07)
(-1.19503e-05 -1.75293e-06 -2.65006e-07)
(-1.19498e-05 1.75565e-06 -2.65019e-07)
(-5.50694e-06 4.94034e-06 -2.23185e-07)
(-6.58431e-07 -2.97121e-06 -1.67875e-09)
(-1.52529e-06 -1.14524e-06 -2.25446e-09)
(-1.52534e-06 1.1448e-06 -2.33284e-09)
(-6.58316e-07 2.97051e-06 -1.82309e-09)
(2.0276e-07 -3.74298e-07 1.69318e-10)
(-1.52016e-07 -1.4752e-07 -3.88603e-11)
(-1.52178e-07 1.47677e-07 -3.83394e-11)
(2.02908e-07 3.74539e-07 1.75269e-10)
(3.52942e-05 -1.5362e-07 1.62698e-10)
(3.52248e-05 -6.21846e-08 -7.1214e-11)
(3.5225e-05 6.22579e-08 -1.41636e-10)
(3.52946e-05 1.53884e-07 4.77637e-11)
(0.00212571 -2.87676e-08 6.94175e-11)
(0.00212569 -1.17004e-08 -3.36285e-11)
(0.00212569 1.1935e-08 -9.36577e-11)
(0.00212571 2.88795e-08 -2.5753e-11)
(0.0886707 -6.28001e-09 1.19147e-10)
(0.0886707 -2.87121e-09 1.94672e-10)
(0.0886707 1.79107e-09 9.99543e-12)
(0.0886707 5.04151e-09 -5.68022e-12)
(-0.0018878 -4.61443e-05 -0.0011409)
(-0.00189673 -1.60456e-05 -0.00121987)
(-0.00189673 1.60546e-05 -0.00121985)
(-0.0018878 4.61479e-05 -0.00114082)
(-3.66829e-05 -4.83604e-05 -2.06635e-05)
(-4.29439e-05 -1.67545e-05 -2.32383e-05)
(-4.29423e-05 1.67562e-05 -2.32397e-05)
(-3.66816e-05 4.83618e-05 -2.06659e-05)
(-5.50805e-06 -4.93868e-06 -2.23078e-07)
(-1.19502e-05 -1.75302e-06 -2.64987e-07)
(-1.195e-05 1.75534e-06 -2.65045e-07)
(-5.50665e-06 4.93996e-06 -2.22995e-07)
(-6.58477e-07 -2.97107e-06 -1.77133e-09)
(-1.52539e-06 -1.14528e-06 -2.26634e-09)
(-1.52533e-06 1.1448e-06 -2.27988e-09)
(-6.58336e-07 2.97064e-06 -1.79479e-09)
(2.0296e-07 -3.74263e-07 -1.01196e-10)
(-1.52243e-07 -1.4753e-07 1.92986e-11)
(-1.51931e-07 1.47658e-07 1.40991e-11)
(2.0272e-07 3.74584e-07 -7.74725e-11)
(3.52943e-05 -1.53664e-07 -1.85669e-11)
(3.52246e-05 -6.2187e-08 5.23805e-11)
(3.52251e-05 6.22487e-08 2.51636e-11)
(3.52945e-05 1.53802e-07 -7.44865e-11)
(0.00212571 -2.8847e-08 1.2268e-12)
(0.00212569 -1.16907e-08 1.09002e-11)
(0.00212569 1.19562e-08 -1.64864e-11)
(0.00212571 2.88149e-08 -7.13398e-11)
(0.0886707 -6.37139e-09 -1.77008e-11)
(0.0886707 -2.89433e-09 5.26889e-11)
(0.0886707 1.77057e-09 3.15977e-11)
(0.0886707 4.98458e-09 -4.7671e-13)
)
;

boundaryField
{
    movingWall
    {
        type            fixedValue;
        value           uniform (1 0 0);
    }
    CPLReceiveMD
    {
        type            fixedValue;
        value           uniform (-0.039489 0 -0.00457663);
    }
    streamwiseIn
    {
        type            cyclic;
    }
    streamwiseOut
    {
        type            cyclic;
    }
    front
    {
        type            cyclic;
    }
    back
    {
        type            cyclic;
    }
    procBoundary0to1
    {
        type            processor;
        value           nonuniform List<vector> 
64
(
(-0.00193434 4.59825e-05 -0.00098201)
(-3.01451e-05 4.82117e-05 -9.25396e-06)
(4.58087e-06 4.9488e-06 -3.84264e-08)
(6.62266e-07 2.97011e-06 3.20639e-10)
(7.223e-07 3.73805e-07 7.70082e-11)
(3.53942e-05 1.53532e-07 7.79689e-11)
(0.00212573 2.88154e-08 6.10009e-12)
(0.0886707 5.02859e-09 -2.46257e-11)
(-0.00193434 4.59829e-05 -0.000982011)
(-3.01451e-05 4.82124e-05 -9.25451e-06)
(4.58094e-06 4.94906e-06 -3.83292e-08)
(6.62269e-07 2.96998e-06 2.55834e-10)
(7.22115e-07 3.73762e-07 -1.90584e-10)
(3.53941e-05 1.53606e-07 -4.76006e-11)
(0.00212573 2.88666e-08 -5.14723e-12)
(0.0886707 5.08633e-09 -1.24897e-10)
(-0.00193434 4.59833e-05 -0.000982009)
(-3.01447e-05 4.82127e-05 -9.2537e-06)
(4.58086e-06 4.94914e-06 -3.83796e-08)
(6.62247e-07 2.97004e-06 2.54844e-10)
(7.22157e-07 3.73774e-07 5.20723e-11)
(3.53941e-05 1.53605e-07 1.00335e-10)
(0.00212573 2.88329e-08 2.84712e-11)
(0.0886707 5.09388e-09 -1.21241e-10)
(-0.00193434 4.59834e-05 -0.000982009)
(-3.01447e-05 4.82127e-05 -9.25351e-06)
(4.58079e-06 4.9491e-06 -3.83094e-08)
(6.6221e-07 2.97003e-06 2.15531e-10)
(7.22152e-07 3.73786e-07 4.94305e-11)
(3.53941e-05 1.53601e-07 6.10202e-11)
(0.00212573 2.88126e-08 1.83208e-11)
(0.0886707 5.10049e-09 -1.87828e-11)
(-0.00193434 4.59835e-05 -0.00098201)
(-3.01447e-05 4.82127e-05 -9.25353e-06)
(4.58076e-06 4.94907e-06 -3.83402e-08)
(6.62224e-07 2.97006e-06 1.65361e-10)
(7.222e-07 3.73798e-07 6.80299e-11)
(3.53942e-05 1.53596e-07 2.22104e-11)
(0.00212573 2.88114e-08 3.64926e-11)
(0.0886707 5.10133e-09 4.29117e-11)
(-0.00193434 4.59838e-05 -0.000982011)
(-3.01446e-05 4.82129e-05 -9.2539e-06)
(4.58075e-06 4.94901e-06 -3.83125e-08)
(6.62235e-07 2.97006e-06 1.42272e-10)
(7.22205e-07 3.73815e-07 7.06969e-11)
(3.53942e-05 1.53591e-07 -2.60953e-11)
(0.00212573 2.88159e-08 -1.14788e-11)
(0.0886707 5.08339e-09 1.46618e-10)
(-0.00193434 4.59838e-05 -0.000982009)
(-3.01447e-05 4.8213e-05 -9.25376e-06)
(4.58073e-06 4.94909e-06 -3.80879e-08)
(6.62253e-07 2.97008e-06 1.3999e-10)
(7.22283e-07 3.73818e-07 -1.70132e-10)
(3.53942e-05 1.53567e-07 -2.00147e-10)
(0.00212573 2.88486e-08 -7.106e-11)
(0.0886707 5.08724e-09 1.02955e-10)
(-0.00193434 4.59829e-05 -0.000982008)
(-3.01449e-05 4.82122e-05 -9.25303e-06)
(4.5809e-06 4.94895e-06 -3.8283e-08)
(6.62295e-07 2.96991e-06 2.67197e-10)
(7.22077e-07 3.7377e-07 9.74344e-11)
(3.53941e-05 1.53629e-07 1.30427e-11)
(0.00212573 2.88854e-08 -1.69091e-12)
(0.0886707 5.04342e-09 -2.93806e-12)
)
;
    }
    procBoundary0to1throughstreamwiseIn
    {
        type            processorCyclic;
        value           nonuniform List<vector> 
64
(
(-0.00193433 -4.59924e-05 -0.000982096)
(-3.01453e-05 -4.82121e-05 -9.25301e-06)
(4.57968e-06 -4.949e-06 -3.82631e-08)
(6.61954e-07 -2.97087e-06 1.97975e-10)
(7.21926e-07 -3.73555e-07 9.96177e-11)
(3.53943e-05 -1.53395e-07 1.98133e-11)
(0.00212573 -2.88064e-08 2.90628e-11)
(0.0886707 -6.30762e-09 -1.20362e-11)
(-0.00193433 -4.59923e-05 -0.000982095)
(-3.01452e-05 -4.82121e-05 -9.25304e-06)
(4.5797e-06 -4.94903e-06 -3.81027e-08)
(6.61962e-07 -2.97101e-06 1.09046e-10)
(7.22132e-07 -3.73595e-07 -1.77159e-10)
(3.53944e-05 -1.53325e-07 -1.58886e-10)
(0.00212573 -2.87305e-08 -1.28407e-11)
(0.0886707 -6.23235e-09 2.78323e-11)
(-0.00193433 -4.5992e-05 -0.000982096)
(-3.01455e-05 -4.8212e-05 -9.25354e-06)
(4.5798e-06 -4.94904e-06 -3.81974e-08)
(6.6193e-07 -2.97101e-06 1.24969e-10)
(7.22083e-07 -3.73573e-07 4.31072e-11)
(3.53943e-05 -1.53329e-07 1.20534e-12)
(0.00212573 -2.86707e-08 4.27431e-11)
(0.0886707 -6.14215e-09 9.68238e-11)
(-0.00193433 -4.59918e-05 -0.000982096)
(-3.01458e-05 -4.82117e-05 -9.25349e-06)
(4.57976e-06 -4.94888e-06 -3.8295e-08)
(6.61921e-07 -2.97103e-06 1.91284e-10)
(7.22074e-07 -3.73559e-07 5.64514e-11)
(3.53943e-05 -1.53321e-07 2.92827e-11)
(0.00212573 -2.86492e-08 4.51239e-11)
(0.0886707 -6.11007e-09 2.96446e-11)
(-0.00193433 -4.59919e-05 -0.000982095)
(-3.01457e-05 -4.82118e-05 -9.25261e-06)
(4.57986e-06 -4.94889e-06 -3.83923e-08)
(6.61937e-07 -2.971e-06 2.51624e-10)
(7.22034e-07 -3.73551e-07 6.34241e-11)
(3.53943e-05 -1.5333e-07 5.34553e-11)
(0.00212573 -2.8653e-08 -2.53186e-12)
(0.0886707 -6.10885e-09 -1.81607e-11)
(-0.00193433 -4.59919e-05 -0.000982096)
(-3.01459e-05 -4.82118e-05 -9.25291e-06)
(4.5799e-06 -4.94905e-06 -3.84833e-08)
(6.61972e-07 -2.97098e-06 2.9195e-10)
(7.22028e-07 -3.73551e-07 6.25832e-11)
(3.53943e-05 -1.53344e-07 6.80699e-11)
(0.00212573 -2.86895e-08 -3.05531e-12)
(0.0886707 -6.15333e-09 -6.00083e-11)
(-0.00193433 -4.59921e-05 -0.000982096)
(-3.01456e-05 -4.82119e-05 -9.25319e-06)
(4.57992e-06 -4.94894e-06 -3.8364e-08)
(6.61998e-07 -2.97091e-06 3.06047e-10)
(7.22001e-07 -3.73553e-07 -1.79175e-10)
(3.53943e-05 -1.53353e-07 -7.4107e-11)
(0.00212573 -2.87453e-08 -6.92702e-11)
(0.0886707 -6.23468e-09 -6.66268e-11)
(-0.00193433 -4.59924e-05 -0.000982096)
(-3.01454e-05 -4.82121e-05 -9.25292e-06)
(4.57967e-06 -4.949e-06 -3.83358e-08)
(6.62e-07 -2.97103e-06 2.88334e-10)
(7.22157e-07 -3.73611e-07 8.50979e-11)
(3.53944e-05 -1.53303e-07 6.19e-11)
(0.00212573 -2.87483e-08 -2.9224e-11)
(0.0886707 -6.29738e-09 2.53138e-12)
)
;
    }
}


// ************************************************************************* //
