/*--------------------------------*- C++ -*----------------------------------*\
| =========                 |                                                 |
| \\      /  F ield         | OpenFOAM: The Open Source CFD Toolbox           |
|  \\    /   O peration     | Version:  2306                                  |
|   \\  /    A nd           | Website:  www.openfoam.com                      |
|    \\/     M anipulation  |                                                 |
\*---------------------------------------------------------------------------*/
FoamFile
{
    version     2.0;
    format      ascii;
    arch        "LSB;label=32;scalar=64";
    class       volScalarField;
    location    "4";
    object      p;
}
// * * * * * * * * * * * * * * * * * * * * * * * * * * * * * * * * * * * * * //

dimensions      [0 2 -2 0 0 0 0];

internalField   nonuniform List<scalar> 
256
(
-0.00182523
1.35252e-06
0.00171011
0.00353645
0.000622449
0.000769363
0.000941762
0.00108825
0.00073825
0.000809576
0.000900876
0.000972184
0.000834982
0.000847042
0.000863396
0.000875446
0.000851406
0.00085364
0.00085677
0.000859004
0.000855136
0.000855164
0.000855203
0.00085524
0.000854562
0.000854935
0.000855456
0.00085582
0.000855088
0.000855159
0.000855249
0.000855311
-0.00182523
1.36371e-06
0.00171011
0.00353646
0.000622462
0.000769377
0.000941769
0.00108826
0.00073826
0.000809584
0.000900878
0.000972181
0.000834994
0.000847046
0.000863389
0.000875431
0.000851409
0.000853639
0.000856765
0.000858995
0.000855136
0.000855163
0.000855202
0.000855239
0.000854561
0.000854934
0.000855457
0.000855821
0.000855088
0.00085516
0.000855253
0.000855313
-0.00182521
1.37612e-06
0.00171013
0.00353647
0.000622478
0.000769391
0.000941779
0.00108825
0.000738269
0.00080959
0.000900879
0.000972175
0.000835006
0.000847049
0.000863381
0.000875415
0.000851412
0.00085364
0.000856761
0.000858988
0.000855138
0.000855164
0.000855202
0.000855238
0.000854559
0.000854933
0.000855458
0.000855822
0.000855086
0.00085516
0.000855253
0.000855314
-0.0018252
1.38565e-06
0.00171013
0.00353647
0.000622485
0.000769397
0.00094178
0.00108825
0.000738273
0.000809591
0.000900876
0.00097217
0.000835009
0.000847048
0.000863375
0.000875408
0.000851414
0.00085364
0.000856759
0.000858985
0.000855139
0.000855165
0.000855202
0.000855238
0.000854559
0.000854931
0.000855456
0.000855823
0.000855084
0.000855157
0.00085525
0.000855313
-0.0018252
1.38265e-06
0.00171013
0.00353647
0.000622484
0.00076939
0.000941772
0.00108825
0.000738272
0.000809587
0.00090087
0.000972166
0.000835005
0.000847044
0.000863374
0.000875411
0.000851413
0.00085364
0.000856761
0.000858987
0.00085514
0.000855166
0.000855203
0.000855239
0.000854559
0.000854932
0.000855456
0.000855823
0.000855083
0.000855155
0.000855248
0.000855312
-0.0018252
1.37317e-06
0.00171012
0.00353646
0.000622476
0.000769379
0.000941763
0.00108824
0.000738265
0.00080958
0.000900867
0.000972168
0.000834995
0.00084704
0.000863379
0.000875422
0.000851412
0.000853641
0.000856765
0.000858993
0.00085514
0.000855167
0.000855205
0.00085524
0.000854561
0.000854933
0.000855456
0.000855822
0.000855086
0.000855155
0.000855248
0.000855312
-0.00182521
1.36471e-06
0.00171011
0.00353646
0.000622463
0.000769368
0.000941759
0.00108825
0.000738255
0.000809574
0.000900868
0.000972174
0.000834984
0.000847038
0.000863387
0.000875438
0.000851408
0.000853643
0.000856771
0.000859001
0.000855139
0.000855167
0.000855206
0.000855241
0.000854563
0.000854935
0.000855456
0.000855821
0.000855089
0.000855158
0.00085525
0.000855314
-0.00182523
1.35955e-06
0.00171011
0.00353645
0.00062245
0.000769362
0.000941759
0.00108825
0.000738248
0.000809572
0.000900872
0.000972181
0.000834978
0.000847038
0.000863395
0.000875449
0.000851405
0.000853642
0.000856773
0.000859005
0.000855136
0.000855166
0.000855205
0.000855241
0.000854562
0.000854935
0.000855456
0.000855819
0.000855091
0.00085516
0.000855251
0.000855314
)
;

boundaryField
{
    movingWall
    {
        type            zeroGradient;
    }
    CPLReceiveMD
    {
        type            zeroGradient;
    }
    streamwiseIn
    {
        type            cyclic;
    }
    streamwiseOut
    {
        type            cyclic;
    }
    front
    {
        type            cyclic;
    }
    back
    {
        type            cyclic;
    }
    procBoundary1to0
    {
        type            processor;
        value           nonuniform List<scalar> 
64
(
-0.00182598
0.000622078
0.000737634
0.00083513
0.000851412
0.000855142
0.000854554
0.000855085
-0.00182597
0.000622086
0.00073764
0.000835141
0.000851417
0.000855144
0.000854554
0.000855085
-0.00182594
0.0006221
0.000737648
0.000835153
0.000851421
0.000855146
0.000854553
0.000855083
-0.00182592
0.000622109
0.000737653
0.000835159
0.000851422
0.000855147
0.000854552
0.000855081
-0.00182592
0.000622112
0.000737655
0.000835157
0.000851421
0.000855147
0.000854552
0.00085508
-0.00182592
0.000622108
0.000737652
0.000835148
0.000851418
0.000855146
0.000854553
0.000855082
-0.00182594
0.000622098
0.000737643
0.000835136
0.000851414
0.000855144
0.000854554
0.000855086
-0.00182596
0.000622085
0.000737635
0.000835127
0.000851411
0.000855142
0.000854555
0.000855087
)
;
    }
    procBoundary1to0throughstreamwiseOut
    {
        type            processorCyclic;
        value           nonuniform List<scalar> 
64
(
0.00353538
0.00108794
0.000972749
0.00087528
0.000858992
0.000855244
0.000855812
0.000855313
0.0035354
0.00108794
0.000972743
0.000875264
0.000858985
0.000855244
0.000855814
0.000855314
0.00353541
0.00108793
0.000972736
0.00087525
0.000858978
0.000855244
0.000855815
0.000855313
0.00353541
0.00108793
0.000972731
0.000875245
0.000858975
0.000855244
0.000855815
0.000855312
0.00353542
0.00108793
0.000972731
0.00087525
0.000858977
0.000855244
0.000855815
0.000855311
0.00353541
0.00108793
0.000972735
0.000875263
0.000858981
0.000855244
0.000855813
0.000855313
0.0035354
0.00108794
0.000972743
0.000875277
0.000858988
0.000855244
0.000855812
0.000855315
0.00353539
0.00108794
0.000972749
0.000875285
0.000858993
0.000855245
0.000855811
0.000855315
)
;
    }
}


// ************************************************************************* //
