/*--------------------------------*- C++ -*----------------------------------*\
| =========                 |                                                 |
| \\      /  F ield         | OpenFOAM: The Open Source CFD Toolbox           |
|  \\    /   O peration     | Version:  2306                                  |
|   \\  /    A nd           | Website:  www.openfoam.com                      |
|    \\/     M anipulation  |                                                 |
\*---------------------------------------------------------------------------*/
FoamFile
{
    version     2.0;
    format      ascii;
    arch        "LSB;label=32;scalar=64";
    class       surfaceScalarField;
    location    "4";
    object      phi;
}
// * * * * * * * * * * * * * * * * * * * * * * * * * * * * * * * * * * * * * //

dimensions      [0 3 -1 0 0 0 0];

oriented        oriented;

internalField   nonuniform List<scalar> 
640
(
-0.0729631
-0.000662036
-0.0692349
-0.0727506
-0.000212451
-0.0710098
-0.0729626
0.000211956
-0.0709839
0.000661943
-0.0691831
-0.00936977
-0.000205997
-0.00502186
-0.00951505
-6.71777e-05
-0.00556841
-0.00937015
6.70554e-05
-0.00556638
0.000205969
-0.0050169
-0.000798268
-2.37774e-05
-0.00024253
-0.000856972
-8.47372e-06
-0.000280122
-0.000798276
8.36004e-06
-0.000280026
2.37339e-05
-0.000242292
1.25331e-05
-8.96431e-06
-9.75589e-06
7.59663e-06
-3.5373e-06
-1.12758e-05
1.24379e-05
3.51867e-06
-1.12721e-05
8.95835e-06
-9.74612e-06
0.00137224
-1.12486e-06
-3.52311e-07
0.00136915
-4.53122e-07
-3.94873e-07
0.00137222
4.48175e-07
-3.95101e-07
1.12482e-06
-3.52934e-07
0.0263253
-3.75458e-07
-1.19516e-08
0.026325
-1.52398e-07
-1.32844e-08
0.0263253
1.55857e-07
-1.21832e-08
3.76914e-07
-1.14121e-08
0.380619
-6.71281e-08
-1.23211e-09
0.380619
-2.7493e-08
-2.67276e-09
0.380619
3.38917e-08
1.25756e-09
7.66282e-08
1.20863e-09
3.75333
1.19703e-11
3.75333
-4.00971e-09
3.75333
7.44589e-10
2.46761e-09
-0.0729631
-0.000662037
-0.0692349
-0.0727506
-0.000212451
-0.0710098
-0.0729626
0.000211956
-0.0709839
0.000661942
-0.0691831
-0.00936977
-0.000205997
-0.00502186
-0.00951505
-6.71775e-05
-0.00556841
-0.00937015
6.70561e-05
-0.00556638
0.000205969
-0.0050169
-0.000798268
-2.37766e-05
-0.00024253
-0.000856973
-8.47346e-06
-0.000280121
-0.000798277
8.35962e-06
-0.000280025
2.37326e-05
-0.000242291
1.25348e-05
-8.96541e-06
-9.75614e-06
7.59898e-06
-3.53766e-06
-1.12758e-05
1.24393e-05
3.5189e-06
-1.12717e-05
8.95885e-06
-9.74605e-06
0.00137224
-1.12474e-06
-3.52869e-07
0.00136915
-4.52949e-07
-3.95388e-07
0.00137222
4.48831e-07
-3.95553e-07
1.12534e-06
-3.53119e-07
0.0263253
-3.75069e-07
-1.22973e-08
0.026325
-1.52328e-07
-1.33727e-08
0.0263253
1.56169e-07
-1.20953e-08
3.77195e-07
-1.09441e-08
0.380619
-6.69127e-08
-1.46932e-09
0.380619
-2.77132e-08
-3.8014e-09
0.380619
3.45311e-08
6.08764e-10
7.64924e-08
3.45679e-09
3.75333
-6.21317e-10
3.75333
-5.4238e-09
3.75333
-1.03454e-09
6.37031e-09
-0.0729631
-0.000662037
-0.0692349
-0.0727506
-0.00021245
-0.0710098
-0.0729626
0.000211957
-0.0709839
0.000661943
-0.0691831
-0.00936977
-0.000205997
-0.00502186
-0.00951505
-6.71776e-05
-0.00556841
-0.00937015
6.70561e-05
-0.00556638
0.000205969
-0.0050169
-0.000798269
-2.37756e-05
-0.000242531
-0.000856974
-8.4731e-06
-0.000280121
-0.000798277
8.35917e-06
-0.000280025
2.37315e-05
-0.000242291
1.25366e-05
-8.96612e-06
-9.75576e-06
7.60085e-06
-3.53768e-06
-1.12756e-05
1.24402e-05
3.5197e-06
-1.12717e-05
8.95974e-06
-9.74638e-06
0.00137224
-1.12486e-06
-3.53073e-07
0.00136915
-4.53104e-07
-3.9577e-07
0.00137222
4.49015e-07
-3.95665e-07
1.1258e-06
-3.52672e-07
0.0263253
-3.75216e-07
-1.19583e-08
0.026325
-1.52617e-07
-1.29481e-08
0.0263253
1.56379e-07
-1.22422e-08
3.77706e-07
-1.06978e-08
0.380619
-6.73313e-08
-1.01678e-09
0.380619
-2.81019e-08
-2.97757e-09
0.380619
3.48349e-08
-8.02753e-10
7.67119e-08
3.50205e-09
3.75333
4.99515e-10
3.75333
-3.1231e-09
3.75333
-3.29298e-09
5.86097e-09
-0.0729631
-0.000662036
-0.0692349
-0.0727506
-0.00021245
-0.0710098
-0.0729626
0.000211956
-0.0709839
0.000661942
-0.0691831
-0.00936977
-0.000205997
-0.00502186
-0.00951505
-6.71776e-05
-0.00556841
-0.00937015
6.70558e-05
-0.00556638
0.000205969
-0.0050169
-0.000798269
-2.37752e-05
-0.000242531
-0.000856974
-8.4728e-06
-0.000280122
-0.000798278
8.35905e-06
-0.000280024
2.37311e-05
-0.000242289
1.25369e-05
-8.96625e-06
-9.75528e-06
7.60139e-06
-3.53746e-06
-1.12755e-05
1.24407e-05
3.52024e-06
-1.12722e-05
8.96024e-06
-9.74736e-06
0.00137224
-1.12492e-06
-3.53206e-07
0.00136915
-4.5331e-07
-3.95934e-07
0.00137222
4.48997e-07
-3.9573e-07
1.126e-06
-3.52653e-07
0.0263253
-3.75387e-07
-1.12889e-08
0.026325
-1.52921e-07
-1.22952e-08
0.0263253
1.56204e-07
-1.22443e-08
3.78032e-07
-1.1204e-08
0.380619
-6.75868e-08
2.99143e-10
0.380619
-2.84384e-08
-1.14629e-09
0.380619
3.43987e-08
-1.10454e-09
7.68178e-08
4.50386e-10
3.75333
2.00557e-09
3.75333
-1.31464e-09
3.75333
-7.51955e-10
1.64001e-10
-0.0729631
-0.000662036
-0.0692349
-0.0727506
-0.00021245
-0.0710098
-0.0729626
0.000211956
-0.0709839
0.000661942
-0.0691831
-0.00936977
-0.000205997
-0.00502186
-0.00951505
-6.71778e-05
-0.00556841
-0.00937015
6.70556e-05
-0.00556638
0.000205969
-0.0050169
-0.000798268
-2.37755e-05
-0.000242531
-0.000856973
-8.4728e-06
-0.000280122
-0.000798278
8.35945e-06
-0.000280024
2.37316e-05
-0.000242288
1.25364e-05
-8.96573e-06
-9.75501e-06
7.60065e-06
-3.53716e-06
-1.12754e-05
1.24401e-05
3.52029e-06
-1.12726e-05
8.96002e-06
-9.74801e-06
0.00137224
-1.12473e-06
-3.53391e-07
0.00136915
-4.53403e-07
-3.95985e-07
0.00137222
4.48836e-07
-3.95822e-07
1.12593e-06
-3.52892e-07
0.0263253
-3.75263e-07
-1.08191e-08
0.026325
-1.53009e-07
-1.16248e-08
0.0263253
1.56209e-07
-1.23026e-08
3.78172e-07
-1.18126e-08
0.380619
-6.75161e-08
1.103e-09
0.380619
-2.84912e-08
1.59407e-09
0.380619
3.43781e-08
-1.52777e-09
7.70393e-08
-2.79169e-09
3.75333
1.46334e-09
3.75333
2.09607e-09
3.75333
1.19877e-09
-4.36614e-09
-0.0729631
-0.000662037
-0.0692349
-0.0727506
-0.000212451
-0.0710098
-0.0729626
0.000211955
-0.0709839
0.000661941
-0.0691831
-0.00936977
-0.000205997
-0.00502186
-0.00951505
-6.71782e-05
-0.00556841
-0.00937015
6.70553e-05
-0.00556638
0.000205969
-0.0050169
-0.000798268
-2.37764e-05
-0.000242531
-0.000856973
-8.47311e-06
-0.000280122
-0.000798277
8.36001e-06
-0.000280024
2.37325e-05
-0.000242288
1.25353e-05
-8.96486e-06
-9.75531e-06
7.59911e-06
-3.53676e-06
-1.12756e-05
1.2439e-05
3.52008e-06
-1.12725e-05
8.95932e-06
-9.74814e-06
0.00137224
-1.12461e-06
-3.53801e-07
0.00136915
-4.53424e-07
-3.95878e-07
0.00137222
4.48398e-07
-3.95655e-07
1.12549e-06
-3.53017e-07
0.0263253
-3.7513e-07
-1.09855e-08
0.026325
-1.53046e-07
-1.11626e-08
0.0263253
1.56218e-07
-1.2445e-08
3.7779e-07
-1.23332e-08
0.380619
-6.74017e-08
6.52734e-10
0.380619
-2.82386e-08
3.12284e-09
0.380619
3.45305e-08
-1.38419e-09
7.67973e-08
-3.91106e-09
3.75333
3.11516e-10
3.75333
5.51349e-09
3.75333
4.62481e-10
-6.09782e-09
-0.0729631
-0.000662038
-0.0692349
-0.0727506
-0.000212452
-0.0710098
-0.0729626
0.000211955
-0.0709839
0.000661942
-0.0691831
-0.00936977
-0.000205997
-0.00502186
-0.00951505
-6.71784e-05
-0.00556841
-0.00937015
6.70549e-05
-0.00556638
0.000205969
-0.0050169
-0.000798267
-2.37771e-05
-0.000242531
-0.000856972
-8.47343e-06
-0.000280122
-0.000798277
8.36023e-06
-0.000280024
2.37337e-05
-0.000242289
1.25342e-05
-8.96412e-06
-9.75542e-06
7.59722e-06
-3.53638e-06
-1.12757e-05
1.24374e-05
3.51978e-06
-1.12723e-05
8.95863e-06
-9.74744e-06
0.00137224
-1.1246e-06
-3.53318e-07
0.00136915
-4.53374e-07
-3.95459e-07
0.00137222
4.47907e-07
-3.95087e-07
1.12503e-06
-3.52446e-07
0.0263253
-3.75022e-07
-1.1321e-08
0.026325
-1.52503e-07
-1.1652e-08
0.0263253
1.55883e-07
-1.25839e-08
3.77545e-07
-1.21127e-08
0.380619
-6.70936e-08
-1.10352e-10
0.380619
-2.77282e-08
2.76091e-09
0.380619
3.38855e-08
-5.49255e-10
7.69993e-08
-3.20058e-09
3.75333
-1.89709e-09
3.75333
4.67937e-09
3.75333
1.40108e-09
-4.62107e-09
-0.0729631
-0.000662038
-0.0727506
-0.000212451
-0.0729626
0.000211956
0.000661941
-0.00936977
-0.000205998
-0.00951504
-6.7178e-05
-0.00937014
6.70553e-05
0.000205968
-0.000798268
-2.37776e-05
-0.000856972
-8.47368e-06
-0.000798276
8.36046e-06
2.3734e-05
1.25332e-05
-8.96412e-06
7.59602e-06
-3.53653e-06
1.24368e-05
3.51934e-06
8.95795e-06
0.00137224
-1.12456e-06
0.00136915
-4.5323e-07
0.00137222
4.47895e-07
1.12485e-06
0.0263253
-3.75073e-07
0.026325
-1.52369e-07
0.0263253
1.56057e-07
3.77324e-07
0.380619
-6.69422e-08
0.380619
-2.73903e-08
0.380619
3.41787e-08
7.70047e-08
3.75333
3.75333
3.75333
)
;

boundaryField
{
    movingWall
    {
        type            calculated;
        value           uniform 0;
    }
    CPLReceiveMD
    {
        type            calculated;
        value           uniform 0;
    }
    streamwiseIn
    {
        type            cyclic;
        value           nonuniform List<scalar> 0();
    }
    streamwiseOut
    {
        type            cyclic;
        value           nonuniform List<scalar> 0();
    }
    front
    {
        type            cyclic;
        value           nonuniform List<scalar> 
32
(
-0.0692349
-0.00502186
-0.00024253
-9.75574e-06
-3.52734e-07
-1.16073e-08
-7.37307e-10
-1.07669e-09
-0.0710098
-0.00556841
-0.000280122
-1.12757e-05
-3.94957e-07
-1.25328e-08
2.08937e-10
2.63588e-10
-0.0709839
-0.00556638
-0.000280025
-1.12721e-05
-3.94787e-07
-1.27425e-08
4.10415e-10
1.94134e-09
-0.0691831
-0.0050169
-0.00024229
-9.74682e-06
-3.52603e-07
-1.17148e-08
-1.2273e-09
-1.282e-09
)
;
    }
    back
    {
        type            cyclic;
        value           nonuniform List<scalar> 
32
(
0.0692349
0.00502186
0.00024253
9.75574e-06
3.52734e-07
1.16073e-08
7.37307e-10
1.07669e-09
0.0710098
0.00556841
0.000280122
1.12757e-05
3.94957e-07
1.25328e-08
-2.08937e-10
-2.63588e-10
0.0709839
0.00556638
0.000280025
1.12721e-05
3.94787e-07
1.27425e-08
-4.10415e-10
-1.94134e-09
0.0691831
0.0050169
0.00024229
9.74682e-06
3.52603e-07
1.17148e-08
1.2273e-09
1.282e-09
)
;
    }
    procBoundary1to0
    {
        type            processor;
        value           nonuniform List<scalar> 
64
(
0.0736251
0.00891373
0.000616048
-2.73459e-05
-0.00138008
-0.026326
-0.38062
-3.75333
0.0736251
0.00891373
0.000616048
-2.73458e-05
-0.00138008
-0.026326
-0.38062
-3.75333
0.0736251
0.00891373
0.000616048
-2.73466e-05
-0.00138008
-0.026326
-0.38062
-3.75333
0.0736251
0.00891373
0.000616048
-2.73464e-05
-0.00138008
-0.026326
-0.38062
-3.75333
0.0736251
0.00891373
0.000616047
-2.73465e-05
-0.00138008
-0.026326
-0.38062
-3.75333
0.0736251
0.00891373
0.000616047
-2.73465e-05
-0.00138008
-0.026326
-0.38062
-3.75333
0.0736251
0.00891373
0.000616047
-2.73469e-05
-0.00138008
-0.026326
-0.38062
-3.75333
0.0736251
0.00891373
0.000616047
-2.73462e-05
-0.00138008
-0.026326
-0.38062
-3.75333
)
;
    }
    procBoundary1to0throughstreamwiseOut
    {
        type            processorCyclic;
        value           nonuniform List<scalar> 
64
(
-0.0736245
-0.00891417
-0.00061604
2.72129e-05
0.00138006
0.026326
0.38062
3.75333
-0.0736245
-0.00891417
-0.00061604
2.72131e-05
0.00138006
0.026326
0.38062
3.75333
-0.0736245
-0.00891417
-0.00061604
2.72125e-05
0.00138006
0.026326
0.38062
3.75333
-0.0736245
-0.00891417
-0.000616041
2.72126e-05
0.00138006
0.026326
0.38062
3.75333
-0.0736245
-0.00891417
-0.000616041
2.72125e-05
0.00138006
0.026326
0.38062
3.75333
-0.0736245
-0.00891417
-0.000616041
2.72125e-05
0.00138006
0.026326
0.38062
3.75333
-0.0736245
-0.00891417
-0.000616041
2.7212e-05
0.00138006
0.026326
0.38062
3.75333
-0.0736245
-0.00891417
-0.000616041
2.72125e-05
0.00138006
0.026326
0.38062
3.75333
)
;
    }
}


// ************************************************************************* //
