/*--------------------------------*- C++ -*----------------------------------*\
| =========                 |                                                 |
| \\      /  F ield         | OpenFOAM: The Open Source CFD Toolbox           |
|  \\    /   O peration     | Version:  2306                                  |
|   \\  /    A nd           | Website:  www.openfoam.com                      |
|    \\/     M anipulation  |                                                 |
\*---------------------------------------------------------------------------*/
FoamFile
{
    version     2.0;
    format      ascii;
    arch        "LSB;label=32;scalar=64";
    class       surfaceScalarField;
    location    "4";
    object      phi_0;
}
// * * * * * * * * * * * * * * * * * * * * * * * * * * * * * * * * * * * * * //

dimensions      [0 3 -1 0 0 0 0];

oriented        oriented;

internalField   nonuniform List<scalar> 
640
(
-0.0721717
-0.000575723
-0.0664927
-0.0719922
-0.000179514
-0.0687567
-0.072171
0.000178794
-0.0687299
0.000575537
-0.0664371
-0.00902095
-0.000168762
-0.00471467
-0.00914731
-5.31587e-05
-0.00527407
-0.00902153
5.30155e-05
-0.00527209
0.000168712
-0.00470973
-0.000729721
-1.48875e-05
-0.000219997
-0.000777847
-5.03318e-06
-0.000255632
-0.000729744
4.91253e-06
-0.000255543
1.48409e-05
-0.000219774
1.54688e-05
-6.67079e-06
-8.66378e-06
1.30287e-05
-2.59302e-06
-1.00236e-05
1.53699e-05
2.57166e-06
-1.00208e-05
6.6634e-06
-8.65603e-06
0.00125318
-7.71322e-07
-3.08228e-07
0.0012509
-3.11146e-07
-3.43955e-07
0.00125316
3.11962e-07
-3.44138e-07
7.70973e-07
-3.08528e-07
0.0246161
-1.54321e-07
-1.00859e-08
0.0246159
-6.13592e-08
-1.1137e-08
0.0246161
6.33902e-08
-1.00531e-08
1.55837e-07
-9.57525e-09
0.364755
-3.2294e-08
-1.34562e-09
0.364755
-1.30396e-08
-2.83212e-09
0.364755
1.97495e-08
1.11361e-09
4.23271e-08
1.17414e-09
3.68445
-4.08665e-10
3.68445
-3.95683e-09
3.68445
5.38352e-10
2.42108e-09
-0.0721717
-0.000575724
-0.0664927
-0.0719922
-0.000179513
-0.0687567
-0.072171
0.000178794
-0.0687299
0.000575536
-0.0664371
-0.00902095
-0.000168763
-0.00471467
-0.00914731
-5.31587e-05
-0.00527407
-0.00902153
5.30162e-05
-0.00527209
0.000168712
-0.00470973
-0.000729721
-1.4887e-05
-0.000219997
-0.000777848
-5.03293e-06
-0.000255632
-0.000729744
4.91239e-06
-0.000255543
1.48399e-05
-0.000219774
1.54704e-05
-6.67158e-06
-8.66405e-06
1.30309e-05
-2.59326e-06
-1.00238e-05
1.53712e-05
2.57184e-06
-1.00205e-05
6.66367e-06
-8.65595e-06
0.00125318
-7.71117e-07
-3.08832e-07
0.0012509
-3.111e-07
-3.44284e-07
0.00125316
3.12362e-07
-3.44348e-07
7.71488e-07
-3.087e-07
0.0246161
-1.5369e-07
-1.05587e-08
0.0246159
-6.11298e-08
-1.1372e-08
0.0246161
6.38604e-08
-1.00943e-08
1.56141e-07
-9.14469e-09
0.364755
-3.1867e-08
-1.54927e-09
0.364755
-1.33327e-08
-3.79147e-09
0.364755
2.06994e-08
5.80373e-10
4.22108e-08
3.34661e-09
3.68445
-9.64e-10
3.68445
-5.54628e-09
3.68445
-1.14275e-09
6.34998e-09
-0.0721717
-0.000575724
-0.0664927
-0.0719922
-0.000179513
-0.0687567
-0.072171
0.000178795
-0.0687299
0.000575537
-0.0664371
-0.00902095
-0.000168763
-0.00471467
-0.00914731
-5.31592e-05
-0.00527407
-0.00902153
5.3016e-05
-0.00527209
0.000168713
-0.00470973
-0.000729722
-1.48862e-05
-0.000219998
-0.000777848
-5.03253e-06
-0.000255632
-0.000729745
4.91207e-06
-0.000255543
1.48391e-05
-0.000219774
1.5472e-05
-6.67198e-06
-8.6639e-06
1.30325e-05
-2.5933e-06
-1.00235e-05
1.53719e-05
2.57239e-06
-1.00202e-05
6.66431e-06
-8.65582e-06
0.00125318
-7.71152e-07
-3.08797e-07
0.0012509
-3.11184e-07
-3.4457e-07
0.00125316
3.12503e-07
-3.44391e-07
7.71923e-07
-3.08209e-07
0.0246161
-1.53717e-07
-1.02988e-08
0.0246159
-6.13417e-08
-1.11587e-08
0.0246161
6.40873e-08
-1.03935e-08
1.56673e-07
-8.95267e-09
0.364755
-3.2253e-08
-9.64287e-10
0.364755
-1.37021e-08
-2.88592e-09
0.364755
2.10716e-08
-5.20799e-10
4.25149e-08
3.38641e-09
3.68445
2.59057e-10
3.68445
-3.28029e-09
3.68445
-3.28625e-09
5.7786e-09
-0.0721717
-0.000575723
-0.0664927
-0.0719922
-0.000179513
-0.0687567
-0.072171
0.000178795
-0.0687299
0.000575536
-0.0664371
-0.00902095
-0.000168763
-0.00471467
-0.00914731
-5.31595e-05
-0.00527407
-0.00902153
5.30157e-05
-0.00527209
0.000168713
-0.00470973
-0.000729722
-1.48858e-05
-0.000219998
-0.000777849
-5.03235e-06
-0.000255632
-0.000729746
4.91191e-06
-0.000255542
1.48388e-05
-0.000219772
1.54722e-05
-6.67207e-06
-8.66372e-06
1.30329e-05
-2.59311e-06
-1.00234e-05
1.53722e-05
2.57274e-06
-1.00204e-05
6.66466e-06
-8.65623e-06
0.00125318
-7.71175e-07
-3.08733e-07
0.0012509
-3.1127e-07
-3.44661e-07
0.00125316
3.12529e-07
-3.4451e-07
7.72109e-07
-3.08369e-07
0.0246161
-1.53891e-07
-9.75279e-09
0.0246159
-6.169e-08
-1.06519e-08
0.0246161
6.38928e-08
-1.05688e-08
1.57022e-07
-9.61145e-09
0.364755
-3.24722e-08
4.6056e-10
0.364755
-1.39771e-08
-9.43444e-10
0.364755
2.06903e-08
-8.70597e-10
4.26385e-08
4.82204e-10
3.68445
1.86372e-09
3.68445
-1.34585e-09
3.68445
-7.18978e-10
1.96956e-10
-0.0721717
-0.000575723
-0.0664927
-0.0719922
-0.000179513
-0.0687567
-0.072171
0.000178794
-0.0687299
0.000575536
-0.0664371
-0.00902095
-0.000168763
-0.00471467
-0.00914731
-5.31596e-05
-0.00527407
-0.00902153
5.30156e-05
-0.00527209
0.000168713
-0.00470973
-0.000729721
-1.4886e-05
-0.000219998
-0.000777848
-5.03243e-06
-0.000255632
-0.000729746
4.91216e-06
-0.000255542
1.48391e-05
-0.000219771
1.54719e-05
-6.67171e-06
-8.6636e-06
1.30322e-05
-2.59287e-06
-1.00233e-05
1.53717e-05
2.57278e-06
-1.00205e-05
6.66455e-06
-8.65651e-06
0.00125318
-7.71027e-07
-3.08767e-07
0.0012509
-3.11294e-07
-3.44739e-07
0.00125316
3.12443e-07
-3.44696e-07
7.7204e-07
-3.08756e-07
0.0246161
-1.53888e-07
-9.37334e-09
0.0246159
-6.18813e-08
-1.00476e-08
0.0246161
6.38435e-08
-1.07911e-08
1.57174e-07
-1.03703e-08
0.364755
-3.23945e-08
1.28418e-09
0.364755
-1.4027e-08
1.8551e-09
0.364755
2.06363e-08
-1.30957e-09
4.28615e-08
-2.61158e-09
3.68445
1.50238e-09
3.68445
2.18317e-09
3.68445
1.20686e-09
-4.25499e-09
-0.0721717
-0.000575724
-0.0664927
-0.0719922
-0.000179514
-0.0687567
-0.072171
0.000178793
-0.0687299
0.000575535
-0.0664371
-0.00902095
-0.000168763
-0.00471467
-0.00914731
-5.31598e-05
-0.00527407
-0.00902153
5.30154e-05
-0.00527209
0.000168713
-0.00470973
-0.000729721
-1.48868e-05
-0.000219998
-0.000777848
-5.03273e-06
-0.000255633
-0.000729745
4.91254e-06
-0.000255541
1.48398e-05
-0.00021977
1.5471e-05
-6.67121e-06
-8.66384e-06
1.3031e-05
-2.59259e-06
-1.00235e-05
1.53708e-05
2.57264e-06
-1.00204e-05
6.66404e-06
-8.65656e-06
0.00125318
-7.70989e-07
-3.09348e-07
0.0012509
-3.11377e-07
-3.44728e-07
0.00125316
3.12183e-07
-3.44596e-07
7.71622e-07
-3.08987e-07
0.0246161
-1.53926e-07
-9.59416e-09
0.0246159
-6.20504e-08
-9.57696e-09
0.0246161
6.37097e-08
-1.09168e-08
1.56763e-07
-1.09577e-08
0.364755
-3.23228e-08
8.00258e-10
0.364755
-1.36718e-08
3.22613e-09
0.364755
2.07094e-08
-1.26116e-09
4.25879e-08
-3.65127e-09
3.68445
5.30103e-10
3.68445
5.64897e-09
3.68445
4.88029e-10
-6.0585e-09
-0.0721717
-0.000575725
-0.0664927
-0.0719922
-0.000179515
-0.0687567
-0.072171
0.000178793
-0.0687299
0.000575536
-0.0664371
-0.00902095
-0.000168763
-0.00471467
-0.00914731
-5.31596e-05
-0.00527407
-0.00902153
5.3015e-05
-0.00527209
0.000168712
-0.00470973
-0.000729721
-1.48873e-05
-0.000219999
-0.000777847
-5.033e-06
-0.000255633
-0.000729744
4.91265e-06
-0.000255542
1.48407e-05
-0.000219771
1.54701e-05
-6.67071e-06
-8.66369e-06
1.30293e-05
-2.5923e-06
-1.00235e-05
1.53695e-05
2.57238e-06
-1.00203e-05
6.6636e-06
-8.65614e-06
0.00125318
-7.71073e-07
-3.09006e-07
0.0012509
-3.11399e-07
-3.44493e-07
0.00125316
3.1189e-07
-3.44185e-07
7.71183e-07
-3.08284e-07
0.0246161
-1.53977e-07
-9.72607e-09
0.0246159
-6.16866e-08
-9.88493e-09
0.0246161
6.32126e-08
-1.07895e-08
1.56464e-07
-1.05928e-08
0.364755
-3.20425e-08
-6.50859e-11
0.364755
-1.32937e-08
2.7327e-09
0.364755
1.98811e-08
-5.60675e-10
4.27774e-08
-3.0571e-09
3.68445
-1.80016e-09
3.68445
4.73212e-09
3.68445
1.43675e-09
-4.63291e-09
-0.0721717
-0.000575725
-0.0719922
-0.000179515
-0.072171
0.000178794
0.000575535
-0.00902095
-0.000168763
-0.00914731
-5.31589e-05
-0.00902153
5.30155e-05
0.000168711
-0.000729721
-1.48878e-05
-0.000777847
-5.03321e-06
-0.000729744
4.9129e-06
1.48408e-05
1.54692e-05
-6.67077e-06
1.30282e-05
-2.59239e-06
1.5369e-05
2.57214e-06
6.66306e-06
0.00125318
-7.71058e-07
0.0012509
-3.11287e-07
0.00125316
3.11841e-07
7.71025e-07
0.0246161
-1.53994e-07
0.0246159
-6.15839e-08
0.0246161
6.33673e-08
1.56285e-07
0.364755
-3.19686e-08
0.364755
-1.2901e-08
0.364755
2.01496e-08
4.27768e-08
3.68445
3.68445
3.68445
)
;

boundaryField
{
    movingWall
    {
        type            calculated;
        value           uniform 0;
    }
    CPLReceiveMD
    {
        type            calculated;
        value           uniform 0;
    }
    streamwiseIn
    {
        type            cyclic;
        value           nonuniform List<scalar> 0();
    }
    streamwiseOut
    {
        type            cyclic;
        value           nonuniform List<scalar> 0();
    }
    front
    {
        type            cyclic;
        value           nonuniform List<scalar> 
32
(
-0.0664927
-0.00471467
-0.000219998
-8.66378e-06
-3.08588e-07
-9.85248e-09
-7.22316e-10
-1.07839e-09
-0.0687567
-0.00527407
-0.000255633
-1.00234e-05
-3.4406e-07
-1.0526e-08
-1.88142e-10
2.2965e-10
-0.0687299
-0.00527209
-0.000255543
-1.00204e-05
-3.43886e-07
-1.06761e-08
1.8696e-10
1.86125e-09
-0.0664371
-0.00470973
-0.000219773
-8.65628e-06
-3.08301e-07
-1.00171e-08
-1.02438e-09
-1.18546e-09
)
;
    }
    back
    {
        type            cyclic;
        value           nonuniform List<scalar> 
32
(
0.0664927
0.00471467
0.000219998
8.66378e-06
3.08588e-07
9.85248e-09
7.22316e-10
1.07839e-09
0.0687567
0.00527407
0.000255633
1.00234e-05
3.4406e-07
1.0526e-08
1.88142e-10
-2.2965e-10
0.0687299
0.00527209
0.000255543
1.00204e-05
3.43886e-07
1.06761e-08
-1.8696e-10
-1.86125e-09
0.0664371
0.00470973
0.000219773
8.65628e-06
3.08301e-07
1.00171e-08
1.02438e-09
1.18546e-09
)
;
    }
    procBoundary1to0
    {
        type            processor;
        value           nonuniform List<scalar> 
64
(
0.0727474
0.00861399
0.000575846
-2.36857e-05
-0.00125908
-0.0246168
-0.364755
-3.68445
0.0727474
0.00861399
0.000575845
-2.36856e-05
-0.00125908
-0.0246168
-0.364755
-3.68445
0.0727474
0.00861399
0.000575846
-2.36864e-05
-0.00125909
-0.0246168
-0.364756
-3.68445
0.0727474
0.00861399
0.000575845
-2.36861e-05
-0.00125908
-0.0246168
-0.364756
-3.68445
0.0727474
0.00861399
0.000575845
-2.36863e-05
-0.00125908
-0.0246168
-0.364756
-3.68445
0.0727474
0.00861399
0.000575845
-2.36863e-05
-0.00125908
-0.0246168
-0.364756
-3.68445
0.0727474
0.00861399
0.000575846
-2.36868e-05
-0.00125908
-0.0246168
-0.364755
-3.68445
0.0727474
0.00861399
0.000575845
-2.3686e-05
-0.00125908
-0.0246168
-0.364755
-3.68445
)
;
    }
    procBoundary1to0throughstreamwiseOut
    {
        type            processorCyclic;
        value           nonuniform List<scalar> 
64
(
-0.0727465
-0.00861471
-0.000575871
2.35471e-05
0.00125905
0.0246167
0.364755
3.68445
-0.0727465
-0.0086147
-0.000575872
2.35473e-05
0.00125905
0.0246168
0.364755
3.68445
-0.0727465
-0.0086147
-0.000575872
2.35466e-05
0.00125905
0.0246168
0.364756
3.68445
-0.0727465
-0.0086147
-0.000575873
2.35468e-05
0.00125906
0.0246168
0.364756
3.68445
-0.0727465
-0.0086147
-0.000575873
2.35466e-05
0.00125906
0.0246168
0.364756
3.68445
-0.0727465
-0.0086147
-0.000575873
2.35467e-05
0.00125906
0.0246168
0.364756
3.68445
-0.0727465
-0.0086147
-0.000575872
2.35461e-05
0.00125905
0.0246168
0.364755
3.68445
-0.0727465
-0.00861471
-0.000575872
2.35467e-05
0.00125905
0.0246167
0.364755
3.68445
)
;
    }
}


// ************************************************************************* //
