/*--------------------------------*- C++ -*----------------------------------*\
| =========                 |                                                 |
| \\      /  F ield         | OpenFOAM: The Open Source CFD Toolbox           |
|  \\    /   O peration     | Version:  2306                                  |
|   \\  /    A nd           | Website:  www.openfoam.com                      |
|    \\/     M anipulation  |                                                 |
\*---------------------------------------------------------------------------*/
FoamFile
{
    version     2.0;
    format      ascii;
    arch        "LSB;label=32;scalar=64";
    class       volVectorField;
    location    "4";
    object      U;
}
// * * * * * * * * * * * * * * * * * * * * * * * * * * * * * * * * * * * * * //

dimensions      [0 1 -1 0 0 0 0];

internalField   nonuniform List<vector> 
256
(
(-0.00594397 -0.00011375 -0.00581744)
(-0.00612267 -3.69262e-05 -0.00596657)
(-0.00612243 3.67782e-05 -0.00596439)
(-0.00594402 0.000113713 -0.00581308)
(-0.00076616 -0.000115916 -0.00042196)
(-0.000796058 -3.73502e-05 -0.000467884)
(-0.000796073 3.7311e-05 -0.000467713)
(-0.000766203 0.000115914 -0.000421543)
(-5.95983e-05 -5.77735e-06 -2.03786e-05)
(-6.98786e-05 -1.89386e-06 -2.35372e-05)
(-6.98802e-05 1.85381e-06 -2.3529e-05)
(-5.9601e-05 5.76122e-06 -2.03584e-05)
(1.6679e-06 -3.72361e-06 -8.1983e-07)
(8.38735e-07 -1.44843e-06 -9.47485e-07)
(8.33745e-07 1.44518e-06 -9.47084e-07)
(1.65637e-06 3.72292e-06 -8.18768e-07)
(0.000115652 -3.12688e-07 -2.96916e-08)
(0.000115224 -1.24253e-07 -3.32773e-08)
(0.000115223 1.21884e-07 -3.32089e-08)
(0.000115651 3.12009e-07 -2.95813e-08)
(0.00221201 -1.8325e-07 -9.87984e-10)
(0.00221197 -7.48004e-08 -1.11544e-09)
(0.00221197 7.58322e-08 -1.03921e-09)
(0.00221201 1.83833e-07 -9.52698e-10)
(0.0319814 -1.57421e-08 -7.55634e-11)
(0.0319814 -6.03185e-09 -9.18759e-11)
(0.0319814 6.96281e-09 9.78485e-11)
(0.0319814 1.59567e-08 -2.18239e-12)
(0.315372 -6.08449e-09 1.82226e-11)
(0.315372 -1.70177e-09 -1.46266e-10)
(0.315372 3.44534e-09 1.34609e-11)
(0.315372 6.47579e-09 4.48046e-11)
(-0.00594397 -0.00011375 -0.00581744)
(-0.00612267 -3.69261e-05 -0.00596657)
(-0.00612243 3.67782e-05 -0.00596439)
(-0.00594402 0.000113713 -0.00581308)
(-0.00076616 -0.000115916 -0.00042196)
(-0.000796058 -3.73502e-05 -0.000467884)
(-0.000796073 3.73112e-05 -0.000467713)
(-0.000766203 0.000115914 -0.000421543)
(-5.95983e-05 -5.77736e-06 -2.03786e-05)
(-6.98786e-05 -1.89385e-06 -2.35372e-05)
(-6.98801e-05 1.85396e-06 -2.35291e-05)
(-5.9601e-05 5.76129e-06 -2.03584e-05)
(1.66795e-06 -3.72366e-06 -8.19894e-07)
(8.38973e-07 -1.44839e-06 -9.47416e-07)
(8.33878e-07 1.44522e-06 -9.46932e-07)
(1.65647e-06 3.72292e-06 -8.1871e-07)
(0.000115652 -3.12647e-07 -2.9786e-08)
(0.000115224 -1.24263e-07 -3.32245e-08)
(0.000115223 1.21874e-07 -3.31396e-08)
(0.000115651 3.11951e-07 -2.96114e-08)
(0.00221201 -1.83196e-07 -1.04619e-09)
(0.00221197 -7.48171e-08 -1.11725e-09)
(0.00221197 7.58924e-08 -9.789e-10)
(0.00221201 1.83877e-07 -9.53317e-10)
(0.0319814 -1.56296e-08 -7.00118e-11)
(0.0319814 -5.99771e-09 -2.77838e-10)
(0.0319814 7.03205e-09 1.67994e-10)
(0.0319814 1.60292e-08 2.48424e-10)
(0.315372 -5.99734e-09 4.93618e-11)
(0.315372 -1.66444e-09 -3.26027e-10)
(0.315372 3.50064e-09 2.15457e-10)
(0.315372 6.53132e-09 5.5408e-10)
(-0.00594397 -0.00011375 -0.00581744)
(-0.00612267 -3.69262e-05 -0.00596657)
(-0.00612243 3.67783e-05 -0.00596439)
(-0.00594402 0.000113713 -0.00581308)
(-0.00076616 -0.000115916 -0.00042196)
(-0.000796058 -3.73502e-05 -0.000467884)
(-0.000796073 3.73112e-05 -0.000467713)
(-0.000766203 0.000115914 -0.000421543)
(-5.95983e-05 -5.77734e-06 -2.03786e-05)
(-6.98787e-05 -1.89376e-06 -2.35371e-05)
(-6.98801e-05 1.85401e-06 -2.35291e-05)
(-5.9601e-05 5.76137e-06 -2.03584e-05)
(1.66807e-06 -3.72363e-06 -8.19766e-07)
(8.39135e-07 -1.44839e-06 -9.47428e-07)
(8.34019e-07 1.44526e-06 -9.47021e-07)
(1.65647e-06 3.72297e-06 -8.18794e-07)
(0.000115653 -3.12647e-07 -2.96583e-08)
(0.000115224 -1.24287e-07 -3.32288e-08)
(0.000115223 1.2183e-07 -3.32139e-08)
(0.000115651 3.11911e-07 -2.96164e-08)
(0.00221201 -1.83223e-07 -1.05036e-09)
(0.00221197 -7.48913e-08 -1.13545e-09)
(0.00221197 7.58865e-08 -1.05297e-09)
(0.00221201 1.83929e-07 -8.8619e-10)
(0.0319814 -1.56845e-08 -1.92155e-10)
(0.0319814 -6.08153e-09 -3.98819e-10)
(0.0319814 7.11476e-09 -1.00969e-10)
(0.0319814 1.6199e-08 3.07128e-10)
(0.315372 -6.02247e-09 -1.2628e-10)
(0.315372 -1.68834e-09 -4.26873e-10)
(0.315372 3.5859e-09 -3.2122e-10)
(0.315372 6.65857e-09 6.02032e-10)
(-0.00594397 -0.00011375 -0.00581744)
(-0.00612267 -3.69261e-05 -0.00596657)
(-0.00612243 3.67782e-05 -0.00596439)
(-0.00594402 0.000113713 -0.00581308)
(-0.00076616 -0.000115916 -0.00042196)
(-0.000796058 -3.73501e-05 -0.000467884)
(-0.000796073 3.73112e-05 -0.000467713)
(-0.000766203 0.000115914 -0.000421543)
(-5.95983e-05 -5.77728e-06 -2.03786e-05)
(-6.98787e-05 -1.89375e-06 -2.35371e-05)
(-6.98802e-05 1.85399e-06 -2.35289e-05)
(-5.9601e-05 5.76138e-06 -2.03583e-05)
(1.6681e-06 -3.72362e-06 -8.19684e-07)
(8.39153e-07 -1.44838e-06 -9.47411e-07)
(8.34078e-07 1.44526e-06 -9.47131e-07)
(1.65648e-06 3.72298e-06 -8.18999e-07)
(0.000115653 -3.12655e-07 -2.96375e-08)
(0.000115224 -1.243e-07 -3.32551e-08)
(0.000115223 1.21825e-07 -3.32694e-08)
(0.000115651 3.11909e-07 -2.96519e-08)
(0.00221201 -1.83266e-07 -9.67656e-10)
(0.00221197 -7.49551e-08 -1.06371e-09)
(0.00221197 7.58759e-08 -1.01244e-09)
(0.00221201 1.83996e-07 -8.93016e-10)
(0.0319814 -1.57314e-08 -3.55181e-11)
(0.0319814 -6.17837e-09 -2.11298e-10)
(0.0319814 7.02673e-09 -8.8001e-11)
(0.0319814 1.62747e-08 2.12345e-10)
(0.315372 -6.01077e-09 1.72773e-10)
(0.315372 -1.75955e-09 -2.23102e-10)
(0.315372 3.48826e-09 -4.12248e-10)
(0.315372 6.70016e-09 2.65463e-10)
(-0.00594397 -0.00011375 -0.00581744)
(-0.00612267 -3.69262e-05 -0.00596657)
(-0.00612243 3.67781e-05 -0.00596439)
(-0.00594402 0.000113713 -0.00581308)
(-0.00076616 -0.000115916 -0.000421959)
(-0.000796058 -3.73502e-05 -0.000467884)
(-0.000796073 3.73111e-05 -0.000467713)
(-0.000766203 0.000115914 -0.000421543)
(-5.95983e-05 -5.77728e-06 -2.03785e-05)
(-6.98786e-05 -1.89376e-06 -2.35371e-05)
(-6.98801e-05 1.85399e-06 -2.35289e-05)
(-5.9601e-05 5.76133e-06 -2.03582e-05)
(1.66809e-06 -3.72361e-06 -8.19601e-07)
(8.3912e-07 -1.44839e-06 -9.47368e-07)
(8.33995e-07 1.44524e-06 -9.47183e-07)
(1.65645e-06 3.72297e-06 -8.19138e-07)
(0.000115653 -3.12655e-07 -2.9701e-08)
(0.000115224 -1.24304e-07 -3.3294e-08)
(0.000115223 1.21836e-07 -3.32768e-08)
(0.000115651 3.11942e-07 -2.96573e-08)
(0.00221201 -1.83241e-07 -9.14764e-10)
(0.00221197 -7.49532e-08 -9.87696e-10)
(0.00221197 7.58872e-08 -1.02383e-09)
(0.00221201 1.84024e-07 -9.65259e-10)
(0.0319814 -1.56985e-08 9.82577e-11)
(0.0319814 -6.22254e-09 2.28563e-11)
(0.0319814 7.0189e-09 -7.78072e-11)
(0.0319814 1.63141e-08 -1.29504e-10)
(0.315372 -5.98022e-09 1.33668e-10)
(0.315372 -1.78454e-09 -7.19614e-11)
(0.315372 3.46678e-09 2.31147e-10)
(0.315372 6.71605e-09 -2.61332e-10)
(-0.00594397 -0.00011375 -0.00581744)
(-0.00612267 -3.69264e-05 -0.00596657)
(-0.00612243 3.6778e-05 -0.00596439)
(-0.00594402 0.000113713 -0.00581308)
(-0.00076616 -0.000115916 -0.000421959)
(-0.000796058 -3.73503e-05 -0.000467884)
(-0.000796073 3.7311e-05 -0.000467713)
(-0.000766203 0.000115914 -0.000421543)
(-5.95982e-05 -5.7773e-06 -2.03785e-05)
(-6.98786e-05 -1.89379e-06 -2.35371e-05)
(-6.988e-05 1.85394e-06 -2.35288e-05)
(-5.9601e-05 5.76128e-06 -2.03582e-05)
(1.66804e-06 -3.72364e-06 -8.19526e-07)
(8.39e-07 -1.44842e-06 -9.47366e-07)
(8.33869e-07 1.44522e-06 -9.47237e-07)
(1.65639e-06 3.72292e-06 -8.19186e-07)
(0.000115653 -3.12675e-07 -2.9671e-08)
(0.000115224 -1.24306e-07 -3.32526e-08)
(0.000115223 1.21845e-07 -3.3251e-08)
(0.000115651 3.11964e-07 -2.9657e-08)
(0.00221201 -1.83205e-07 -8.97155e-10)
(0.00221197 -7.49184e-08 -9.55228e-10)
(0.00221197 7.5871e-08 -1.05078e-09)
(0.00221201 1.83964e-07 -1.02023e-09)
(0.0319814 -1.56677e-08 6.67141e-11)
(0.0319814 -6.26314e-09 2.47922e-10)
(0.0319814 7.04224e-09 -1.66972e-10)
(0.0319814 1.61998e-08 -3.38725e-10)
(0.315372 -5.98842e-09 9.25687e-11)
(0.315372 -1.80989e-09 4.30306e-10)
(0.315372 3.51432e-09 3.67669e-11)
(0.315372 6.62368e-09 -4.41535e-10)
(-0.00594397 -0.00011375 -0.00581744)
(-0.00612267 -3.69264e-05 -0.00596657)
(-0.00612243 3.67779e-05 -0.00596439)
(-0.00594402 0.000113713 -0.00581308)
(-0.00076616 -0.000115916 -0.000421959)
(-0.000796058 -3.73505e-05 -0.000467884)
(-0.000796073 3.73109e-05 -0.000467713)
(-0.000766203 0.000115914 -0.000421543)
(-5.95983e-05 -5.7773e-06 -2.03784e-05)
(-6.98785e-05 -1.89384e-06 -2.3537e-05)
(-6.98801e-05 1.85385e-06 -2.35289e-05)
(-5.9601e-05 5.76122e-06 -2.03582e-05)
(1.66801e-06 -3.72364e-06 -8.19634e-07)
(8.38834e-07 -1.44842e-06 -9.47439e-07)
(8.33731e-07 1.44518e-06 -9.47265e-07)
(1.65629e-06 3.72292e-06 -8.19264e-07)
(0.000115652 -3.12697e-07 -2.96098e-08)
(0.000115224 -1.24299e-07 -3.31365e-08)
(0.000115223 1.21866e-07 -3.32031e-08)
(0.000115651 3.11994e-07 -2.97237e-08)
(0.00221201 -1.83198e-07 -9.21134e-10)
(0.00221197 -7.48481e-08 -9.0538e-10)
(0.00221197 7.58329e-08 -1.02715e-09)
(0.00221201 1.8391e-07 -1.06819e-09)
(0.0319814 -1.56175e-08 5.67503e-11)
(0.0319814 -6.07312e-09 3.53016e-10)
(0.0319814 6.93539e-09 -3.38623e-11)
(0.0319814 1.6141e-08 -2.88084e-10)
(0.315372 -5.95933e-09 -2.84652e-11)
(0.315372 -1.68749e-09 6.42326e-10)
(0.315372 3.45771e-09 7.38496e-11)
(0.315372 6.6156e-09 -3.88334e-10)
(-0.00594397 -0.00011375 -0.00581744)
(-0.00612267 -3.69262e-05 -0.00596657)
(-0.00612243 3.67781e-05 -0.00596439)
(-0.00594402 0.000113712 -0.00581308)
(-0.00076616 -0.000115916 -0.000421959)
(-0.000796058 -3.73503e-05 -0.000467884)
(-0.000796073 3.7311e-05 -0.000467713)
(-0.000766203 0.000115914 -0.000421543)
(-5.95982e-05 -5.77735e-06 -2.03785e-05)
(-6.98787e-05 -1.89389e-06 -2.35371e-05)
(-6.988e-05 1.85382e-06 -2.3529e-05)
(-5.9601e-05 5.76111e-06 -2.03583e-05)
(1.66786e-06 -3.72367e-06 -8.19727e-07)
(8.38793e-07 -1.44841e-06 -9.47527e-07)
(8.33597e-07 1.44521e-06 -9.47252e-07)
(1.65633e-06 3.72286e-06 -8.19069e-07)
(0.000115652 -3.12685e-07 -2.95662e-08)
(0.000115224 -1.24255e-07 -3.32045e-08)
(0.000115223 1.21894e-07 -3.32427e-08)
(0.000115651 3.12028e-07 -2.96584e-08)
(0.00221201 -1.83188e-07 -9.63243e-10)
(0.00221197 -7.48146e-08 -1.00778e-09)
(0.00221197 7.5849e-08 -1.10104e-09)
(0.00221201 1.83892e-07 -1.00577e-09)
(0.0319814 -1.56403e-08 -7.38944e-11)
(0.0319814 -6.03049e-09 1.26392e-10)
(0.0319814 7.01409e-09 -2.78114e-11)
(0.0319814 1.60677e-08 -2.34687e-10)
(0.315372 -5.99224e-09 -3.17559e-10)
(0.315372 -1.66223e-09 1.1605e-10)
(0.315372 3.50706e-09 1.57261e-10)
(0.315372 6.54901e-09 -3.80836e-10)
)
;

boundaryField
{
    movingWall
    {
        type            fixedValue;
        value           uniform (1 0 0);
    }
    CPLReceiveMD
    {
        type            fixedValue;
        value           uniform (-0.0187943 0 -0.0372127);
    }
    streamwiseIn
    {
        type            cyclic;
    }
    streamwiseOut
    {
        type            cyclic;
    }
    front
    {
        type            cyclic;
    }
    back
    {
        type            cyclic;
    }
    procBoundary1to0
    {
        type            processor;
        value           nonuniform List<vector> 
64
(
(-0.00642861 -0.000113712 -0.0064119)
(-0.00073176 -0.000115903 -0.000370869)
(-4.38509e-05 -5.76188e-06 -1.54445e-05)
(2.93795e-06 -3.73165e-06 -6.08158e-07)
(0.000116268 -3.13608e-07 -2.36686e-08)
(0.00221206 -1.83589e-07 -8.51126e-10)
(0.0319814 -1.64587e-08 -4.33609e-12)
(0.315372 -7.16331e-09 5.51445e-11)
(-0.00642861 -0.000113712 -0.0064119)
(-0.000731761 -0.000115903 -0.000370869)
(-4.38508e-05 -5.76186e-06 -1.54446e-05)
(2.93785e-06 -3.73161e-06 -6.08173e-07)
(0.000116268 -3.13574e-07 -2.36249e-08)
(0.00221206 -1.83538e-07 -7.98845e-10)
(0.0319814 -1.64044e-08 2.27427e-10)
(0.315372 -7.10337e-09 5.94117e-10)
(-0.00642861 -0.000113712 -0.0064119)
(-0.000731761 -0.000115903 -0.000370869)
(-4.3851e-05 -5.76188e-06 -1.54445e-05)
(2.93786e-06 -3.73162e-06 -6.08173e-07)
(0.000116268 -3.13533e-07 -2.3585e-08)
(0.00221206 -1.83476e-07 -8.27434e-10)
(0.0319814 -1.62092e-08 2.49552e-10)
(0.315372 -6.95193e-09 6.46872e-10)
(-0.00642861 -0.000113712 -0.0064119)
(-0.000731761 -0.000115903 -0.000370869)
(-4.38509e-05 -5.76187e-06 -1.54445e-05)
(2.93786e-06 -3.7316e-06 -6.08025e-07)
(0.000116268 -3.1351e-07 -2.35525e-08)
(0.00221206 -1.83432e-07 -8.25727e-10)
(0.0319814 -1.61162e-08 1.79827e-10)
(0.315372 -6.89173e-09 2.89855e-10)
(-0.00642861 -0.000113712 -0.0064119)
(-0.000731761 -0.000115903 -0.000370869)
(-4.38509e-05 -5.76183e-06 -1.54446e-05)
(2.93789e-06 -3.73159e-06 -6.07899e-07)
(0.000116268 -3.13524e-07 -2.36317e-08)
(0.00221206 -1.8341e-07 -8.96788e-10)
(0.0319814 -1.60642e-08 -1.16018e-10)
(0.315372 -6.86948e-09 -2.76997e-10)
(-0.00642861 -0.000113712 -0.0064119)
(-0.000731761 -0.000115903 -0.000370869)
(-4.38509e-05 -5.76184e-06 -1.54444e-05)
(2.93794e-06 -3.73159e-06 -6.07884e-07)
(0.000116268 -3.13574e-07 -2.36345e-08)
(0.00221206 -1.83449e-07 -9.19181e-10)
(0.0319814 -1.61781e-08 -3.00763e-10)
(0.315372 -6.97587e-09 -4.898e-10)
(-0.00642861 -0.000113712 -0.0064119)
(-0.000731761 -0.000115903 -0.000370869)
(-4.38509e-05 -5.76188e-06 -1.54444e-05)
(2.93802e-06 -3.73163e-06 -6.07864e-07)
(0.000116268 -3.13603e-07 -2.34723e-08)
(0.00221206 -1.83497e-07 -8.15056e-10)
(0.0319814 -1.62503e-08 -2.36829e-10)
(0.315372 -7.00105e-09 -4.27943e-10)
(-0.00642861 -0.000113712 -0.0064119)
(-0.000731761 -0.000115903 -0.000370869)
(-4.38509e-05 -5.76184e-06 -1.54444e-05)
(2.93797e-06 -3.73159e-06 -6.08012e-07)
(0.000116268 -3.13622e-07 -2.35457e-08)
(0.00221206 -1.83574e-07 -8.46652e-10)
(0.0319814 -1.63774e-08 -2.14124e-10)
(0.315372 -7.08646e-09 -3.97096e-10)
)
;
    }
    procBoundary1to0throughstreamwiseOut
    {
        type            processorCyclic;
        value           nonuniform List<vector> 
64
(
(-0.00642867 0.000113746 -0.00640756)
(-0.000731806 0.000115907 -0.000370467)
(-4.38537e-05 5.77586e-06 -1.54254e-05)
(2.92852e-06 3.73381e-06 -6.07167e-07)
(0.000116266 3.15061e-07 -2.35787e-08)
(0.00221206 1.83481e-07 -8.89692e-10)
(0.0319814 1.54414e-08 -6.78968e-11)
(0.315372 5.6025e-09 -9.75498e-13)
(-0.00642867 0.000113746 -0.00640756)
(-0.000731806 0.000115908 -0.000370467)
(-4.38538e-05 5.77597e-06 -1.54255e-05)
(2.92848e-06 3.73388e-06 -6.07064e-07)
(0.000116266 3.15016e-07 -2.34926e-08)
(0.00221206 1.83477e-07 -8.20439e-10)
(0.0319814 1.55102e-08 2.09225e-11)
(0.315372 5.67053e-09 -2.4659e-11)
(-0.00642867 0.000113746 -0.00640756)
(-0.000731806 0.000115908 -0.000370467)
(-4.38537e-05 5.77603e-06 -1.54254e-05)
(2.92838e-06 3.73389e-06 -6.07245e-07)
(0.000116266 3.1496e-07 -2.35816e-08)
(0.00221206 1.83467e-07 -9.18888e-10)
(0.0319814 1.54307e-08 -8.35164e-11)
(0.315372 5.59379e-09 -2.26643e-10)
(-0.00642867 0.000113747 -0.00640756)
(-0.000731806 0.000115908 -0.000370467)
(-4.38537e-05 5.77601e-06 -1.54254e-05)
(2.92835e-06 3.73391e-06 -6.07385e-07)
(0.000116266 3.14947e-07 -2.35781e-08)
(0.00221206 1.83452e-07 -8.33145e-10)
(0.0319814 1.53655e-08 4.06607e-13)
(0.315372 5.57098e-09 1.30162e-10)
(-0.00642867 0.000113747 -0.00640756)
(-0.000731806 0.000115908 -0.000370467)
(-4.38538e-05 5.77599e-06 -1.54253e-05)
(2.92836e-06 3.73389e-06 -6.07493e-07)
(0.000116266 3.14974e-07 -2.35483e-08)
(0.00221206 1.83474e-07 -7.88429e-10)
(0.0319814 1.53949e-08 2.52704e-11)
(0.315372 5.60241e-09 1.84169e-10)
(-0.00642867 0.000113747 -0.00640756)
(-0.000731806 0.000115908 -0.000370467)
(-4.38539e-05 5.77595e-06 -1.54252e-05)
(2.9284e-06 3.73389e-06 -6.07609e-07)
(0.000116266 3.15016e-07 -2.35777e-08)
(0.00221206 1.83464e-07 -8.25021e-10)
(0.0319814 1.54451e-08 -4.98277e-11)
(0.315372 5.63943e-09 2.04368e-10)
(-0.00642867 0.000113746 -0.00640756)
(-0.000731806 0.000115908 -0.000370467)
(-4.38537e-05 5.77583e-06 -1.54253e-05)
(2.92843e-06 3.73384e-06 -6.07546e-07)
(0.000116266 3.15072e-07 -2.35748e-08)
(0.00221206 1.83474e-07 -7.91686e-10)
(0.0319814 1.55352e-08 1.85746e-11)
(0.315372 5.71386e-09 4.05525e-11)
(-0.00642867 0.000113746 -0.00640756)
(-0.000731806 0.000115908 -0.000370467)
(-4.38538e-05 5.77581e-06 -1.54253e-05)
(2.92856e-06 3.73386e-06 -6.07394e-07)
(0.000116266 3.15104e-07 -2.36349e-08)
(0.00221206 1.83488e-07 -9.1009e-10)
(0.0319814 1.54959e-08 -7.90696e-11)
(0.315372 5.68513e-09 -3.12768e-10)
)
;
    }
}


// ************************************************************************* //
