/*--------------------------------*- C++ -*----------------------------------*\
| =========                 |                                                 |
| \\      /  F ield         | OpenFOAM: The Open Source CFD Toolbox           |
|  \\    /   O peration     | Version:  2306                                  |
|   \\  /    A nd           | Website:  www.openfoam.com                      |
|    \\/     M anipulation  |                                                 |
\*---------------------------------------------------------------------------*/
FoamFile
{
    version     2.0;
    format      ascii;
    arch        "LSB;label=32;scalar=64";
    class       volVectorField;
    location    "4";
    object      U_0;
}
// * * * * * * * * * * * * * * * * * * * * * * * * * * * * * * * * * * * * * //

dimensions      [0 1 -1 0 0 0 0];

internalField   nonuniform List<vector> 
256
(
(-0.00588558 -9.61673e-05 -0.00558702)
(-0.00605782 -3.04088e-05 -0.00577726)
(-0.0060576 3.02119e-05 -0.00577501)
(-0.00588559 9.61056e-05 -0.00558235)
(-0.000739101 -9.67656e-05 -0.000396148)
(-0.000765201 -3.02286e-05 -0.000443152)
(-0.000765225 3.01761e-05 -0.000442986)
(-0.000739163 9.67559e-05 -0.000395733)
(-5.48326e-05 -3.54011e-06 -1.84853e-05)
(-6.32187e-05 -1.04065e-06 -2.14795e-05)
(-6.32212e-05 9.92577e-07 -2.14718e-05)
(-5.48376e-05 3.52054e-06 -1.84663e-05)
(1.67049e-06 -2.91393e-06 -7.28091e-07)
(1.26284e-06 -1.12559e-06 -8.42279e-07)
(1.2577e-06 1.12185e-06 -8.41918e-07)
(1.65857e-06 2.91296e-06 -7.2712e-07)
(0.000105577 -1.29305e-07 -2.59962e-08)
(0.000105277 -5.0141e-08 -2.9014e-08)
(0.000105276 4.7457e-08 -2.89367e-08)
(0.000105575 1.28475e-07 -2.58396e-08)
(0.00206839 -1.31249e-07 -8.35343e-10)
(0.00206837 -5.33994e-08 -9.52101e-10)
(0.00206837 5.40944e-08 -8.73428e-10)
(0.00206839 1.3154e-07 -8.03022e-10)
(0.0306484 -1.22914e-08 -8.02903e-11)
(0.0306484 -4.50812e-09 -1.06631e-10)
(0.0306484 5.76147e-09 8.64939e-11)
(0.0306484 1.26602e-08 9.36314e-13)
(0.309584 -1.72924e-09 2.75294e-11)
(0.309584 2.15568e-10 -1.46241e-10)
(0.309584 1.85192e-09 4.54192e-12)
(0.309584 2.36916e-09 3.33582e-11)
(-0.00588558 -9.61677e-05 -0.00558702)
(-0.00605782 -3.04087e-05 -0.00577726)
(-0.0060576 3.02119e-05 -0.00577501)
(-0.00588559 9.61054e-05 -0.00558235)
(-0.000739101 -9.67658e-05 -0.000396148)
(-0.000765201 -3.02285e-05 -0.000443152)
(-0.000765225 3.01763e-05 -0.000442986)
(-0.000739163 9.67558e-05 -0.000395733)
(-5.48325e-05 -3.54011e-06 -1.84853e-05)
(-6.32188e-05 -1.04064e-06 -2.14795e-05)
(-6.3221e-05 9.92762e-07 -2.14719e-05)
(-5.48377e-05 3.5206e-06 -1.84663e-05)
(1.67053e-06 -2.91401e-06 -7.28161e-07)
(1.26309e-06 -1.12555e-06 -8.42212e-07)
(1.25782e-06 1.12188e-06 -8.41764e-07)
(1.65865e-06 2.91295e-06 -7.27076e-07)
(0.000105577 -1.29266e-07 -2.61188e-08)
(0.000105277 -5.01454e-08 -2.89393e-08)
(0.000105276 4.74509e-08 -2.88298e-08)
(0.000105575 1.2842e-07 -2.58756e-08)
(0.00206839 -1.31183e-07 -9.11676e-10)
(0.00206837 -5.34192e-08 -9.37038e-10)
(0.00206837 5.41483e-08 -7.99896e-10)
(0.00206839 1.31584e-07 -8.07173e-10)
(0.0306484 -1.21696e-08 -8.555e-11)
(0.0306484 -4.48093e-09 -2.77789e-10)
(0.0306484 5.83021e-09 1.60505e-10)
(0.0306484 1.27345e-08 2.45279e-10)
(0.309584 -1.62922e-09 5.09079e-11)
(0.309584 2.55625e-10 -3.23245e-10)
(0.309584 1.91518e-09 2.22824e-10)
(0.309584 2.4262e-09 5.59165e-10)
(-0.00588558 -9.61676e-05 -0.00558702)
(-0.00605782 -3.04088e-05 -0.00577726)
(-0.0060576 3.0212e-05 -0.00577501)
(-0.00588559 9.61057e-05 -0.00558235)
(-0.000739101 -9.67657e-05 -0.000396148)
(-0.000765201 -3.02285e-05 -0.000443152)
(-0.000765225 3.01762e-05 -0.000442985)
(-0.000739163 9.6756e-05 -0.000395733)
(-5.48325e-05 -3.54009e-06 -1.84853e-05)
(-6.32188e-05 -1.04053e-06 -2.14794e-05)
(-6.32212e-05 9.92795e-07 -2.14719e-05)
(-5.48376e-05 3.52067e-06 -1.84664e-05)
(1.67065e-06 -2.91397e-06 -7.28021e-07)
(1.26324e-06 -1.12556e-06 -8.42227e-07)
(1.25795e-06 1.12193e-06 -8.41865e-07)
(1.65865e-06 2.913e-06 -7.27154e-07)
(0.000105578 -1.29263e-07 -2.59416e-08)
(0.000105277 -5.01642e-08 -2.89311e-08)
(0.000105276 4.74148e-08 -2.89029e-08)
(0.000105575 1.2839e-07 -2.58714e-08)
(0.00206839 -1.31209e-07 -8.99855e-10)
(0.00206837 -5.34892e-08 -9.70532e-10)
(0.00206837 5.41374e-08 -8.84928e-10)
(0.00206839 1.31628e-07 -7.30868e-10)
(0.0306484 -1.22336e-08 -1.83487e-10)
(0.0306484 -4.56978e-09 -3.86774e-10)
(0.0306484 5.90643e-09 -9.14269e-11)
(0.0306484 1.2902e-08 2.99256e-10)
(0.309584 -1.6579e-09 -1.45262e-10)
(0.309584 2.28921e-10 -4.32381e-10)
(0.309584 1.99697e-09 -3.2112e-10)
(0.309584 2.55752e-09 6.0497e-10)
(-0.00588558 -9.61675e-05 -0.00558702)
(-0.00605782 -3.04087e-05 -0.00577726)
(-0.0060576 3.0212e-05 -0.00577501)
(-0.00588559 9.61057e-05 -0.00558235)
(-0.000739101 -9.67656e-05 -0.000396148)
(-0.000765201 -3.02284e-05 -0.000443152)
(-0.000765225 3.01762e-05 -0.000442985)
(-0.000739163 9.67559e-05 -0.000395733)
(-5.48326e-05 -3.54002e-06 -1.84853e-05)
(-6.32188e-05 -1.04053e-06 -2.14794e-05)
(-6.32212e-05 9.92771e-07 -2.14718e-05)
(-5.48377e-05 3.52067e-06 -1.84663e-05)
(1.67069e-06 -2.91396e-06 -7.27947e-07)
(1.26324e-06 -1.12554e-06 -8.42203e-07)
(1.25801e-06 1.12193e-06 -8.41958e-07)
(1.65865e-06 2.91302e-06 -7.27344e-07)
(0.000105578 -1.29272e-07 -2.59068e-08)
(0.000105277 -5.01759e-08 -2.89466e-08)
(0.000105276 4.74146e-08 -2.89697e-08)
(0.000105575 1.28392e-07 -2.59273e-08)
(0.00206839 -1.3125e-07 -8.34569e-10)
(0.00206837 -5.35561e-08 -9.20998e-10)
(0.00206837 5.41261e-08 -8.64335e-10)
(0.00206839 1.3169e-07 -7.54298e-10)
(0.0306484 -1.22813e-08 -2.40349e-11)
(0.0306484 -4.66693e-09 -1.98123e-10)
(0.0306484 5.81784e-09 -7.24083e-11)
(0.0306484 1.29735e-08 2.02367e-10)
(0.309584 -1.64846e-09 1.59817e-10)
(0.309584 1.56647e-10 -2.31514e-10)
(0.309584 1.89962e-09 -4.04272e-10)
(0.309584 2.6e-09 2.55096e-10)
(-0.00588558 -9.61675e-05 -0.00558702)
(-0.00605782 -3.04088e-05 -0.00577726)
(-0.0060576 3.02118e-05 -0.00577501)
(-0.00588559 9.61056e-05 -0.00558235)
(-0.000739101 -9.67656e-05 -0.000396148)
(-0.000765201 -3.02285e-05 -0.000443152)
(-0.000765224 3.01761e-05 -0.000442985)
(-0.000739163 9.67558e-05 -0.000395733)
(-5.48325e-05 -3.54003e-06 -1.84852e-05)
(-6.32187e-05 -1.04054e-06 -2.14794e-05)
(-6.32212e-05 9.92772e-07 -2.14718e-05)
(-5.48377e-05 3.52061e-06 -1.84661e-05)
(1.67068e-06 -2.91394e-06 -7.27878e-07)
(1.26322e-06 -1.12554e-06 -8.4215e-07)
(1.25792e-06 1.12192e-06 -8.4199e-07)
(1.65862e-06 2.91302e-06 -7.27459e-07)
(0.000105578 -1.29273e-07 -2.59618e-08)
(0.000105277 -5.01854e-08 -2.8993e-08)
(0.000105276 4.74197e-08 -2.89757e-08)
(0.000105575 1.28423e-07 -2.59458e-08)
(0.00206839 -1.31227e-07 -7.94249e-10)
(0.00206837 -5.35535e-08 -8.57231e-10)
(0.00206837 5.41389e-08 -8.92988e-10)
(0.00206839 1.31715e-07 -8.38592e-10)
(0.0306484 -1.22484e-08 1.08727e-10)
(0.0306484 -4.70767e-09 4.3065e-11)
(0.0306484 5.81359e-09 -6.35134e-11)
(0.0306484 1.30112e-08 -1.22781e-10)
(0.309584 -1.62104e-09 1.22499e-10)
(0.309584 1.28204e-10 -7.41394e-11)
(0.309584 1.87624e-09 2.29928e-10)
(0.309584 2.61556e-09 -2.54961e-10)
(-0.00588558 -9.61677e-05 -0.00558702)
(-0.00605782 -3.0409e-05 -0.00577726)
(-0.0060576 3.02117e-05 -0.00577501)
(-0.00588559 9.61055e-05 -0.00558235)
(-0.000739101 -9.67657e-05 -0.000396148)
(-0.000765201 -3.02287e-05 -0.000443152)
(-0.000765225 3.0176e-05 -0.000442985)
(-0.000739163 9.67558e-05 -0.000395733)
(-5.48325e-05 -3.54006e-06 -1.84852e-05)
(-6.32188e-05 -1.04057e-06 -2.14794e-05)
(-6.3221e-05 9.92724e-07 -2.14717e-05)
(-5.48377e-05 3.52057e-06 -1.84662e-05)
(1.67064e-06 -2.91398e-06 -7.2779e-07)
(1.26312e-06 -1.12557e-06 -8.42157e-07)
(1.25781e-06 1.12191e-06 -8.42047e-07)
(1.65857e-06 2.91296e-06 -7.27494e-07)
(0.000105577 -1.29293e-07 -2.59157e-08)
(0.000105277 -5.01938e-08 -2.89475e-08)
(0.000105276 4.742e-08 -2.89594e-08)
(0.000105575 1.28436e-07 -2.59473e-08)
(0.00206839 -1.31192e-07 -7.69674e-10)
(0.00206837 -5.35164e-08 -8.19206e-10)
(0.00206837 5.41214e-08 -9.21718e-10)
(0.00206839 1.31661e-07 -8.96735e-10)
(0.0306484 -1.22162e-08 8.18066e-11)
(0.0306484 -4.743e-09 2.61503e-10)
(0.0306484 5.84136e-09 -1.53774e-10)
(0.0306484 1.29029e-08 -3.19502e-10)
(0.309584 -1.63249e-09 1.00079e-10)
(0.309584 9.98424e-11 4.41707e-10)
(0.309584 1.92155e-09 3.38976e-11)
(0.309584 2.52376e-09 -4.31219e-10)
(-0.00588558 -9.61677e-05 -0.00558702)
(-0.00605782 -3.0409e-05 -0.00577726)
(-0.0060576 3.02116e-05 -0.00577501)
(-0.00588559 9.61056e-05 -0.00558235)
(-0.000739101 -9.67658e-05 -0.000396148)
(-0.000765201 -3.02289e-05 -0.000443151)
(-0.000765225 3.01759e-05 -0.000442985)
(-0.000739163 9.67558e-05 -0.000395733)
(-5.48326e-05 -3.54006e-06 -1.84851e-05)
(-6.32187e-05 -1.04063e-06 -2.14793e-05)
(-6.32211e-05 9.92631e-07 -2.14718e-05)
(-5.48376e-05 3.52052e-06 -1.84662e-05)
(1.67061e-06 -2.91396e-06 -7.27897e-07)
(1.26295e-06 -1.12556e-06 -8.42238e-07)
(1.25769e-06 1.12186e-06 -8.42084e-07)
(1.65847e-06 2.91297e-06 -7.27598e-07)
(0.000105577 -1.29318e-07 -2.58699e-08)
(0.000105277 -5.0187e-08 -2.88255e-08)
(0.000105276 4.74349e-08 -2.89192e-08)
(0.000105575 1.28458e-07 -2.60422e-08)
(0.00206839 -1.31193e-07 -7.99702e-10)
(0.00206837 -5.34495e-08 -7.53375e-10)
(0.00206837 5.40881e-08 -8.81203e-10)
(0.00206839 1.31611e-07 -9.55029e-10)
(0.0306484 -1.21643e-08 6.0285e-11)
(0.0306484 -4.54849e-09 3.54755e-10)
(0.0306484 5.73974e-09 -2.71071e-11)
(0.0306484 1.28455e-08 -2.72107e-10)
(0.309584 -1.60353e-09 -7.11041e-12)
(0.309584 2.24611e-10 6.50511e-10)
(0.309584 1.8634e-09 8.44098e-11)
(0.309584 2.51247e-09 -3.85686e-10)
(-0.00588558 -9.61677e-05 -0.00558702)
(-0.00605782 -3.04088e-05 -0.00577726)
(-0.0060576 3.02119e-05 -0.00577501)
(-0.00588559 9.61053e-05 -0.00558235)
(-0.0007391 -9.67659e-05 -0.000396148)
(-0.000765201 -3.02287e-05 -0.000443152)
(-0.000765225 3.01761e-05 -0.000442985)
(-0.000739163 9.67556e-05 -0.000395733)
(-5.48325e-05 -3.54011e-06 -1.84852e-05)
(-6.32189e-05 -1.0407e-06 -2.14793e-05)
(-6.3221e-05 9.92607e-07 -2.14718e-05)
(-5.48376e-05 3.52041e-06 -1.84663e-05)
(1.67045e-06 -2.91401e-06 -7.27988e-07)
(1.26292e-06 -1.12556e-06 -8.42321e-07)
(1.25755e-06 1.12189e-06 -8.42089e-07)
(1.65852e-06 2.91289e-06 -7.27418e-07)
(0.000105577 -1.29309e-07 -2.58282e-08)
(0.000105277 -5.0141e-08 -2.89303e-08)
(0.000105276 4.74639e-08 -2.89757e-08)
(0.000105575 1.28488e-07 -2.59488e-08)
(0.00206839 -1.31183e-07 -8.13228e-10)
(0.00206837 -5.34204e-08 -8.55997e-10)
(0.00206837 5.41035e-08 -9.46599e-10)
(0.00206839 1.31607e-07 -8.69305e-10)
(0.0306484 -1.21763e-08 -6.69873e-11)
(0.0306484 -4.50725e-09 1.18823e-10)
(0.0306484 5.81993e-09 -2.98758e-11)
(0.0306484 1.27804e-08 -2.2284e-10)
(0.309584 -1.63001e-09 -3.13147e-10)
(0.309584 2.52291e-10 1.10802e-10)
(0.309584 1.91868e-09 1.45311e-10)
(0.309584 2.44562e-09 -3.85361e-10)
)
;

boundaryField
{
    movingWall
    {
        type            fixedValue;
        value           uniform (1 0 0);
    }
    CPLReceiveMD
    {
        type            fixedValue;
        value           uniform (0.0165029 0 -0.00444475);
    }
    streamwiseIn
    {
        type            cyclic;
    }
    streamwiseOut
    {
        type            cyclic;
    }
    front
    {
        type            cyclic;
    }
    back
    {
        type            cyclic;
    }
    procBoundary1to0
    {
        type            processor;
        value           nonuniform List<vector> 
64
(
(-0.00633952 -9.61059e-05 -0.00636976)
(-0.000708452 -9.67499e-05 -0.000340484)
(-4.18867e-05 -3.51969e-06 -1.36451e-05)
(2.33042e-06 -2.91739e-06 -5.33825e-07)
(0.00010601 -1.31607e-07 -2.08078e-08)
(0.00206843 -1.31569e-07 -7.40437e-10)
(0.0306484 -1.30908e-08 -1.12123e-11)
(0.309584 -2.84774e-09 4.68577e-11)
(-0.00633952 -9.61059e-05 -0.00636976)
(-0.000708452 -9.67497e-05 -0.000340484)
(-4.18866e-05 -3.51967e-06 -1.36453e-05)
(2.33033e-06 -2.91734e-06 -5.33837e-07)
(0.00010601 -1.31566e-07 -2.07641e-08)
(0.00206843 -1.31516e-07 -6.65683e-10)
(0.0306484 -1.30449e-08 2.29037e-10)
(0.309584 -2.78938e-09 5.92322e-10)
(-0.00633952 -9.61062e-05 -0.00636976)
(-0.000708452 -9.67499e-05 -0.000340484)
(-4.18867e-05 -3.51969e-06 -1.36451e-05)
(2.33035e-06 -2.91736e-06 -5.33842e-07)
(0.000106011 -1.31525e-07 -2.0728e-08)
(0.00206843 -1.31446e-07 -7.104e-10)
(0.0306484 -1.28479e-08 2.4055e-10)
(0.309584 -2.63365e-09 6.43549e-10)
(-0.00633952 -9.61059e-05 -0.00636976)
(-0.000708453 -9.67497e-05 -0.000340484)
(-4.18866e-05 -3.51968e-06 -1.36452e-05)
(2.33035e-06 -2.91734e-06 -5.33693e-07)
(0.000106011 -1.31499e-07 -2.06678e-08)
(0.00206843 -1.31402e-07 -7.15237e-10)
(0.0306484 -1.27604e-08 1.75183e-10)
(0.309584 -2.5742e-09 2.7382e-10)
(-0.00633952 -9.61058e-05 -0.00636976)
(-0.000708453 -9.67496e-05 -0.000340484)
(-4.18866e-05 -3.51965e-06 -1.36452e-05)
(2.33038e-06 -2.91733e-06 -5.33568e-07)
(0.000106011 -1.31515e-07 -2.07302e-08)
(0.00206843 -1.31381e-07 -7.96672e-10)
(0.0306484 -1.27102e-08 -1.05862e-10)
(0.309584 -2.5548e-09 -2.73635e-10)
(-0.00633952 -9.61059e-05 -0.00636976)
(-0.000708453 -9.67497e-05 -0.000340484)
(-4.18866e-05 -3.51966e-06 -1.3645e-05)
(2.33041e-06 -2.91732e-06 -5.33555e-07)
(0.00010601 -1.31566e-07 -2.07238e-08)
(0.00206843 -1.3142e-07 -8.22851e-10)
(0.0306484 -1.28189e-08 -2.85453e-10)
(0.309584 -2.66103e-09 -4.77931e-10)
(-0.00633952 -9.61061e-05 -0.00636976)
(-0.000708452 -9.675e-05 -0.000340484)
(-4.18866e-05 -3.51969e-06 -1.3645e-05)
(2.33049e-06 -2.91738e-06 -5.33518e-07)
(0.00010601 -1.31597e-07 -2.05263e-08)
(0.00206843 -1.31471e-07 -6.98107e-10)
(0.0306484 -1.28875e-08 -2.1523e-10)
(0.309584 -2.68774e-09 -4.19207e-10)
(-0.00633952 -9.61057e-05 -0.00636976)
(-0.000708452 -9.67496e-05 -0.000340484)
(-4.18866e-05 -3.51964e-06 -1.3645e-05)
(2.33044e-06 -2.91731e-06 -5.33669e-07)
(0.00010601 -1.31616e-07 -2.06367e-08)
(0.00206843 -1.3156e-07 -7.41845e-10)
(0.0306484 -1.30173e-08 -2.10522e-10)
(0.309584 -2.77521e-09 -3.90648e-10)
)
;
    }
    procBoundary1to0throughstreamwiseOut
    {
        type            processorCyclic;
        value           nonuniform List<vector> 
64
(
(-0.00633953 9.61647e-05 -0.0063651)
(-0.000708515 9.67623e-05 -0.000340084)
(-4.18919e-05 3.537e-06 -1.36273e-05)
(2.32093e-06 2.9197e-06 -5.32928e-07)
(0.000106008 1.33073e-07 -2.067e-08)
(0.00206843 1.31245e-07 -7.79587e-10)
(0.0306484 1.20891e-08 -6.16158e-11)
(0.309584 1.43636e-09 -5.33061e-12)
(-0.00633953 9.6165e-05 -0.0063651)
(-0.000708516 9.67625e-05 -0.000340084)
(-4.18919e-05 3.53709e-06 -1.36274e-05)
(2.3209e-06 2.9198e-06 -5.32832e-07)
(0.000106008 1.33038e-07 -2.05632e-08)
(0.00206843 1.31226e-07 -6.84651e-10)
(0.0306484 1.21527e-08 1.05852e-11)
(0.309584 1.50636e-09 -3.06371e-11)
(-0.00633953 9.6165e-05 -0.0063651)
(-0.000708515 9.67624e-05 -0.000340083)
(-4.18919e-05 3.53713e-06 -1.36274e-05)
(2.32079e-06 2.9198e-06 -5.33016e-07)
(0.000106008 1.32992e-07 -2.06899e-08)
(0.00206843 1.31211e-07 -7.85157e-10)
(0.0306484 1.20661e-08 -8.88383e-11)
(0.309584 1.431e-09 -2.40651e-10)
(-0.00633953 9.61652e-05 -0.00636511)
(-0.000708515 9.67626e-05 -0.000340084)
(-4.18919e-05 3.53709e-06 -1.36273e-05)
(2.32077e-06 2.91983e-06 -5.3313e-07)
(0.000106008 1.32987e-07 -2.06981e-08)
(0.00206843 1.31197e-07 -7.10782e-10)
(0.0306484 1.19971e-08 -5.78222e-13)
(0.309584 1.40765e-09 1.20755e-10)
(-0.00633953 9.61653e-05 -0.0063651)
(-0.000708516 9.67627e-05 -0.000340084)
(-4.1892e-05 3.53707e-06 -1.36272e-05)
(2.32077e-06 2.91981e-06 -5.33205e-07)
(0.000106008 1.3301e-07 -2.06763e-08)
(0.00206843 1.3122e-07 -6.88152e-10)
(0.0306484 1.20255e-08 2.45773e-11)
(0.309584 1.44015e-09 1.81316e-10)
(-0.00633953 9.61653e-05 -0.0063651)
(-0.000708515 9.67626e-05 -0.000340084)
(-4.1892e-05 3.53705e-06 -1.36272e-05)
(2.32081e-06 2.91981e-06 -5.33325e-07)
(0.000106008 1.33042e-07 -2.07146e-08)
(0.00206843 1.31214e-07 -7.37479e-10)
(0.0306484 1.20792e-08 -3.30106e-11)
(0.309584 1.47704e-09 2.19267e-10)
(-0.00633953 9.61649e-05 -0.0063651)
(-0.000708515 9.67623e-05 -0.000340084)
(-4.18919e-05 3.53693e-06 -1.36272e-05)
(2.32083e-06 2.91974e-06 -5.33271e-07)
(0.000106008 1.33091e-07 -2.06928e-08)
(0.00206843 1.31233e-07 -6.91263e-10)
(0.0306484 1.21767e-08 3.41876e-11)
(0.309584 1.55044e-09 6.22545e-11)
(-0.00633953 9.6165e-05 -0.0063651)
(-0.000708516 9.67625e-05 -0.000340084)
(-4.1892e-05 3.53693e-06 -1.36273e-05)
(2.32098e-06 2.91978e-06 -5.33133e-07)
(0.000106008 1.33119e-07 -2.07531e-08)
(0.00206843 1.31244e-07 -8.11247e-10)
(0.0306484 1.21408e-08 -6.86856e-11)
(0.309584 1.52486e-09 -3.11796e-10)
)
;
    }
}


// ************************************************************************* //
