<?xml version="1.0"?>
<VTKFile type="RectilinearGrid">
<RectilinearGrid WholeExtent="0 32 0 32 0 32" Origin="0 0 0" Spacing="1 1 1">
<Piece Extent="0 32 0 32 0 32">
<PointData>
</PointData>
<Coordinates>
<DataArray type="Float32" format="ascii">
0 0.524874 1.04975 1.57462 2.0995 2.62437 3.14924 3.67412 4.19899 4.72386 5.24874 5.77361 6.29849 6.82336 7.34823 7.87311 8.39798 8.92285 9.44773 9.9726 10.4975 11.0224 11.5472 12.0721 12.597 13.1218 13.6467 14.1716 14.6965 15.2213 15.7462 16.2711 16.796 
</DataArray>
<DataArray type="Float32" format="ascii">
-5.03879 -3.62163 -2.20447 -0.787311 0.629849 2.04701 3.46417 4.88133 6.29849 7.71565 9.1328 10.55 11.9671 13.3843 14.8014 16.2186 17.6358 19.0529 20.4701 21.8872 23.3044 24.7216 26.1387 27.5559 28.973 30.3902 31.8074 33.2245 34.6417 36.0588 37.476 38.8931 40.3103 
</DataArray>
<DataArray type="Float32" format="ascii">
0 0.524874 1.04975 1.57462 2.0995 2.62437 3.14924 3.67412 4.19899 4.72386 5.24874 5.77361 6.29849 6.82336 7.34823 7.87311 8.39798 8.92285 9.44773 9.9726 10.4975 11.0224 11.5472 12.0721 12.597 13.1218 13.6467 14.1716 14.6965 15.2213 15.7462 16.2711 16.796 
</DataArray>
</Coordinates>
<CellData>
<DataArray type="Float32" Name="Scalar" format="ascii">
0
0
0
0
0
0
0
0
0
0
0
0
0
0
0
0
0
0
0
0
0
0
0
0
0
0
0
0
0
0
0
0
0
0
0
0
0
0
0
0
0
0
0
0
0
0
0
0
0
0
0
0
0
0
0
0
0
0
0
0
0
0
0
0
0.0680306
-0.607401
0.0296545
-0.305069
-0.0669894
0
-0.969879
-0.734681
0.175698
-0.561727
0
-0.284336
-0.368294
0
-0.255189
-0.343345
-0.519984
-0.0983449
0
-0.613923
-0.196271
0
-0.97129
-1.04351
0.295197
-0.472519
-0.346694
-0.482188
-0.0674181
-0.0140028
-0.0343275
-0.292056
0.0140027
0
0
-1.0548
-0.55754
0
-0.458817
0
-0.273264
-1.91781
0
-0.432535
-1.17648
0
-0.744421
-0.723668
-0.0142898
-2.30624
0
-1.22994
-0.0516361
0
-0.352331
-0.336976
-0.362664
-0.889962
0
-0.00783464
-1.50479
0
-0.0176748
-0.262983
0
-2.26547
0
-8.93107
0
-4.226
-6.7868
-3.24384
-0.92318
-1.03292
-2.09601
-4.6994
-7.09597
-0.562358
-1.60664
-0.834347
-0.927155
-0.932499
-1.17013
-1.3982
-3.56071
0
0
0
0
-0.700625
-8.29178
-0.809876
-5.50442
-3.746
-0.154402
-0.492021
-4.4522
-0.277742
-5.5239
-1.11428
-1.87509
0
0
0
-4.56086
-0.125441
-0.214161
-7.2965
-1.34478
0
-0.946059
0
-2.0821
0
-3.17533
0
-3.89823
-0.120865
-2.62635
-0.308685
0
-4.53599
-2.17882
-1.61056
-0.364996
0
-3.2139
0
-0.837061
-1.50719
-1.89348
0
0
0
-8.22292
0
-1.10812
0
-0.635287
-7.73531
0
-2.80143
0
0
-3.77355
0
-3.80242
-0.973644
-0.607671
-1.56534
0
-1.91509
-2.25349
-4.63788
0
-0.0900255
-3.93683
-2.34824
-8.81062
0
-7.15429
-3.73805
-1.90336
-1.36193
0
0
-0.30356
-2.04615
-1.6778
-1.61849
-3.197
-3.26048
-0.0655541
-1.42302
-3.18996
-4.39636
-1.95538
-0.146932
-4.7577
0
-7.40933
-2.34397
-0.509738
-0.0104143
-0.82285
0
-4.34515
0
-5.84317
0
-3.33154
-4.0988
0
-3.5116
0
-1.80616
0
-1.29703
0
0
0
0
0
-5.06309
0
-4.42242
0
-0.799251
0
-3.99719
-1.94861
0
0
-1.75963
-0.793185
0
-0.0725
-0.637766
-1.57255
-2.69417
-1.76263
0
-0.516313
-3.55936
-4.44755
-0.577292
-1.0747
0
-2.6568
-6.62771
-2.69983
0
-7.50913
-1.12045
-1.67925
-1.38173
-0.238849
0
-3.49466
-5.18837
-0.133936
-3.73566
-2.46215
-3.20203
-0.179531
0
0
-3.09643
0
-1.08751
-4.23197
0
-0.585769
-7.25141
-2.17766
-3.84679
-3.57849
-0.88804
-2.52707
-1.72331
0
-1.5552
0
-3.20803
-0.119311
-1.72757
-0.762668
0
0
0
0
-4.00284
0
0
0
-3.73696
-1.156
-1.72152
0
-3.91458
0
-2.16168
0
-3.64372
-2.36663
-0.288078
-0.184163
-3.47737
0
-0.436503
0
0
0
-3.02111
-10.1478
-4.23863
-5.69108
-8.50406
-5.7988
-0.653639
-12.028
-2.11114
0
-0.144958
0
0
-0.0924741
-1.14922
-5.14327
-1.42911
-0.355263
-1.14854
-4.16613
0
-1.59094
0
-7.51924
-0.40667
0
-2.16218
0
-5.5664
0
-3.40591
-0.718523
-1.75868
0
-5.38233
0
-1.98187
0
-3.06182
-3.00911
0
0
0
0
0
-2.53142
-4.20893
-7.37974
0
-3.30566
-2.90217
-3.53421
-0.824144
-8.23412
-2.59291
-1.23931
0
-2.1307
-3.84758
-2.75754
-1.09009
-0.0783829
-0.51896
-2.60049
0
-0.83976
-2.98186
0
-0.950081
-4.236
-1.00985
0
-1.55832
-1.93068
-2.8951
-1.38428
-4.94631
0
-1.29105
-1.14703
-0.79485
-2.73016
0
-1.87429
-0.612858
-0.434898
-3.04495
-1.83724
-2.85632
0
-4.63516
0
-0.766164
-6.39498
0
-6.39073
0
-0.724569
-0.528664
-1.58243
-0.461929
-4.88022
-1.52329
-5.40001
-1.97128
-6.57805
-0.310051
-3.5497
-2.30727
-2.85825
-1.40582
-2.78915
0
-5.12159
0
-0.736644
-0.170907
0
0
-4.22661
-3.1705
0
0
-1.2742
-4.40618
-0.572352
-0.962786
-0.213618
-3.35337
-0.849493
-7.77249
-0.817606
-2.97938
-3.40478
-0.863208
0
-5.25682
-1.69043
-2.0003
0
-4.8481
-0.1181
-3.08431
-2.61973
-4.56527
-3.75821
0
-2.04412
-0.458509
-0.50546
-1.55453
0
-6.15748
0
-1.06417
-5.23822
0
-1.81646
-1.75798
-5.61872
-1.96154
-0.251655
-1.16009
-3.09758
-1.19498
-3.26501
0
-0.754483
-2.1839
0
-1.76705
-2.40859
-0.0470477
-0.557115
-0.649419
-0.330186
-0.0299865
0
-1.54266
-3.05894
-4.38341
-0.265484
0
-1.92585
0
-2.1879
-0.307246
0
-1.44604
-3.8611
0
-1.85384
0
-0.0522158
0
-3.87529
0
-2.71134
-1.19291
-4.47939
-3.36261
-0.102216
-0.112814
-0.882763
-1.71045
-2.71343
-2.15617
0
-5.04444
-0.0967837
-0.0536294
0
-3.12459
-0.928561
-5.83054
0
-2.64181
-0.248368
-7.11648
0
0
-9.30616
0
-1.33695
-0.13356
0
-1.10766
-3.20331
-5.71879
-3.66882
-0.984198
-1.03896
-3.15046
-0.805451
-2.705
-1.2788
-5.98516
-1.40923
-2.61316
0
0
-5.94215
-0.692869
-2.05079
-4.323
0
-4.7812
-0.153048
0
-2.83805
-4.99851
-4.82889
-2.7064
0
-4.89148
-0.0380519
-4.88749
-2.9263
-2.39842
0
-1.11817
-2.73186
0
-11.126
-0.301348
-1.92016
-3.23474
-6.64136
0
-2.37323
-1.33197
-0.20518
-0.963125
0
-5.15217
0
-3.51504
-1.75078
0
-1.01441
-3.33169
-2.39248
-0.63682
-0.438882
-3.89101
-0.517552
-2.66918
-0.587618
0
-1.59157
-2.03565
-2.18723
0
-0.1637
0
-1.79514
-1.26582
-1.9801
-3.63612
-1.13871
-3.05055
-0.624226
0
-5.24386
-2.33176
-4.48837
-1.57926
-0.11049
-7.60408
0
-5.20987
-2.27101
-2.40428
0
-0.249418
0
-1.53236
0
-1.32504
0
-0.508206
-2.76547
-0.863455
-7.19913
-8.73145
-3.82214
0
-2.10364
-5.45584
-1.37166
-1.87828
-2.9281
-3.65765
-1.78394
-2.94338
-1.12032
-1.05595
-2.34377
0
0
-2.17209
-0.0392042
-3.77808
0
-4.09228
0
-7.03885
-1.63745
0
0
-3.6337
-0.284597
-4.24424
-0.575583
0
-6.91249
0
0
-6.27025
0
-2.33908
-0.120343
0
0
0
-0.569163
-5.89459
-1.73334
-0.35191
-1.52679
-2.46195
-3.32049
-1.76152
-1.26014
-4.5603
0
0
0
-8.35101
-0.27403
-1.57645
0
-3.15924
0
-7.58081
-1.0546
-3.97055
-2.09348
-6.00348
-0.542591
-1.7342
-0.634012
-8.38015
-0.953229
-2.24061
-1.1872
-0.4719
-2.51925
-0.580563
0
-0.291348
-0.167458
-5.86182
-4.60301
0
-0.403322
-3.58199
0
-5.18406
0
-1.39463
-5.27973
-2.62545
0
-5.92751
0
-2.40745
-3.20544
-1.54173
-2.86543
-6.36586
-4.01196
-3.59616
0
0
-0.948582
-0.476793
-0.275619
-5.13183
-7.21134
-2.39855
0
-5.9762
0
-0.708525
-0.765077
-2.38396
0
0
-6.8053
-0.383496
-8.13173
-0.707383
0
-5.44243
0
-0.833297
-5.02511
0
-1.13894
-3.18783
-2.87118
-8.1664
-3.38979
-4.02651
-5.43517
0
0
-4.34851
-4.72115
-4.80805
0
-4.94123
0
-0.319509
-2.80726
0
-6.33771
0
-3.92399
0
-3.3171
0
0
0
-2.49338
-0.325017
-2.21515
-0.467252
-2.88955
0
-3.985
-2.75504
-1.22899
0
-1.8354
-0.99936
-10.665
0
-0.527604
-3.17703
-0.588388
0
-4.45515
-0.0729214
-1.07882
-0.0788642
-2.40568
-6.40866
-6.76979
0
0
-8.92308
0
-4.75528
0
0
0
-4.98313
-2.83992
-4.36876
0
-6.08518
-0.670432
-8.67395
-0.767698
-8.32187
0
0
-4.14834
-1.18005
-0.52201
-2.57642
-2.74123
-2.51457
0
0
-4.17874
0
-0.0988898
0
-6.99033
-0.642977
-6.00037
-4.47009
-3.88573
-8.8322
-0.479794
-2.85413
-4.57653
-1.00572
-8.39088
-0.326151
-3.45928
-6.64498
-2.31768
-4.36119
0
-2.5687
-1.68968
-1.93479
-0.987965
-9.19827
-0.764599
-3.55483
0
-4.43265
-0.296395
-5.41211
-1.91015
-6.98042
-3.41854
-6.64741
-4.48283
0
-2.91119
0
-6.97378
-0.0386355
-3.34595
-0.791993
-2.49236
-1.08039
-2.2681
0
-4.2743
-5.92158
-0.853838
-2.44672
0
-1.8077
0
-7.64559
-3.49903
-0.964385
-0.12575
-3.33284
0
-2.59425
0
-4.20816
0
0
0
-0.116449
-2.6612
-8.46836
-1.37789
-3.04793
-4.09428
-1.79565
-2.30822
0
-2.29301
-0.302624
-1.68582
0
-7.34159
0
-3.26348
-6.57176
-0.381925
-3.86284
0
-0.659009
-6.53643
-0.905643
0
-4.43818
-5.37536
-1.70518
-7.0365
-1.49525
-8.42151
-3.03333
-2.47984
-2.41321
-4.82146
-1.54909
0
0
-5.65539
-0.831794
-4.85712
0
-1.01787
-2.57817
-2.60458
-3.98504
-6.84075
-5.31639
-1.54881
-4.32235
-2.43027
-5.48004
-1.0462
-3.69853
0
-5.0289
-0.687035
-0.287625
0
-9.73497
-3.77013
-0.291889
-5.75036
-2.46227
-0.179182
0
-3.95543
-1.59034
-3.4837
-3.61345
0
-4.5514
-1.03854
-2.83693
0
0
0
0
0
0
0
0
0
0
0
0
0
0
0
0
0
0
0
0
0
0
0
0
0
0
0
0
0
0
0
0
0
0
0
0
0
0
0
0
0
0
0
0
0
0
0
0
0
0
0
0
0
0
0
0
0
0
0
0
0
0
0
0
-0.603083
-1.22503
0
-1.02187
-1.19017
0
-1.10926
-0.731059
-0.559114
-2.51502
-0.438859
-1.36236
-0.70834
0.0232165
-0.879608
-0.472124
-1.14808
-1.90387
0
-1.33961
-1.54105
0
-1.46505
-1.6943
0.110744
-2.52497
0
-1.90603
-1.06272
0
-0.923239
-0.74067
0
-2.52616
0
-0.711135
-1.87289
0
-0.124776
-0.309345
-0.303288
-0.214001
0
-0.467661
-0.828072
0
-4.5513
-4.62765
-0.668539
-3.95831
0
-2.5659
-4.7313
0
-1.70378
-0.267145
-0.829214
-0.432076
0
-2.56457
-0.408717
0
-2.60457
-0.413174
-9.24253
0
-2.1904
-1.70419
-0.297776
-1.78305
-1.93441
-8.12414
0
-11.53
0
-6.09519
-0.801025
-8.96068
-2.05642
-4.26798
-2.46097
-8.99855
-0.130747
-6.93917
-0.693094
0
-4.76183
-2.48143
-4.49329
0
-0.379108
0
-8.87278
-2.37115
-9.64432
-3.86208
-6.94611
0
-0.157271
-2.46578
-1.02676
0
-5.92869
0
-0.591995
-2.45161
-0.0365168
-0.371837
-7.83089
-2.68852
-7.06118
-3.03268
-4.87683
-3.22559
-3.41004
0
-4.11829
-0.185954
-4.59347
0
-6.20309
0
-1.07203
-0.43992
-2.00016
-0.502816
-5.14861
0
-3.83967
-2.1792
-0.104101
-1.52675
-9.25208
0
-3.84607
0
-6.68878
0
-1.29956
-0.582967
-3.2097
-2.36587
-3.73997
0
0
-0.0890897
-3.93259
-0.371223
-0.110277
-6.27475
-2.55932
-3.08146
-1.89021
-0.381543
-0.317121
-6.92288
0
0
0
-2.13805
0
-2.66954
-0.546496
-5.9914
0
-3.94962
-2.0107
-0.29237
-0.403265
-0.527732
-3.67499
0
0
0
-0.0943722
0
-1.4909
-2.78433
0
-1.28437
-3.49263
0
-0.873889
-0.45598
-4.50582
-0.611262
0
0
-0.276794
-6.67319
-8.70956
0
-2.28892
-2.03642
0
-0.0655135
-0.0469714
-3.58459
0
-6.38439
0
0
-0.989114
-2.70339
0
-4.31025
0
-6.3702
0
-5.54544
-0.66359
-5.31594
-0.438349
-0.245683
-0.842003
-3.923
-0.642531
-6.06676
-0.756935
-3.643
-1.27657
-1.76556
-2.14497
0
0
0
-4.38208
-8.32877
-0.213514
0
-1.60242
0
-1.83472
0
-0.174925
-0.886739
0
-7.5728
0
-1.77758
-3.02417
-1.06204
-0.315969
-4.95977
-0.699608
-4.41488
0
-0.339821
0
-1.18963
0
-3.66898
-1.30965
-0.278096
-1.07731
0
0
-6.61605
-2.15288
0
-3.02014
0
-8.04269
0
-7.36418
0
-13.0787
0
-10.7796
-2.64091
-7.7987
-4.192
-1.13573
-5.96322
-1.17092
-1.83408
0
-2.83834
-3.3051
-2.89671
-3.10424
-3.13577
0
-0.589276
0
-2.54331
-1.75661
0
-1.06592
-0.0483598
0
-2.38048
0
0
-0.0413098
-4.07386
0
-3.78359
0
-0.981234
-1.89302
-1.65856
-4.98518
-1.6308
-0.977711
-3.38615
-2.82769
-2.68653
0
-1.25932
-2.17592
-2.57415
-0.840918
-1.35002
-1.13183
-1.12621
-0.273817
-2.57145
0
-3.28831
-0.216621
0
-6.08437
0
-9.18966
-2.51695
-1.60957
0
0
-4.14534
-2.471
-5.57723
0
-8.38321
0
-0.548957
0
-4.64041
0
-1.20563
-0.613476
-5.56468
0
0
-8.19983
0
-1.08341
0
-0.0727005
-7.92508
0
-4.27381
0
-6.57266
0
-6.84548
0
0
-1.69939
-1.87742
-5.10618
-2.19858
-4.01624
-2.64579
-3.43028
-2.84184
-1.07768
-0.857835
-3.50507
-1.52708
-1.99259
-1.92105
-3.49239
-1.53648
-0.459456
-4.33859
-3.46371
-2.89374
-0.943947
-4.49176
-0.407659
-3.62355
-1.81466
-1.51166
-1.51909
0
-2.72381
0
0
-4.214
-1.5821
-1.44492
-5.66127
0
0
-1.62675
-2.36871
0
-3.12878
-2.90303
-0.578085
0
-3.34996
-0.865364
-1.29676
0
-0.693201
-0.447663
-6.50119
-0.938837
-6.39501
0
0
-4.71289
-1.84698
-7.1336
0
-5.00753
-3.72315
-5.49202
-1.23109
-4.62521
-1.1689
-1.90825
-2.96359
-3.56297
-1.72607
-1.68722
-3.16202
0
-1.15947
-2.01283
0
-1.04874
-0.433318
-4.70848
0
-1.3994
-2.22201
-4.10086
-1.2969
-3.27392
-4.8422
-5.32419
-1.39278
-0.416748
-1.46307
-6.11382
-4.14563
-2.46656
-1.52769
-1.21702
-0.856774
-6.09778
-3.47501
-4.41311
-0.476075
-5.05701
-3.66524
-7.98081
-1.75298
-5.58755
0
-4.20313
-2.66053
-3.34418
-2.12081
0
-3.42866
-6.06573
-2.67057
-0.474466
-1.86982
-0.233282
-3.64878
-2.60903
-0.845172
-1.08243
-1.36072
-2.72037
-4.06843
0
-2.00058
-1.55587
-1.94942
-8.96419
0
-1.6976
0
-3.15278
0
-2.33829
-1.25207
-0.23942
-0.706355
-3.41288
0
-1.62345
-2.71674
-1.68834
-0.422619
0
-0.754667
-4.51722
-1.81183
0
0
-1.33431
-0.0763407
-2.73272
0
0
-0.946943
-0.985015
-0.987379
0
0
-9.14318
0
-1.89423
-0.0620536
0
0
-1.55239
-1.42801
0
-0.794871
-4.9246
0
-0.307262
0
-0.228056
-7.37817
-5.5555
-9.08062
-2.44396
-3.29153
0
0
-7.32719
-2.7849
-5.8702
0
-1.39887
-1.50087
-0.383771
-3.96318
-0.609392
-4.50371
-1.45826
0
-0.760948
-6.04977
-0.370455
-7.34803
0
0
-3.22405
-5.9867
0
0
-1.6826
-4.4806
0
-1.42844
-5.9746
-1.39342
-5.4233
-1.00748
-3.10382
0
-0.17428
-7.98842
-1.05072
-2.19169
-5.0506
-0.683768
0
-2.74736
0
-0.25026
-4.06655
-1.50085
-1.22592
-2.88204
0
-6.39636
-1.03686
-9.16447
-0.345669
-0.658746
-0.0829385
0
-0.733164
-2.15867
-4.14583
-0.983679
-1.13011
0
-4.45459
-3.28793
0
-2.75417
-3.66121
-2.59727
-3.96553
0
-7.02903
0
-9.88143
0
-5.27231
-1.5464
-3.85349
-5.72369
-1.1143
-0.635546
-0.126852
-0.779837
0
-3.36346
0
0
-0.549019
-2.76314
-2.71304
-1.18604
-2.36832
-0.252779
-0.999841
0
0
-3.355
-6.42203
-0.711766
-3.76037
-0.103141
-2.6382
-2.12071
0
0
-5.74728
0
-2.46057
-3.47801
-2.41054
-4.10765
-5.48933
0
-0.356382
-7.69082
-1.31808
-1.08995
-4.794
-0.714774
0
-4.53341
-0.553781
-0.661078
0
-1.26132
-4.6518
-0.527028
-3.74353
-2.56749
0
-7.44298
0
-6.78395
0
-4.61486
-2.10632
0
-7.57526
0
-3.60955
-1.8392
0
-0.668871
-3.28304
-6.20522
0
-1.0499
-5.98738
-3.92952
0
-1.13512
-8.0465
0
0
-7.75007
0
-0.293077
-2.95892
-2.5796
0
0
-6.39029
-0.0730471
-7.26759
-1.7859
-6.89722
-1.32865
-5.34833
-0.882265
0
-8.88699
-3.83718
-8.48965
-3.62388
-3.38416
-3.6948
-2.39155
0
0
-4.26597
-1.1294
-1.51666
-1.01352
-5.99585
-3.81035
-2.32708
0
-0.291497
-7.07896
-1.77705
-0.645709
-4.94499
-1.14737
-3.29002
-1.3878
-3.72417
-0.433064
-1.84
0
-0.201418
-2.90208
-0.286955
-2.61555
-0.647397
-3.11338
0
-8.27272
0
0
-0.203984
0
-2.25823
0
0
-5.94696
0
0
-1.48265
-2.26897
-2.18469
-1.21782
0
-1.18609
0
0
-3.01021
-3.57069
-2.02882
-1.1032
-2.00076
-3.79731
-9.49853
0
-1.19088
-0.661195
0
-4.76341
-1.67138
-0.574078
0
-6.56084
0
-6.60025
-0.506412
-0.321746
-3.25918
-2.61092
-1.33438
-5.48072
-8.17477
-2.76399
-1.35526
-5.2334
-1.44594
-1.88239
-0.473204
0
-6.9199
-3.63626
-2.9281
-5.2449
-0.868353
-3.44416
-4.53126
-7.1587
-0.771899
-2.81376
-0.0518325
-7.46873
-0.906746
-3.91906
-3.43199
-5.78747
-0.167428
0
-3.16709
-0.459809
-2.02557
-2.98013
0
0
-4.07629
-3.26033
-2.21469
0
0
-7.25972
0
-1.49793
0
-0.113273
0
0
-3.18799
0
-4.98358
-1.83274
-3.08685
-0.295039
0
-4.58533
-0.659353
-4.54793
-0.288417
-6.52147
-2.98734
-6.4784
-2.14353
0
-0.549658
-2.09573
-7.38688
-2.24873
0
0
-7.95327
0
-5.11765
0
0
-2.82854
-2.91767
-4.58752
-4.28819
-0.480701
-4.87692
-2.4678
-4.78833
-4.96405
0
-1.89434
-4.58963
-0.0769582
-0.187157
-1.66972
0
-1.04033
-1.25943
-2.46457
-0.0269041
0
-3.84208
-0.647594
0
-0.0966162
-7.78515
0
0
-3.52141
-5.74128
-3.22282
-3.03668
0
0
-1.8237
-1.2106
-3.539
-3.68612
-2.69082
-0.859899
-0.886419
0
0
-6.72868
0
-0.743115
-2.65826
-3.16163
-6.35885
-1.90417
-6.61754
0
-0.108902
0
-9.05284
0
-2.47418
-0.0730185
-0.0111206
-0.833545
0
0
-4.72493
-0.410013
-1.67419
-0.752428
-11.126
0
-1.19174
0
0
0
-9.73316
-3.11887
-7.73795
-5.85486
-1.63351
-0.161577
-3.70451
-1.66887
0
-1.67984
-1.67969
-6.53049
-2.49778
-2.68925
0
-8.09579
-2.51002
-0.481324
-2.80011
-8.12239
-0.545633
-0.317548
-8.80932
-1.94307
-4.32239
-0.551935
-0.929216
-3.22806
-2.8173
-1.43016
0
-1.65313
0
0
0
0
0
0
0
0
0
0
0
0
0
0
0
0
0
0
0
0
0
0
0
0
0
0
0
0
0
0
0
0
0
0
0
0
0
0
0
0
0
0
0
0
0
0
0
0
0
0
0
0
0
0
0
0
0
0
0
0
0
0
0
0
-0.0056994
0
0
-0.035918
0
0
-0.371095
0
0
-0.177945
0
-0.48366
0
0
-0.23416
-0.0479711
0
-0.294841
0
-0.043888
0
0
-0.0621882
0
-0.0430092
-0.259295
0
0
0
0
0
-0.0573766
0
0
0
0
0
0
0
0
0
0
0
0
-0.0267264
0
0
0
0
0
0
0
0
0
0
0
0
-0.240542
0
0
0
0
0
0
-0.214934
-4.24498
-5.24885
-4.40468
-4.43434
-0.0896312
-3.30873
-2.06261
-4.11593
-1.63632
0
-4.5438
0
-1.03822
-1.16358
-0.910807
0
0
0
-3.71047
-0.929477
-5.89997
-0.54367
-1.86624
-2.36679
-7.60512
-2.528
-3.72193
-1.30539
0
-0.443993
0
-2.87945
0
-4.88654
0
-7.3781
-1.32728
0
0
-2.59536
-0.0462551
-4.16123
0
-0.417418
0
0
-1.22844
-2.68599
0
-3.94782
0
0
0
-3.65323
0
-1.34704
-1.75166
-2.97483
0
-2.81323
0
-3.71223
-3.14479
-0.497305
-4.04069
-6.61258
-1.90701
-0.0248556
-3.89495
-4.19504
0
-2.00671
-0.894179
-2.70403
-0.426501
-0.471599
-2.18243
-1.05552
-2.02063
-7.39018
-1.25369
-4.25416
-2.05762
-4.76106
-4.92852
0
-2.38495
-1.73682
-3.17419
-2.82619
0
-4.32546
-3.80126
-0.354376
0
-7.32604
0
-1.65504
0
-8.61726
-0.469988
-1.65995
-0.850017
-4.95239
-5.04993
-0.487839
-0.51279
-1.1776
-0.584478
-6.23359
-2.15816
-1.57426
0
-6.07204
0
-0.388234
-2.21989
-3.13961
-1.30093
-2.9983
-0.254138
-4.77419
-3.77316
-1.59968
-2.74082
0
-0.541592
-3.86266
-3.09921
-0.385189
-5.71558
-1.46673
0
-3.35041
0
0
-5.72895
-0.469569
0
-1.64989
-3.29801
-0.160249
-0.207255
-4.65974
-1.63353
-1.67063
-1.54678
-0.671346
-6.26234
-0.282524
0
0
-1.2809
0
-0.450781
-0.100905
-1.71126
-0.557172
-7.79168
-0.75552
-4.57013
0
-0.198594
-4.54064
-2.33215
-2.31156
-2.28364
-4.21512
0
-4.33517
-0.589149
-4.08704
-4.13892
-0.609434
-4.19256
-0.863484
-2.36997
-2.8609
-0.783765
0
0
0
-5.96395
0
-5.50741
0
-1.80843
0
-8.12413
0
-2.70936
-2.12705
-1.64299
-2.5012
0
-1.56826
-0.650328
-6.78136
0
-0.751682
-1.96822
-0.468175
-0.884565
0
0
0
0
-1.59348
-0.706521
-3.3153
0
-8.78079
0
0
-0.139405
0
-0.830294
-4.82251
-0.28064
-0.177543
-3.82096
-1.98647
-2.96082
-0.291616
-1.76854
-0.662073
0
-0.482786
-3.43363
-2.52664
-3.22191
-1.03242
-2.89273
0
-5.643
0
-3.88661
-1.06599
-0.0870797
0
0
-5.64739
-0.292574
-8.68195
-0.848995
-3.81304
-4.62445
0
-2.36936
-0.541584
-1.56125
-0.0465207
-2.70496
-0.16932
0
-7.69402
0
-3.42162
0
-2.57392
0
-6.37084
-6.52951
-4.9499
-0.344005
0
-4.30686
0
0
0
-6.94903
-0.20106
-1.54812
0
-2.72257
0
0
-2.82498
-5.28251
-1.89491
-3.90513
0
-2.35757
-0.490938
-0.330532
-6.46926
0
-4.2354
0
0
-0.711919
-8.48907
0
-6.38791
-0.819066
-0.0916722
-0.948932
-0.727988
0
-0.475317
0
-5.01913
-0.508444
-2.83916
-2.60628
-3.12221
-0.771968
-2.23564
-1.65865
-5.51057
-1.31629
-1.61744
-4.18245
-1.91168
0
-5.26328
0
-5.85518
0
-7.58216
-2.22479
-4.83128
-0.264907
-4.10021
0
0
-4.03311
-0.371877
-3.50519
-1.71342
-9.04022
-4.65108
-0.908661
-1.90479
-2.52446
-0.223331
-4.70098
0
0
-8.60352
0
-8.44206
0
-0.108141
0
0
0
-5.84548
-1.50423
-3.99811
-0.397674
-3.55904
-0.564214
0
-1.29297
-4.01407
0
-5.35791
-2.29726
-2.91142
-0.135059
0
-0.847099
-0.758606
-2.63339
-0.401533
-0.930865
-4.11498
-4.11351
-1.60963
-6.46647
-0.581176
-5.8462
0
0
-0.315015
0
-1.48152
0
-7.38399
0
-0.0429617
-1.08948
0
-0.178066
-0.96128
-1.02928
-4.07618
0
0
0
-4.59395
-2.27191
-0.168423
-0.0226456
0
-2.451
-0.638026
-3.50239
-2.47107
-0.275684
0
-4.37886
0
0
-0.532078
-4.77222
-0.753664
-5.68988
-1.41671
-0.362454
-1.38549
-3.30891
-3.64917
0
-2.24291
-4.04933
0
-4.31651
-0.623037
0
-6.23727
-8.31071
-4.84547
-4.69515
-4.39779
-1.39513
-1.72015
-2.76218
0
-0.540929
-0.0158854
-2.23575
-1.76654
-0.266839
-5.752
-1.87288
-4.31415
-0.514192
-2.7767
-3.63275
-0.904281
-1.14143
-1.60252
-3.98911
-2.40463
-1.69643
-2.35996
-4.77372
0
-10.6396
-0.649744
0
-0.947903
-6.03834
0
-3.48287
0
-3.40292
-0.974131
-5.00797
-2.70918
-3.14307
-3.39349
-4.53809
-4.81637
0
0
-0.580456
0
-0.565892
-2.00938
-8.9802
-4.52306
-1.07302
-1.37257
-0.634473
-4.8988
-4.01908
-2.26303
-7.9099
-1.02277
-2.88994
-0.920473
-1.44752
-5.94076
0
-1.41171
0
0
0
-6.59442
-2.07668
-0.146749
-1.80045
-4.49993
0
0
-7.77362
-2.50152
-1.80267
0
-1.70988
-2.58248
-1.29863
-3.03883
-3.70562
0
-3.09445
-0.918176
-2.07327
-0.134904
-7.15371
0
-9.40508
-3.95982
-0.968396
-1.53139
-5.95163
-0.0861999
-5.00389
-0.266068
-1.99443
-4.31015
-4.95106
-0.46099
-2.36341
-1.13235
-4.25375
-0.789821
-1.38691
0
-5.36819
0
-0.309367
0
-2.79471
-0.315074
-2.92208
-5.70342
0
-5.1394
0
-4.22423
0
-3.57022
-0.377198
-6.48412
-1.84784
-1.66071
0
-2.96883
0
-2.23026
0
0
-2.11626
-5.31719
-4.44482
-2.06081
-2.14447
0
0
-8.70473
0
-6.54032
0
-3.89749
-5.38402
-5.46352
-2.1417
-2.47001
-3.62381
-5.09667
-0.736783
-5.09053
0
-0.376981
-5.39693
0
0
-1.28154
-1.58289
0
-0.937111
0
-5.51331
-2.88363
-2.38212
-2.99132
0
0
-2.0157
-5.35245
-1.87639
-5.9184
0
-5.74261
-0.275046
-2.87856
0
-1.15815
-1.4365
-2.36562
0
0
-4.42089
-7.45887
0
-1.38844
-2.927
-1.87138
-3.59823
-4.99841
0
-0.687204
-3.102
0
0
0
-6.2665
0
-0.31495
-4.76604
-1.78186
-0.281824
0
-7.51331
0
-6.8825
-0.297636
0
-0.30466
0
-3.63628
0
-3.74219
-2.0664
-1.29826
-4.6284
0
-2.31957
-1.12483
-0.053313
-5.54535
-5.17277
-5.63095
-4.68042
-6.96834
-0.945373
-0.507818
-2.17277
0
-1.51109
-1.82326
0
-1.30593
-2.88096
0
0
-3.97238
-1.16612
-0.311443
-0.763763
-5.50569
-0.0361773
-2.8631
-4.06305
-3.76221
-5.86699
0
-2.78831
-4.3063
-6.14799
-0.729854
-3.71287
-0.825483
-2.4034
0
-7.33167
0
-2.13919
-0.799299
-1.95795
-8.89856
0
-3.09999
0
-2.10389
0
-0.0280261
-4.1294
-0.307396
-3.36261
-4.94323
-5.50326
-0.615518
-0.320594
-1.46814
-2.07429
0
0
-0.660485
-3.51846
-2.23978
-0.863795
-4.7408
-0.700425
-4.00469
-3.20344
-2.54033
0
-6.50648
0
-3.988
-1.31216
-2.01155
-0.996411
-1.00617
-1.28641
0
-0.794784
-1.675
-4.91005
-1.98343
-3.72407
-0.264038
-5.89026
-1.30559
-1.07786
-0.160732
-0.811081
-6.53907
-0.437685
0
-1.00734
0
-5.93317
-0.311364
-1.01135
-0.949162
-3.8651
0
-3.67241
-0.812172
-5.22954
0
-4.14694
-0.808585
-0.422153
-5.28048
-2.17361
-1.38687
-4.15298
-3.63007
0
-5.55199
0
0
-3.76963
-4.63919
-6.35723
-7.21293
0
0
-4.20317
-0.0513763
-4.83668
-2.66168
-4.7804
0
-1.51629
-0.0247401
-4.64506
-0.959665
-1.10644
-2.93529
-3.43085
0
-6.02662
-1.77852
-1.9335
-0.240736
-5.65124
0
-1.0241
-2.993
-0.225333
-2.13934
-1.13814
-4.61964
0
-0.871799
0
0
-3.27722
-0.915188
-1.55627
0
-0.887481
-7.31308
0
-3.69062
-1.28321
-2.40092
0
-4.60627
-1.68267
-0.719187
0
-2.74891
-3.55149
-1.63961
-0.925621
-5.87769
-1.45012
-4.97068
-4.44882
-1.2278
-2.05884
0
-0.268383
-1.12466
-2.1064
-3.61465
-2.58923
-4.37972
-3.5588
-1.28116
-1.8047
-0.799008
-0.236234
-4.33264
0
0
0
-5.75907
0
-0.442811
-4.01906
0
-4.28073
-1.99064
-1.60768
-0.350293
0
-0.248243
-2.34817
-0.0606178
-4.53356
-4.53359
-6.92104
0
-4.35326
0
-7.04049
0
-1.72791
0
-6.23489
0
-4.74182
-4.34013
-3.43259
-1.67899
-4.61229
-3.65416
-3.08411
-4.58158
-3.8656
-1.76928
-6.36435
0
-5.57573
-0.149462
-1.75782
-4.38889
-1.84539
-0.089735
0
0
-0.239125
-0.204213
-4.20617
-4.5014
-1.91321
0
-1.70908
-2.2777
-0.474221
0
-4.37541
0
-7.04203
0
0
0
0
0
0
0
0
0
0
0
0
0
0
0
0
0
0
0
0
0
0
0
0
0
0
0
0
0
0
0
0
0
0
0
0
0
0
0
0
0
0
0
0
0
0
0
0
0
0
0
0
0
0
0
0
0
0
0
0
0
0
0
0
0
-0.402987
-1.32983
0
-0.904526
-1.24221
0
-0.325987
-0.886201
-1.74913
-2.30648
0.0134198
-0.224043
-0.690497
0
-1.95307
-0.959895
-0.25003
-0.445216
0
-2.82228
-1.82686
0
-0.997323
-1.07894
-0.0367521
-1.00409
-0.0132578
-1.64021
-0.857109
-0.0198003
-1.55833
-0.848923
-0.888725
-0.241034
0
-1.99416
-0.246598
0
-1.42087
-0.544453
-0.390818
-1.49091
0
-0.975128
-1.0484
0
-0.811216
-3.45068
-1.50735
-0.681677
0
-1.34764
-0.108537
0
-2.86214
-0.128445
0
-2.53138
0
-0.467092
-1.14453
0
-0.693903
-0.701732
-4.44939
0
-1.14484
-2.96868
0
0
-2.70873
-0.326236
-4.05365
0
-3.53729
-1.9003
-2.14401
-2.65871
-10.3023
0
-4.89385
0
-1.57832
0
-3.72222
-0.496923
0
-4.09558
-4.46801
0
-0.624792
-3.11426
0
-5.29364
-3.33381
-0.176655
-3.82475
0
-1.9758
-0.355984
-0.819883
0
-4.62559
-2.35007
-0.963312
0
-1.04226
-5.83842
0
-6.11337
0
-2.46435
-1.55798
0
-0.4741
0
-8.01579
0
-0.35214
-3.94816
-0.0651335
0
-1.73056
-0.263715
0
0
-2.47549
-0.895435
-1.82829
-1.13692
0
-3.17649
-0.258546
-1.89377
0
0
-2.88386
-1.24114
-2.29966
-2.01466
-4.87111
-0.861678
-4.61335
-5.08468
0
-8.60233
-0.683721
-3.41241
0
-4.88001
-1.57911
-4.32864
-1.48541
-4.34421
-3.98388
-8.35238
0
0
-3.15289
0
0
0
-2.77334
0
-1.21376
0
-2.76652
0
-0.394883
-0.255564
-0.376671
-0.502414
0
0
0
0
-5.05057
0
-0.924589
-4.44907
-5.64823
-2.67686
0
-2.12554
-1.8173
-0.980684
-3.96502
-1.45662
-6.13803
-1.25709
-7.92296
-0.536234
0
-5.13105
-0.741864
-2.05203
-0.701117
-0.132012
-0.956454
-0.303432
-4.16918
0
-0.79
-8.0997
-0.333726
-1.3793
-3.63338
-1.6221
0
-5.95016
0
-5.25246
-2.0108
0
-2.30292
-7.76297
-5.1096
-5.45828
-3.77738
-3.52203
-3.08361
-2.29888
-1.47742
-5.32524
0
-3.13865
0
-0.906002
0
-5.19432
-1.80593
0
-0.557761
-2.69462
-0.996369
-2.38719
-1.18139
-0.605742
-6.80187
0
-0.735395
-0.48174
0
-7.5792
-0.172832
-3.19723
-1.16007
0
-1.90417
0
-3.40904
-0.914547
0
-0.102211
0
-4.79816
0
-0.21243
-8.76459
0
-0.174517
-1.05362
0
-2.753
-0.811008
-7.33312
-2.16113
-10.3949
-0.0518388
-10.4921
0
-6.63686
-8.75013
-0.855156
-4.28499
0
0
-1.2491
-6.3254
-0.212136
-4.84126
-1.89394
-1.0645
-7.09595
-0.666441
0
-2.17246
0
-3.90867
-0.726087
-2.2977
-1.05464
-5.96741
-1.37816
-0.0458615
-6.8167
-0.875086
0
-1.05873
0
-3.63624
-2.09921
-3.16556
-4.09748
-7.87041
0
-4.6784
-0.438935
-2.65848
-0.953927
-1.88333
-2.88797
-2.3
-2.13115
-0.108703
0
-4.56666
-0.514402
-1.05224
-3.15302
-1.0447
-2.50517
-2.41788
-4.54753
-6.19356
-1.5492
-1.01011
0
-0.58073
-1.88007
-5.98954
0
-4.08617
-3.99987
-2.32932
-1.53872
0
-3.66979
0
0
-1.85182
-3.59674
-0.964084
-0.441179
0
-2.00624
-0.0429002
0
-4.00959
0
-1.38569
-0.104321
-4.89579
-3.49297
-2.04875
0
-1.57182
0
-1.88896
0
-8.04994
-1.65117
-5.97192
-1.02283
-2.58317
-7.62983
0
-3.47928
0
-2.93071
0
-2.01173
-1.30196
0
-0.585377
0
-4.64783
0
-5.78553
-5.95606
-1.75084
-1.04235
-3.73762
0
-0.662661
-2.48875
-4.56149
-0.653957
-1.75295
-1.73939
-2.66915
0
-5.50917
0
-3.06165
0
-0.729919
-0.326586
-7.08693
-4.43449
-3.08737
-2.62944
0
-6.8396
0
0
-1.14606
-5.13213
-0.432736
-8.62752
-2.25369
-5.89103
-2.74107
-4.44484
-0.601489
-1.54921
-0.968734
-5.40804
-1.87848
0
0
-6.26199
0
0
-0.519508
-0.761195
-2.05163
-3.17153
-1.88932
-0.101266
-2.48529
-3.13069
0
0
-6.35963
-1.92386
-4.38896
0
-4.93541
-3.2045
-2.56277
-2.62789
-0.441876
-0.175198
0
-3.11304
-0.456005
-4.50046
-5.58047
0
-4.72378
-1.05776
-2.32277
-0.412537
-4.25676
-1.37934
-0.771579
-1.43529
-4.41775
-8.51884
-0.0447283
-2.32382
-2.69737
-1.36001
-2.67374
-4.23632
-2.65035
-2.99834
0
-5.0697
0
-0.451566
-2.37309
0
-3.54743
-1.15798
-2.6386
-2.66729
-4.92937
-1.10143
-0.908981
-2.42464
-4.45428
-2.90591
-1.52438
-6.28214
-0.529902
-0.660688
-2.08467
0
0
0
-6.21528
0
-8.68832
0
-6.48518
-0.239597
-3.14948
-1.32251
0
-3.59495
0
0
-0.625588
-1.33033
-2.42402
-1.0147
-2.23829
-2.38241
0
-0.119974
-1.01833
0
-7.94199
0
-5.3656
-1.15028
0
-2.47389
-2.65797
0
-5.97031
-2.10154
-1.69907
0
-2.97237
0
-3.8411
-0.578788
0
-1.56698
-3.19179
-1.35163
-4.67101
-0.0163861
-5.89558
-0.73584
0
-7.52842
0
-8.00818
-2.20848
-2.04799
-3.53347
-2.34296
-3.88112
-1.43786
-4.09673
-0.648205
-2.17952
-0.668878
-9.26055
-7.01927
-8.18924
-0.731773
0
-1.62587
-3.022
-0.265957
-0.420999
-3.4598
-2.53713
-0.104322
-0.262806
-3.28459
-4.49276
-0.502267
-1.42167
-0.312219
-0.803058
0
-2.471
-0.286742
-1.13975
-3.40224
-4.33638
-2.17209
-0.830535
0
-0.11065
-11.45
-0.54928
-4.2809
0
-4.46259
-2.71624
-7.56938
0
0
-0.354636
0
0
-0.685442
-1.26996
-2.39535
-1.56966
-5.28523
-0.684963
-3.99897
-0.797699
-0.693555
-4.69616
0
-0.0550861
-2.80909
-1.29609
-3.07973
-0.321974
-1.68683
-3.82885
-2.49475
0
-0.121105
-2.06785
-4.63828
-1.80479
-0.711056
-1.3379
0
-4.22817
-1.34982
0
-0.463396
-8.44398
0
-6.61038
0
-0.0563759
-8.08564
-0.851439
-5.43351
-4.83886
-0.967238
-2.98123
-0.166303
-2.166
-2.53188
-0.520126
0
0
-2.40858
-5.54869
-0.176066
-1.79251
-8.64409
-3.83097
-2.06874
-3.54644
-3.63114
-1.42564
-1.22772
-0.970721
-2.30408
-1.14187
-1.49538
-2.19911
-1.7461
0
-5.77462
0
-6.96674
0
-3.35722
-1.58788
-3.20127
-4.18701
-7.38074
0
-4.36297
-3.93531
0
-0.453081
-0.362187
-8.21241
0
-7.14064
0
0
-0.0615885
-1.77668
-2.57666
-0.100375
-11.9402
-0.755263
-3.23801
-2.6319
-1.02845
-0.621601
0
-4.89149
-0.540812
-0.72346
-3.69738
0
-4.84451
-9.71982
0
-5.9593
-1.3475
0
-0.79454
-0.841221
-0.793803
-1.84749
-3.4725
0
-3.32225
0
-1.06852
-3.85066
-0.210989
0
-4.44875
-7.47883
-4.14574
0
-8.38562
-1.52744
-2.76832
-5.67882
-3.50616
0
-6.08702
-1.31704
-3.40894
-0.0557793
-3.72268
-6.6982
-1.03276
-0.0689459
-5.27019
-4.04993
0
-2.41145
-10.1558
-1.84489
-5.31273
-0.236296
-7.0967
-1.78672
-1.12628
-3.49251
0
0
0
-2.87429
-4.33483
0
0
-0.520896
-0.782047
-2.89269
-3.8397
-5.04946
-8.54342
0
-7.78273
-0.551037
-0.539918
-0.603815
-5.09007
-2.09231
0
-5.01654
0
-1.18418
-3.66332
-2.63814
-0.293912
-3.51223
-1.15905
-0.123081
-1.91171
0
-4.90891
-4.14888
-3.88367
-1.20012
-0.353767
-0.231028
0
-8.64755
0
-5.63882
-1.91945
-0.0484736
-0.873472
-0.64449
-0.453386
-0.667308
-8.23419
-1.01775
0
-1.55708
-0.347858
0
-5.02786
0
-5.44126
-6.78793
-0.246822
-1.54396
-1.25058
-3.55843
0
-0.782906
-0.78046
-6.307
0
-3.98204
0
0
-4.86023
-1.60952
-1.02766
0
-3.67498
-1.38685
-4.67196
0
0
-3.77132
-0.698374
-1.80326
-1.51236
0
0
-4.73027
-5.27569
-3.53852
-3.47405
-2.02542
0
-5.16392
-1.83918
-1.11619
-9.56209
-0.17148
-10.3662
0
-5.58529
-0.673824
-5.65574
0
-2.1477
0
-4.40478
-1.92136
-5.08209
0
-0.99511
-0.977091
-1.46383
0
-1.25322
-1.38864
-2.44055
-1.19639
-3.74791
-2.90372
-0.471501
-5.00117
0
-0.0871515
-1.20758
-6.41211
-1.43484
-3.78674
-2.00951
-1.13538
0
0
-5.11145
0
-4.32085
-3.64179
-5.30662
-4.11795
-4.77233
-2.57408
-8.19927
-0.771053
0
-3.26561
-2.45682
-2.2931
-1.99724
-1.86686
-2.28921
-5.94061
-2.41263
-0.0835831
-3.35043
-3.86586
-0.717407
0
-1.39902
0
-2.70037
0
-3.05028
-3.69762
-2.58835
-1.49004
0
-0.366309
0
-0.0581665
-1.72241
-0.412712
-2.73222
0
-1.90097
-0.489169
-4.40696
0
-2.29985
-2.30611
-1.47538
-2.41771
-0.823382
-2.97753
0
0
-6.11319
-0.0228683
-1.39469
-0.153408
-4.0313
-2.02869
-1.20153
-0.0321528
-2.53069
-5.11488
-2.34258
-4.67918
0
-1.24037
-5.0678
0
-1.92945
-1.97464
-2.28242
-2.16327
-3.29985
-0.113476
-5.50215
0
-0.812443
-0.286799
-3.01287
-3.75006
-1.65714
-5.27305
0