<?xml version="1.0"?>
<VTKFile type="RectilinearGrid">
<RectilinearGrid WholeExtent="0 32 0 32 0 32" Origin="0 0 0" Spacing="1 1 1">
<Piece Extent="0 32 0 32 0 32">
<PointData>
</PointData>
<Coordinates>
<DataArray type="Float32" format="ascii">
0 0.524874 1.04975 1.57462 2.0995 2.62437 3.14924 3.67412 4.19899 4.72386 5.24874 5.77361 6.29849 6.82336 7.34823 7.87311 8.39798 8.92285 9.44773 9.9726 10.4975 11.0224 11.5472 12.0721 12.597 13.1218 13.6467 14.1716 14.6965 15.2213 15.7462 16.2711 16.796 
</DataArray>
<DataArray type="Float32" format="ascii">
-5.03879 -3.62163 -2.20447 -0.787311 0.629849 2.04701 3.46417 4.88133 6.29849 7.71565 9.1328 10.55 11.9671 13.3843 14.8014 16.2186 17.6358 19.0529 20.4701 21.8872 23.3044 24.7216 26.1387 27.5559 28.973 30.3902 31.8074 33.2245 34.6417 36.0588 37.476 38.8931 40.3103 
</DataArray>
<DataArray type="Float32" format="ascii">
0 0.524874 1.04975 1.57462 2.0995 2.62437 3.14924 3.67412 4.19899 4.72386 5.24874 5.77361 6.29849 6.82336 7.34823 7.87311 8.39798 8.92285 9.44773 9.9726 10.4975 11.0224 11.5472 12.0721 12.597 13.1218 13.6467 14.1716 14.6965 15.2213 15.7462 16.2711 16.796 
</DataArray>
</Coordinates>
<CellData>
<DataArray type="Float32" Name="Scalar" format="ascii">
0
0
0
0
0
0
0
0
0
0
0
0
0
0
0
0
0
0
0
0
0
0
0
0
0
0
0
0
0
0
0
0
0
0
0
0
0
0
0
0
0
0
0
0
0
0
0
0
0
0
0
0
0
0
0
0
0
0
0
0
0
0
0
0
0.267408
-0.230564
-0.409097
-1.07903
-0.17651
0
-0.382353
-0.477516
0.138978
-0.543264
0
-1.15647
-0.378452
-0.0464668
-0.517752
-0.321326
0.251769
-0.49437
0
-0.339244
-0.917616
0
-0.590751
-0.226895
-0.113488
-0.774668
0
-0.223788
-0.127589
0
0.104824
-0.506249
-0.402541
0
0
-0.120329
-0.4025
0
-0.379153
-0.0922714
-0.0599353
-1.71595
0
-1.08786
-1.07243
0
-0.759348
-0.941468
0.581249
-1.47372
0
-1.02514
-0.759155
0
-1.92754
-0.057393
-0.0203826
-0.298091
0
-0.311383
-0.965186
0
-0.451171
-0.550595
0
0
-4.20073
-7.19685
-2.95602
0
0
-8.98862
-2.63968
-3.25008
-0.321282
-1.73126
0
0
-2.18795
-1.8042
0
0
-7.84142
-2.86343
-5.92447
-4.49788
-0.907926
-1.58895
-1.82811
-4.49847
-1.93471
-1.07964
0
-2.04731
-2.57042
-5.32099
-3.27886
0
-0.230422
-0.909205
-3.93135
0
0
-2.84776
-1.75689
-4.7806
-2.00947
0
-0.743264
-0.110342
-5.38986
-1.54291
-2.36217
-1.56778
0
-3.48071
-1.67837
0
-7.09638
-1.36319
-5.0011
-2.58478
-3.3779
-1.76753
0
-1.92911
-0.991955
0
-1.92525
0
-5.39297
-0.866997
-1.09125
-2.43821
0
-1.32301
-1.77619
-5.81993
-3.11083
-6.20951
-0.357025
-6.73165
-2.10563
-1.53124
0
-5.97187
0
0
-7.83654
0
-5.91921
-2.15241
-5.89398
-5.68911
-1.39761
-1.65459
-3.24744
-3.64252
-2.85983
-0.162183
-4.80346
0
-6.70984
-0.0893097
-3.31737
-1.66416
-2.57898
-2.86546
0
-2.40068
0
-2.54729
0
0
-1.42976
-0.421349
0
-3.52632
-1.89555
-7.92248
0
-3.2657
-0.0784675
-4.91002
-4.50654
-0.40563
-0.0537799
-1.14255
-0.0544627
-3.25082
-0.121168
-0.458167
-0.342459
-9.13451
-0.050393
-3.80801
-2.23831
-7.19817
0
-2.14081
0
-5.32908
0
-0.124854
-1.62739
-0.755277
-6.29994
-3.02329
-1.12017
-4.90967
-3.7006
-4.22
-1.2851
-0.389785
-2.56774
-2.14052
-0.565353
-1.17211
0
-1.50247
0
-0.104164
-0.175369
-7.75562
-2.01084
-1.33715
-2.74297
-1.76678
-2.58625
-1.64739
0
-3.75788
-1.94585
-3.16573
-4.62254
-3.77042
0
-5.98047
-1.83546
-4.43428
-1.88408
-4.1909
-1.20772
-5.19726
0
-0.23439
-0.533425
-4.89672
-0.591862
-0.998765
-5.3997
-3.25477
0
-2.9158
-5.97665
-1.66783
-4.56172
-1.75263
-2.65143
-2.09518
-0.987633
-0.519631
0
0
-5.44414
0
-2.67136
-5.22394
-4.733
-0.80636
-7.22051
-0.910793
-2.88761
0
-5.91072
0
-16.0538
-0.170102
-3.01728
-1.41206
0
0
-0.270553
0
-3.68233
-0.683497
-3.55559
-0.263789
0
0
-3.66482
-0.367243
0
-0.229295
-0.524954
-0.149669
-4.86205
-0.281452
-4.43564
-2.36309
-1.49839
-0.0706487
-7.46394
-1.60852
-1.9796
-1.17308
-0.689425
0
-1.18495
0
-7.07678
-2.57146
-2.7062
-1.72343
-0.753389
0
-4.58129
-4.28159
-4.11702
-1.36393
-2.7249
-7.80626
-0.909329
-2.98367
-6.2015
-0.796948
-2.99949
-1.88753
-0.687987
-1.88358
-6.55107
0
0
-1.51056
-6.90823
-2.54693
-2.86696
-1.2989
0
-2.58104
-0.540409
-0.264415
-0.129672
-1.58092
-3.40455
-2.61415
0
-0.27376
-4.33426
0
0
0
-2.37813
0
-7.92413
-2.35473
-0.577903
-1.19861
0
-5.27059
0
-0.522224
-2.55325
-0.177961
-5.2667
-2.22774
-1.9298
0
-1.50525
-5.37393
-0.92324
-2.40638
-1.10407
-1.5441
0
-3.67239
-0.181506
-3.75595
-1.70692
-4.17124
0
-3.46106
-5.28967
-6.28414
-0.283092
0
-2.03364
0
-5.05013
-3.50841
-6.90026
0
0
-5.15638
-0.354932
-2.60569
-6.16369
-1.58533
-0.454371
-2.0878
0
-7.67106
-0.689935
0
-0.937219
-0.541378
-0.254879
-0.227531
-0.112265
-2.73632
-1.28349
-0.466686
-2.31338
0
-2.93705
-2.0882
-5.67891
-1.12267
-2.02449
-1.66203
0
-3.53894
-4.40022
-6.02782
-4.96561
-1.04187
-6.44214
-3.36753
0
-0.292756
0
-4.44589
-4.64455
-1.47123
-3.19181
0
-3.10224
-2.60199
-0.555332
0
-5.52866
-0.856335
-2.97125
0
-6.07551
0
-5.09323
-4.10044
-1.92249
-1.92888
-6.60358
-2.77255
-0.603564
0
0
-3.65232
0
-1.08294
0
-4.53112
0
-4.58193
-0.235339
0
0
-5.16285
0
-5.3919
0
-4.6061
-5.01869
-0.41711
-3.44992
-2.70062
-2.42793
0
-6.71218
0
-6.18477
-0.413969
-2.54591
-0.916363
-1.46556
-2.60257
-0.681494
-0.568352
0
0
0
-2.59274
-3.64823
-1.1583
-2.68097
0
-0.718024
-3.71263
-5.4811
0
-5.41763
0
0
-1.30912
-2.08481
-0.694242
-0.715653
-0.0686821
-2.75862
0
-1.56732
0
-3.19627
-1.54826
-1.00866
-0.997794
0
-1.0396
-1.57892
-2.15833
-1.42978
-6.11983
-0.0426218
-8.87943
-2.22751
-0.80197
-1.99355
-3.65116
-0.198235
0
-0.187133
0
-3.33002
-1.17863
-2.94467
0
-5.15783
-3.63978
-0.748262
-4.58238
-2.13683
-4.42399
0
-8.99243
0
-2.49789
-9.82459
0
-3.52943
-1.60656
-2.39075
-0.77822
0
-1.84251
0
-0.443449
0
-4.32839
-2.52303
-6.25722
0
-5.32861
-2.1313
-5.91627
0
-3.92126
-0.94833
0
-3.26294
-3.02739
-5.64574
-0.401721
-0.321048
-3.69807
-5.58028
-3.8022
-10.6687
0
-0.548585
0
-1.35071
0
-4.02071
-3.65944
0
-1.94177
-2.07838
-2.7294
-3.54145
-0.103887
-0.609799
0
-5.71957
-0.556793
-5.33947
0
-9.14772
0
-0.392238
-0.352845
-5.35706
0
-2.20057
-5.26778
-7.02942
-6.29536
0
-1.097
-5.39145
-0.954618
-0.66681
0
0
-2.63585
-0.150874
-1.40138
0
-0.364087
-2.82352
-4.95748
0
-1.13686
-2.03874
-6.27317
-1.03665
0
-7.39212
0
-7.36365
0
-5.53853
0
-6.1649
0
-7.95942
0
-2.43077
-0.577857
-0.947271
-2.81836
-1.89671
0
-7.8461
-5.82857
0
-4.80517
-0.906335
-0.237877
0
-0.342316
-0.683449
-3.05036
-2.05199
-3.1713
-0.825947
-1.4896
-0.797872
0
0
-4.43698
-0.743134
-5.42315
-1.55017
-3.06562
-3.31535
-4.42359
-4.02389
-0.323895
0
-0.346886
-2.31009
-4.65117
-2.31894
0
-2.40567
-1.56215
0
0
0
-2.59171
-2.25119
-0.455358
-4.06436
0
-0.0553373
-3.06595
-3.21012
-1.49182
-1.27996
-6.1307
-1.11876
-5.15533
-3.86957
-2.60682
0
-8.64058
0
0
-2.31894
-4.71087
-1.94886
-2.3747
-1.77622
0
-1.64359
-5.7844
-4.00636
-0.617587
-1.59562
-2.76417
-2.19709
-3.79957
0
0
0
-4.46019
0
-1.19438
-0.904157
-6.42957
-0.805745
0
-1.69676
-4.75753
-2.17334
-3.02453
-4.3389
0
-0.787065
-1.92057
-4.40445
-0.0904009
-1.31339
-1.71453
-4.11415
-3.88889
-0.49779
-0.549308
-4.90893
-1.15821
-7.1158
-5.66189
-4.8051
-5.81452
0
-0.27363
0
-2.11787
-1.71598
-2.2611
-8.6438
0
-1.54314
-2.47563
-2.88982
-1.09784
-2.45326
-3.00364
-5.37325
-1.0017
-5.83358
0
-12.1699
-1.49521
-11.6893
0
0
0
-9.90828
-1.52837
0
0
-3.19094
-1.18308
-4.04291
-0.750862
-4.43697
-1.65249
0
-6.31927
0
-5.87402
0
-6.59536
0
-0.641841
0
0
0
-3.9826
0
-3.69263
0
-7.02112
-1.1405
-0.7486
0
0
-4.16454
-0.297295
-5.11642
-3.51714
0
0
0
-4.76414
0
-0.243665
-2.17015
-0.416453
0
-3.45474
-1.06902
-0.321455
0
-1.85954
0
0
-1.08352
-6.75843
-0.285986
-4.28521
-1.65945
0
-6.77762
-0.382129
-7.3964
0
-3.31015
-0.323293
-4.80104
-3.26026
-0.714192
-5.51612
0
-5.90237
-2.18685
-1.37958
-3.59422
0
-4.63696
-5.53812
-0.398048
-0.274458
0
-4.43051
-7.29982
0
-7.39294
-4.13594
-4.9505
-0.226479
-3.85913
-2.07819
-10.1539
-4.21764
-4.30728
-2.47907
-5.03071
-5.35717
-0.622881
-2.8489
-1.68662
-0.264615
-2.95522
-1.86995
-6.20055
-1.4328
-1.44855
-3.32748
-2.05448
-1.40331
-1.19658
-4.70194
-1.67116
-7.94954
-0.605882
-4.27272
0
-8.00697
-4.26419
-3.93823
0
-4.46101
-2.97369
-1.31053
-8.6891
-0.491285
-4.57121
0
-6.13897
-1.5149
-2.49512
-0.44715
-0.659342
0
-4.89797
-0.0645555
-3.92078
-0.22556
0
0
-0.860177
-2.07042
-4.34777
-0.708113
-4.63947
-1.32201
-3.37228
-0.709353
-2.22125
-5.02536
0
-4.33876
-1.44264
-0.762743
-2.74667
-2.18487
-6.30717
0
0
-0.357402
-0.351444
-0.244231
-1.99061
-0.956458
0
-2.26756
-1.95874
-0.196863
-2.44042
-5.15219
0
-3.91508
-0.265082
-3.26201
-3.06273
-4.09399
-0.334438
-1.00293
-1.5898
0
-2.54057
-0.801433
-5.46372
0
-7.03977
-2.59036
-2.72097
0
-2.61982
-1.18422
0
-0.214529
0
-11.685
-3.00055
-0.411077
0
-1.73374
-2.12143
-5.42113
0
0
0
0
0
0
0
0
0
0
0
0
0
0
0
0
0
0
0
0
0
0
0
0
0
0
0
0
0
0
0
0
0
0
0
0
0
0
0
0
0
0
0
0
0
0
0
0
0
0
0
0
0
0
0
0
0
0
0
0
0
0
0
0
-0.647298
-1.10111
0
-1.53952
-1.88269
0
-0.726653
-0.709933
-0.0353118
-1.01285
0
-0.318173
-2.35141
-0.0288987
-1.19785
-0.0986294
-0.546255
-1.2286
0
-1.38947
-1.21542
0.0379706
-0.689082
-0.641428
-1.00802
-2.43741
0
-1.55306
-1.03869
-0.273032
-1.79016
-0.514218
-0.0950586
-3.28305
0
-0.549213
-1.28932
0
-0.533915
-2.36398
-1.23699
-2.58863
0
-4.03535
-1.37849
0
-2.23627
-0.0932151
-0.328383
-2.10693
0
-1.17126
-2.6492
0
-2.05891
-1.28555
-0.637041
-0.11694
0
-2.02472
-0.0302403
0
-1.83984
-0.0760836
-6.87688
-6.3223
-0.857878
-1.64871
0
-10.8736
-4.0339
0
0
-5.79146
-5.22778
0
-9.9311
-0.0577936
-9.7597
-2.68108
-8.29769
-4.51385
-0.210851
-0.0322159
0
-1.02075
-3.39603
-5.64697
0
-1.98698
-0.79514
0
-12.7463
-2.00673
-3.29659
-1.03073
0
0
-5.34663
-0.106247
0
-1.66263
-4.96713
-1.04964
-2.60433
-1.53646
-1.22613
-3.74521
-3.53983
-3.12213
0
-4.16467
-7.06324
0
-1.85382
-1.60012
-4.41047
-1.55575
-0.118899
-7.99589
0
0
-5.53289
-2.11497
-0.958976
-2.17808
-0.818109
-1.56714
0
0
-0.955155
0
0
-4.59863
-5.81785
-4.63469
-3.06028
0
0
-2.72024
0
-1.46362
-2.70286
-2.91032
-8.18095
0
0
-7.22848
0
0
-4.23438
-0.36368
0
-0.990173
-5.15623
-4.22914
-2.32129
-3.15608
0
-2.4942
-0.214868
0
-0.0675901
0
-5.255
-7.71269
0
-0.275597
-0.940508
-4.73974
-5.2217
-3.43084
-10.5473
-0.635865
-6.37399
-3.43238
-3.86925
-0.765148
-2.47842
-1.54979
-0.284346
-1.4042
-0.303093
-2.04041
-2.82612
-3.2978
-9.14608
-0.162783
-6.59641
0
-3.96337
0
-1.63888
-1.4406
-1.61015
-3.65894
-0.155947
0
-5.61327
-0.546759
-7.704
-2.23979
-1.49838
-0.382394
-2.92001
-2.07376
-0.187029
0
-3.57753
-3.42146
-0.203472
-1.31483
-1.47794
-6.53389
0
-3.61054
0
-5.87644
-1.68454
-3.07511
-1.42717
-5.96785
0
0
-0.453255
-2.12073
-0.995092
-1.51561
-0.235468
-4.46366
0
-5.62908
-0.904777
0
0
-6.03947
-0.361688
-1.94016
0
-3.04185
-0.57553
0
0
-0.902061
0
-2.86297
-0.481634
0
-0.919612
-4.30939
-0.762641
-2.10253
-1.70096
-3.5374
0
-3.53255
-1.18377
-1.97476
-1.82395
-4.11108
-3.18794
-1.75713
-4.12967
0
0
-2.14137
-0.046274
-1.32038
0
-0.759411
0
-3.76854
0
-8.04188
-0.809417
-1.04649
0
0
-0.616053
-1.17287
-4.40446
-2.61359
-6.80298
-0.587362
-10.0251
0
0
-3.65987
-4.69362
-1.75851
0
0
-4.00426
0
-5.13255
-0.0154391
-0.327773
-0.718182
0
0
-1.32638
-2.63609
0
0
0
0
-5.78325
0
-6.47486
0
-2.35064
-3.3063
-0.582916
-3.6294
-2.09684
-3.19408
-0.974584
-1.52971
-0.942542
0
-0.503785
0
-4.58957
0
0
-3.04157
-3.39178
-0.101563
0
0
-5.15085
-0.140897
-8.01228
-1.57702
-2.11321
-0.742736
-0.698011
-4.63687
0
-0.243246
-1.3778
0
-3.59909
-1.12535
0
-3.86998
-1.60757
-6.292
-0.590578
-7.79946
0
-9.77983
-2.04435
-7.2254
-1.27632
-0.168914
-1.5602
-2.98681
-5.29073
0
-1.8471
-4.17964
0
0
-4.96739
-1.61689
-0.188662
-3.68871
-0.295743
-2.38267
-2.13567
-1.06789
-0.238438
-4.24414
-2.72343
-3.22494
-1.78843
0
-0.079925
-0.840951
-0.674166
-3.84649
-0.995877
-4.36674
-3.97865
0
-3.40447
-0.857237
-4.49568
0
-3.32625
-0.109826
-4.16252
0
-5.77214
-1.2987
-3.90173
0
-3.55288
-0.1253
-2.23363
0
-1.16466
-4.9154
0
-4.9488
0
-6.8172
0
0
-1.58998
-1.53242
-2.99924
0
-1.80979
-0.880805
0
-2.65703
-0.60108
0
-3.33635
-0.026133
-0.0247241
-1.26565
-0.793363
-6.03531
0
0
0
-2.56421
0
-3.12205
0
0
-3.03117
0
-1.7656
-0.147656
-3.49144
0
0
-2.19169
-0.835745
-1.35318
-2.99644
-3.44765
0
-1.41404
-4.14802
0
0
-4.39702
-4.82392
-6.14601
-3.78472
-2.04763
-3.65959
0
-7.29331
-1.91469
-5.74135
-0.365869
-4.961
-2.03103
-1.33486
-0.0415308
0
-0.59364
-4.49221
-0.641785
-7.58981
-1.95521
-8.60026
0
-8.66329
-1.96712
-0.0504396
0
-0.990923
0
0
-7.8179
-0.358128
-0.714691
-1.24352
-5.20377
-4.15286
-0.175402
-4.46065
0
0
-0.625331
-1.43461
-1.00331
-1.19132
-1.74268
-0.11477
-11.9059
-1.30489
-7.37373
-0.157322
-4.88478
-0.446072
0
-0.653464
-4.50719
-0.833815
-1.34365
-5.0107
-0.599252
-0.296552
0
-0.550532
-1.43584
-5.52464
-0.785859
-5.59842
0
0
-5.13301
0
-1.69577
0
0
-5.58083
0
-8.21991
0
0
-3.11146
-3.55695
-0.696518
-0.779391
0
-1.21662
-2.66223
-3.63379
-0.306959
-2.69822
-7.51151
-0.275333
0
-2.61311
-6.28675
-2.16275
-2.44122
-0.741851
-2.9042
0
-6.21478
0
-4.18956
0
-7.13728
0
-2.21641
0
0
-3.77572
-0.710937
-2.49281
0
-2.48135
-1.76033
-4.68128
-0.185939
0
-1.65528
-1.40647
0
-5.52437
0
0
0
0
0
-5.27375
0
-8.96071
-2.99242
-0.19224
0
-3.52989
-6.50326
-1.36578
-0.672426
-1.83953
-2.49553
-4.51341
-1.2847
-0.901846
-0.231205
-6.05449
0
-2.66663
-1.81712
-10.5832
0
-0.488729
-6.22222
-1.27687
-2.08493
0
0
-1.3448
-4.46144
-1.60827
-4.74734
-0.497712
-5.57501
0
-4.82992
-0.674447
-6.00144
-0.387759
-4.9464
0
-1.34112
0
-0.434499
0
-1.20737
-7.38136
0
-0.484965
0
0
-0.844776
-1.65634
0
-0.0606518
-0.458096
-0.244079
0
-1.87789
-2.84984
-3.33273
0
-1.48775
-6.75866
0
0
-7.03674
0
-5.71303
-0.295561
0
-2.31394
-5.44221
0
-0.791183
-5.81368
0
-7.54134
-0.596352
-4.31117
-1.72553
-2.39575
-1.42188
-0.462938
0
-2.30253
-0.858014
-0.758423
0
-1.12742
-0.451919
-4.59619
0
0
0
-5.89106
-1.33461
0
-6.42034
0
-5.43891
0
-6.47844
-3.46817
-0.135724
-3.89477
-1.021
-0.929012
0
-0.976188
-0.137428
0
-3.57355
-1.97297
0
-4.64454
-0.499471
-1.21616
-4.39998
-4.11347
-0.853092
-2.49776
-0.0731751
-0.61696
0
-1.95993
-2.99219
-0.709388
-1.87842
0
-1.01447
0
-3.74481
0
-1.02324
-2.78432
-1.04095
-1.82212
-2.96418
-2.73046
0
-4.50822
0
-6.10171
0
0
-0.697369
-2.89873
-3.25285
-1.29664
-1.22876
0
-2.12511
-0.776938
-4.65617
-4.299
0
-0.349523
-6.54763
-2.55812
-2.80802
-3.35461
0
0
-1.02084
-0.423362
-3.0384
-3.27984
0
-3.91383
-0.726577
-1.63392
0
-0.501584
-4.37482
-3.2575
-4.01928
-1.12546
-3.58448
-0.585296
0
0
-1.39244
-1.80914
0
-0.0271529
0
0
-8.11889
-2.75888
0
0
-4.16593
-1.20027
-1.18475
0
-3.30292
-2.12429
0
-1.58204
-4.54419
0
0
0
-0.275087
-0.573822
0
-4.60209
-0.0760119
-2.81507
0
-1.28725
0
-1.25791
-3.28612
0
-0.69517
-3.54229
-6.56725
-2.3314
-4.53375
-0.468712
-0.787194
-0.867665
-0.358014
-1.8953
-1.53748
-1.39465
-4.40368
-5.50552
-0.171359
-1.66759
-0.222805
-1.52954
0
-5.98808
0
-4.7645
-3.35606
-1.7634
0
-0.00768137
-0.637626
0
-0.642968
-0.461019
0
0
-0.53491
0
-0.235584
-6.52261
-0.627417
-0.532489
-1.84438
0
-4.82471
-3.2542
-2.2252
-1.00368
0
0
-4.76638
0
-0.82204
-5.45438
-3.65043
-3.71099
0
0
0
0
-4.68203
-0.892254
-6.6674
0
0
-2.52011
-3.48835
-3.62487
-1.18796
-0.505
-0.293188
-0.543239
0
-3.52558
0
-1.364
0
-0.759758
-1.16808
0
0
-1.27275
-2.29188
-2.10381
-3.79096
-3.12328
0
-4.52853
0
0
0
-3.33722
-1.65822
-0.218305
-0.114821
-4.11278
-0.910024
0
0
0
-0.0161944
-0.922694
-1.89319
0
-3.08024
0
-0.220648
-3.48118
0
0
-11.9647
-1.2539
-3.09673
-2.12832
-1.12673
-2.05864
-0.483215
0
-1.26589
-2.25373
-3.24545
0
-9.83771
0
-1.87916
-4.23418
-2.71972
0
-0.688985
-0.486784
-5.85915
0
-5.37844
-3.94545
-2.43332
-15.8739
0
-6.10552
0
-3.67177
-3.19455
-0.0364936
0
-0.378537
-2.91834
-1.39571
-0.436909
-2.16135
-4.37278
-4.79325
-1.2143
0
-2.82245
-0.533167
-3.75571
-1.24482
-0.885057
-0.0709691
-1.21931
-5.43475
-7.65672
-3.30421
-3.5711
-4.98676
-3.31786
-0.275272
-2.13054
-4.00638
-2.04397
-5.4
-1.07016
-1.3221
0
0
0
0
0
0
0
0
0
0
0
0
0
0
0
0
0
0
0
0
0
0
0
0
0
0
0
0
0
0
0
0
0
0
0
0
0
0
0
0
0
0
0
0
0
0
0
0
0
0
0
0
0
0
0
0
0
0
0
0
0
0
0
0
0
0
0
-0.412024
0
0
0
0
0
0
0
-0.340274
0
0
0
0
0
-0.085336
0
-0.320379
0
0
0
0
0
-0.523708
0
0
0
0
-0.212377
-0.495218
0
0
0
0
0
0
-0.354208
0
0
0
0
-0.0867247
0
0
0
-0.444741
-0.237917
0
0
-0.3623
0
0
0
0
0
-0.256581
0
0
-0.0521792
0
0
0
0
-0.741864
-3.86098
-5.18983
-3.87647
0
0
0
-6.17699
0
-0.299983
-0.475274
0
0
-2.25425
0
0
-7.00517
0
-7.00942
-0.872803
0
0
-1.70985
0
-1.82505
-8.26574
-0.965241
0
0
-5.05307
0
-5.57308
-2.82064
0
-5.01489
-3.21683
-1.75599
0
-1.14468
-0.405171
-0.477777
-3.63698
0
0
-0.0634838
-0.943631
-1.42113
0
-3.74355
-6.70843
-2.28101
-3.71217
-2.21278
-4.17578
-2.13775
-7.17205
-2.36875
0
0
-7.58319
-2.30412
-1.73471
-5.14074
-0.587459
-2.2056
-3.66407
-0.649368
-8.94695
0
-3.87665
-1.17578
-2.4981
-6.89507
-0.379594
-0.602979
-6.60619
-0.769515
-6.40394
-1.42998
0
-7.98588
0
0
-3.58103
-3.47354
0
-0.2486
-3.42397
-6.86554
0
-5.57349
0
-5.2531
0
-2.40865
-3.63872
-2.00908
-6.39736
0
-3.45449
0
-1.0982
-6.7275
-1.02521
-0.176495
-2.88208
-0.0541658
0
-0.83852
-4.46439
0
0
-1.99094
-3.31046
-2.03771
-0.201492
-1.1318
0
-3.83117
0
-0.100057
-5.80879
0
-2.62838
0
-2.13804
0
-1.17106
-1.24327
-1.08429
-2.91914
-7.21914
-1.23796
-4.72012
0
-0.437061
0
-2.98084
0
-0.789266
0
-2.82989
-0.893792
-0.282373
-1.22257
-2.01608
0
-0.999188
-0.237878
-2.02739
-2.76358
-1.91677
-3.15635
0
-7.37925
-1.70148
-0.912759
-4.96446
-0.201412
-0.670838
-2.00797
-2.01208
-0.223796
-0.744534
-0.99942
0
0
-2.45029
-3.05763
0
-2.25989
-0.342662
-6.25631
-1.59479
-4.30682
-1.44432
-9.55946
-3.60417
-4.0746
-4.3106
0
-4.34785
-0.896663
-6.59991
0
-3.70518
0
-4.48611
-0.632031
-4.78387
-0.841254
-2.0401
-0.763265
0
-1.37609
0
-2.67022
0
-6.20212
-1.44136
-4.32511
-2.25809
-6.38321
-3.1901
-6.22891
-1.24419
-7.60316
-0.542223
-0.560275
-0.467033
-9.73293
-0.882648
-7.7321
-2.67174
-1.46704
0
0
-1.61344
-0.500734
-0.575135
-1.55212
-5.89106
-0.135653
0
0
-7.86761
-1.25043
-0.393689
-2.60066
-2.68536
-1.21024
-4.63761
-0.389077
0
0
-0.340059
-2.74775
-1.69769
-4.14417
-1.10289
-4.77171
0
-3.99362
-2.05233
-5.09716
0
-1.97713
-2.38273
-5.57156
0
-1.07493
0
-7.1042
-2.1837
-0.279601
-2.48857
-2.17493
-0.875257
-3.86824
-2.37703
0
0
0
0
-6.03543
-0.710789
-6.64495
0
-2.23772
-5.71111
-5.60637
-10.0855
-1.28034
-5.62558
-0.633307
-4.29504
-4.88511
0
-0.100345
0
-2.40548
0
-1.4433
-5.08892
0
0
-0.132848
-1.19282
-0.368599
0
-5.16755
-1.86917
0
-1.7348
-4.76709
0
-3.32846
-8.8365
-0.839107
-2.92773
-1.31832
-5.71543
-0.560416
0
0
0
0
-0.134886
0
-4.22842
-0.0120677
0
-1.26127
-4.79131
-1.3786
-0.792648
-6.88021
-2.71366
-5.54496
0
-1.69251
-2.61189
0
-1.78094
-3.88799
-0.502275
0
-0.421551
0
0
0
-6.5155
-0.612644
-5.33192
0
-1.46
-1.49541
-5.09077
0
-1.10217
-0.686559
0
0
-2.46454
-3.09229
-0.544329
-2.90291
0
0
-4.5097
-0.585912
0
-3.55288
-1.98572
-9.53646
-5.59104
-0.334071
-8.05119
-2.12885
-2.28923
-6.43973
-0.188665
-3.55752
-0.33795
-0.998027
-0.238843
-0.992494
-6.51011
-2.02031
-2.41308
-0.383939
-4.43768
-0.904593
0
-0.971646
-6.38556
-0.794361
-1.93406
-2.34278
-2.43566
-1.79178
-5.95177
-2.51393
-2.5849
0
-5.06132
-6.09411
0
0
0
-0.0133361
-0.945843
0
-0.418239
-0.985811
-6.24564
-2.05149
-2.50868
0
-4.45608
0
-3.09643
-1.61853
-2.32088
-3.21583
-3.32602
0
-2.85797
-0.8795
0
-0.291548
-3.88561
-1.70612
-4.75915
0
-1.81235
0
0
-4.18306
-1.06141
-0.281066
0
-1.20273
0
-5.63288
0
-5.99179
0
-2.78998
-0.461144
-3.9109
0
-1.96026
-1.14938
0
-1.58955
-0.12098
0
-6.9795
0
-2.44924
-0.25334
-5.00629
-1.94796
-5.75109
0
-10.5153
-6.34774
-1.36046
-1.90225
-1.6115
-1.87997
-3.86156
0
-4.64674
0
-0.27199
-3.65946
0
-0.0704163
-0.913693
-1.34785
-5.14915
-7.19974
0
-0.861477
-2.03259
-3.66935
-4.08166
-4.16682
0
-4.26351
-1.70431
-5.30094
0
0
-10.0145
-2.73749
0
0
-0.862176
-2.06314
-2.56496
-6.97308
-5.35588
0
0
-2.50404
-1.29833
-2.84314
-1.36976
-2.76099
-2.43344
-0.915277
-0.520234
-0.340664
0
-5.07545
-0.619329
-0.0381238
-8.86202
0
-8.0488
-1.40699
-3.3403
-0.370604
-1.52831
-0.225838
-8.46412
0
-4.04836
-0.809245
-0.640717
0
0
-5.41198
-0.626172
-7.84291
-0.192183
-2.11609
-0.480352
-4.23807
-5.28564
-0.889939
-7.72482
-0.196395
-5.80498
0
-0.00958479
-4.0717
0
0
-5.33013
-1.23965
-2.55775
-3.89351
-3.12144
-1.14904
-3.6856
0
-0.0285972
0
-0.621223
0
0
-0.0339595
-0.718761
-4.32683
0
-1.2802
-2.17745
-6.61409
-5.80546
-0.491158
-7.62709
0
-8.61947
0
-1.51776
-5.05651
-4.05516
-7.22065
-5.20133
-1.20582
-0.491406
-4.84479
-1.2554
-1.76625
-0.649857
-1.27324
-7.18531
0
-7.47344
-0.313677
-2.15756
-2.06422
-5.09804
-0.120751
-7.18763
-3.12884
-0.310563
-11.4353
-0.975411
-1.39872
-5.08811
0
-5.73429
0
-1.04056
-6.65197
0
0
-5.22723
-0.561265
-4.12259
-7.39598
-2.60014
-6.09655
-0.110735
-2.06659
-1.93682
-2.87162
-0.726248
-0.100734
-6.62234
0
0
-1.18462
-3.95763
-1.08358
0
0
-0.892782
-1.41164
-0.810185
-1.34593
-5.07844
0
-2.18453
-3.76637
0
-3.35737
-2.98926
-3.56843
0
-0.779381
-1.08498
-0.193572
-1.8692
0
0
-7.0054
-0.235669
-1.13664
-5.03516
-4.04361
-2.09623
0
-0.428468
-0.776425
0
-2.27611
0
-4.04492
-0.408385
-1.73946
0
-5.82864
-3.86575
-0.384604
-4.95686
0
-7.70908
0
0
-0.260163
-5.01789
-1.16346
-1.66343
-1.93338
-0.0617855
-2.38853
-0.30114
-1.45583
0
-2.10667
-0.863677
-2.45811
-2.90113
-0.431905
-0.32458
-0.072179
-4.7462
0
-6.77368
-1.04397
-6.20137
0
-2.50789
-0.417294
0
0
-6.25392
0
-2.37783
-0.149185
0
-4.49169
-2.71427
-2.56409
-1.68973
-7.75173
-6.07623
0
-5.3512
-0.222106
0
-5.57391
-2.66454
-0.0127914
0
0
-4.21247
-3.02915
0
-2.85444
0
-1.6246
0
-2.11117
-1.89267
0
-6.477
-3.57534
0
-7.054
-1.98285
-4.92907
0
-3.21644
-0.536828
0
-0.915129
-2.5763
0
-2.6345
-1.98773
-1.77986
-2.324
-0.617291
0
-2.56674
-1.90185
-5.86239
-1.03921
-1.64901
-2.4068
0
-3.41001
0
-0.573161
-7.15855
-2.92929
-1.64311
-3.56074
-1.54702
0
-4.81702
-2.56189
-0.331507
0
-2.58875
-1.22622
-3.27088
-4.34174
-4.19168
-1.12192
0
-4.19643
-1.688
-5.12423
-3.79068
-1.53047
0
-5.01245
-1.76308
0
0
0
-0.808747
-2.19112
-4.54
-0.45803
0
-2.99964
-3.65463
0
0
-4.7679
-4.29233
-0.776903
-3.39428
-5.76075
-0.68767
-4.86791
0
-1.15745
-4.95925
-0.0483892
-1.27436
0
-3.18525
-4.15655
-1.77984
-2.83208
-1.10836
-0.00256682
0
-2.04884
-10.6565
-4.54092
-2.55683
-0.812377
-3.39092
-1.42004
-1.76567
0
-3.72097
-3.54378
-3.79606
-1.58311
-4.29478
-2.99097
-6.76386
-2.74839
0
-2.74131
-2.17214
-0.886896
-2.88459
-2.35012
-4.83021
-0.894893
-5.44617
-2.28039
-5.87064
-3.60823
0
-12.8903
0
-5.81889
-0.0305718
-1.28067
-0.77813
0
-7.46758
0
-0.834272
-1.61339
0
-0.272591
-3.69836
-1.10744
-8.34897
-0.0223249
0
-2.39422
-5.32803
-1.36297
0
-5.22484
-1.32078
-3.21065
-2.82177
-2.17559
-4.65079
0
-1.02587
0
0
0
-0.781467
-1.54912
-2.94871
-5.79042
-4.09792
-4.27444
-4.4137
-7.92888
-5.78208
-3.94682
0
0
-1.21417
-4.25522
-3.57005
-5.0493
-1.00165
-2.34284
-7.30062
-4.02891
-6.67621
-0.163438
0
-1.36479
-1.04628
0
-1.42553
-0.434101
-2.85588
0
-0.014671
-4.20513
0
-4.0482
0
0
0
0
0
0
0
0
0
0
0
0
0
0
0
0
0
0
0
0
0
0
0
0
0
0
0
0
0
0
0
0
0
0
0
0
0
0
0
0
0
0
0
0
0
0
0
0
0
0
0
0
0
0
0
0
0
0
0
0
0
0
0
0
0.115649
-1.34039
0
-1.51608
-0.579798
0
-1.44159
-2.33756
0.0438305
-1.15563
0
-1.36054
-0.745601
0
-0.783255
-1.11397
-0.562272
-0.462846
0.00806354
-1.23035
-0.699378
0
-1.20899
-1.18291
-0.0474027
-0.905072
-0.229514
-1.31212
-0.711111
0.0251314
-1.1851
-0.51597
-0.0834855
-1.40797
0
-2.67596
-0.989144
0
-1.48342
-0.182426
-0.940352
-2.59631
0
-0.517916
-4.09868
-0.934686
-0.676969
-1.01889
-0.475803
-1.82307
0
-3.86188
-1.21398
0
-3.44239
-0.116701
-0.358786
-2.71842
0
-0.129993
-1.52124
-0.0430111
-0.170826
-1.11863
-6.47255
-0.773203
-1.00153
-0.0131924
0
0
-4.07709
-4.35434
-0.740856
0
-1.10479
-11.4202
-0.0758227
-5.78246
-1.69711
-6.0815
-3.2167
-5.79239
-2.01326
0
-5.45082
-0.354143
-1.64773
-3.12239
-4.08507
-2.35235
-0.981261
-3.25414
-4.54871
-0.473995
-1.93456
0
0
-6.5443
-0.103295
-2.14475
0
-2.0695
-2.37616
-2.05669
-5.60968
-5.82695
-0.394415
0
-4.81202
-3.44639
-5.54749
-1.47053
0
-1.39455
0
-8.36433
0
-0.707077
-1.37092
0
-0.884482
0
-1.65644
-4.35681
-0.842819
-0.451177
-6.78778
-4.3077
-2.55811
0
-5.02889
0
0
0
-1.50865
-0.00666977
-1.23881
0
-2.27763
-0.987284
-0.209961
0
0
-4.69971
-1.19465
-1.93021
0
-3.62809
0
-0.0303274
-1.55692
-3.65332
0
-0.682823
0
-2.46808
-1.86279
-1.93026
-3.48285
0
-3.8085
0
-0.230183
-2.51999
-2.20791
-3.53688
-1.56274
-0.0844036
-5.53274
0
-3.38016
-0.0191949
-4.06756
-2.02731
-5.72817
-3.55346
-1.40616
-1.93825
0
-2.57826
-6.35318
-2.0625
-3.25406
-3.33349
-2.64758
-2.52608
0
-2.41123
0
-5.68085
-1.6146
-2.32797
-0.969136
-2.48967
-0.565439
-2.3247
-1.87866
0
-8.64743
0
-7.9306
-0.384579
-7.26992
-5.68408
-3.15083
0
-0.0200534
0
-8.42606
0
-2.29513
-2.27877
-3.00837
-1.96219
-0.223246
-3.72937
-1.06418
-6.88299
-0.812845
-1.42659
-2.34487
0
-2.46211
-1.00492
0
-3.12691
-2.88022
0
-2.17415
0
-4.32206
-3.79587
-3.78035
-1.13507
-6.13178
-0.151308
-1.6796
0
-0.391736
0
-0.826789
0
-1.06081
-1.0399
-0.741612
0
-3.65642
0
-0.627392
0
-0.271267
0
-2.78991
-0.166648
-2.52921
-6.78716
0
-3.42329
-2.17008
-2.23768
0
-2.11533
0
0
-7.91212
0
-0.726746
0
-0.426023
0
-0.629919
-0.30267
-2.16194
-0.274718
-5.44008
-0.704448
-1.56642
0
-3.60083
-1.26658
-3.19117
-3.71416
-1.70182
-2.98375
-3.62047
0
-1.39452
-5.87489
0
-10.9833
0
-0.5917
0
-1.9206
-2.09276
-2.98474
0
-1.49933
-5.92522
-0.809214
-5.8676
-1.05029
-3.36544
0
-0.992646
-3.52417
-4.683
-4.32227
0
-1.1172
-1.49148
-1.81115
0
-2.38501
-1.28755
-3.90235
0
0
0
-8.48714
-2.50022
-1.52592
-1.66292
-0.706802
0
-8.80107
0
-9.40684
-5.24043
-1.04898
0
0
-5.45548
-2.52028
0
0
-2.33265
-3.061
-4.43712
0
0
-4.00726
-1.27822
-3.57378
-1.10113
-0.56526
-1.75175
0
-1.85198
0
-1.52605
-4.63535
-0.956996
0
0
-1.25148
0
-4.23528
-0.569912
-2.36234
-0.253311
-7.3672
-5.06952
-0.565147
-7.87231
-2.43244
-1.46035
-0.246141
-6.7018
0
-2.57134
-1.10663
-3.40747
0
0
0
-5.75065
0
0
0
-8.96403
-1.6969
-2.81046
-1.8565
-2.49313
-10.6054
0
-4.98424
0
0
-3.58868
-0.423558
-6.42191
-1.96408
-3.11143
-4.31836
0
0
0
-1.06385
-1.66154
0
-5.267
-1.75886
-4.46309
0
-2.34362
-2.07679
0
0
-7.01099
0
-6.429
-0.505343
-2.78935
-4.95917
-1.38871
-7.50182
-0.448283
-0.347042
-1.58672
-10.7687
-0.13405
-3.73887
-6.46833
-1.5178
-6.23338
-2.36112
0
-5.2594
0
-2.59684
-1.99148
0
-3.27615
0
0
-2.51125
-7.47421
-0.226775
0
-1.74151
-2.4945
-0.252856
-4.44187
0
0
-2.10692
-2.7841
-1.88231
-1.21118
0
-3.72658
-1.65001
-3.31652
-3.52304
-1.41061
-4.31712
-3.03266
-4.1013
0
-3.1477
0
-2.01141
-1.78199
-4.50172
0
0
-7.08071
-2.19114
0
-7.25213
0
-7.51761
-4.94619
-1.55169
0
0
-2.5546
-6.33335
0
-3.51466
0
-1.56063
0
0
-1.51732
-3.00554
0
-3.534
0
0
0
-5.48567
0
-3.65971
-4.00703
0
-5.49126
0
-1.0926
-2.62421
0
-0.169498
-0.150707
-4.48553
-2.0548
-1.01711
0
0
0
-1.59777
-1.01803
-6.03947
-9.45849
-1.72183
-1.49287
-0.700054
-2.10947
0
-1.74474
0
0
-2.10658
-2.79387
-1.43544
-3.53567
0
0
-3.73825
-2.28843
-0.599099
0
0
-1.87542
-7.25058
-0.723462
-0.0687928
-4.67421
-2.25428
-6.23646
0
-2.2654
-2.40853
-0.580633
-1.57548
-1.22712
0
0
0
-3.40305
0
-1.38844
-0.291953
-0.815007
-0.358179
0
-2.11293
-3.15937
0
-7.1339
0
-0.71074
-6.94994
-0.297192
-1.57658
0
0
0
-0.743267
-0.0584337
-2.25276
-3.27635
-0.824043
0
-0.334211
0
-2.72646
-4.72
0
-1.07207
0
-3.21162
0
-5.75398
-6.02953
-1.45286
-4.2883
-5.31967
0
-0.589036
-5.03603
-2.41337
-5.44536
-0.0491185
-5.44349
-0.5836
-2.51872
0
-4.66481
0
0
0
0
0
-3.22353
0
-2.15813
-5.09988
-2.01869
-3.28667
-2.43142
-1.08713
-1.30553
-3.38716
-0.354445
-0.855925
-1.66697
-1.47484
-0.31449
0
-1.71775
-1.0928
-5.01649
-0.189243
-0.321527
0
0
-6.40321
0
-2.22728
-1.38941
-0.591053
-4.66356
-4.18675
-4.36274
-1.28978
-0.849977
0
-0.49352
-0.0319833
0
-5.90728
0
-1.94216
-6.25677
0
-1.0493
-6.24305
-1.98606
0
-6.55281
0
-5.09931
0
-6.38678
0
-0.539604
0
-0.589624
-3.78773
0
-3.92185
-1.21188
-4.00704
-1.74012
-2.04195
-7.15973
0
0
-3.41881
-8.21039
-3.36172
-2.28502
-0.374758
-4.53753
-1.04253
-2.04989
-1.07034
0
0
-2.51962
-2.27273
0
-0.370828
-1.46637
0
-0.0417556
-3.12624
-1.00633
-3.14172
-0.445011
-1.1074
-2.67409
-3.94957
-0.917045
-3.0091
-0.322081
-5.3013
0
0
0
-4.16346
-2.51727
-0.227733
0
-4.89409
-0.616852
-3.00443
0
-1.45519
0
-5.17438
0
-4.12549
-1.43257
0
-2.76003
0
-1.24664
-2.62648
-0.738909
0
-2.18074
-0.404786
-2.79347
0
0
0
-1.81032
-1.51409
0
-3.83624
0
-3.98354
-0.778234
0
-0.637918
-1.44846
0
-2.35226
-0.946782
-8.66986
-4.60926
-5.63693
-10.0555
-0.389185
-7.20145
-0.0878875
-6.82009
0
-5.57117
0
0
-9.40083
-1.14537
0
-0.907905
-3.66922
0
-3.16302
0
-0.0561198
0
-4.42187
-1.32639
-4.68218
-4.33708
-2.14355
-1.94262
-0.468852
0
-1.85151
-2.7335
-0.0492871
-0.432981
0
0
-0.166625
-0.233384
-1.15526
-0.70913
-0.736156
0
-6.26734
0
-4.45667
-0.456095
-0.223011
0
0
-3.58343
0
-0.107498
-2.34157
-1.78042
-0.642616
-1.8174
-0.784256
-6.94843
-0.370399
-3.73293
-4.05234
-2.94925
-4.43384
-0.380964
-0.0362494
-5.57031
-0.961006
-0.0734383
-4.87771
-0.0943874
-0.420244
-0.596202
-2.96983
-0.759607
-2.11459
0
-1.31955
-3.93408
-1.4794
-6.06875
-2.29058
-5.58617
-1.78159
-2.77722
0
-6.5209
-3.48564
-4.04496
0
-4.92085
-3.02816
-4.9649
-2.98847
-4.42914
-2.7189
0
0
-0.14523
-2.82142
-11.0732
0
-6.99719
0
-7.35487
0
0
-3.34862
-0.490002
-4.52021
-0.710468
-0.794745
-2.66776
-2.72482
-2.97711
-1.43475
-3.50579
-3.66964
-1.04891
0
0
0
-4.04112
0
0
-0.142474
0
-3.07471
0
-6.17864
-3.38801
-5.13865
0
-5.31503
-3.78444
0
-1.93312
0
-3.1501
-4.70655
-5.05621
0
-1.54409
-2.20003
0
0
-4.27944
0
-0.87308
0
-2.53817
-2.10427
-1.42507
-1.30649
-3.06846
-2.5492
-0.58521
-1.17362
-1.96428
-0.995311
-1.22985
-7.55216
-1.62666
-4.19381
-0.124521
-1.46548
0
0
0
-3.74697
0
0
-3.58108
-2.01462
-6.74994
0
-6.93334
-2.54736
-1.39714
-3.32146
0
-7.50067
-5.58569
-0.234184
-6.20612
-1.44079
-0.541054
-2.30892
-2.99977
0
-6.07861
0
0
-0.458927
0
-3.63905
-6.49664
-1.64514
-3.73323
0
-2.43713
-3.31924
-5.39227
-1.2306
0
-3.46222
-0.625299
-2.94215
-0.226193
-3.07017
-6.89416
-1.53721
-2.65653
-2.86443
-1.30676
-6.19455
-0.761809
-3.3189
-2.86006
0
0
0
0
0
0
0
0
0
0
0
0
0
0
0
0
0
0
0
0
0
0
0
0
0
0
0
0
0
0
0
0
0
0
0
0
0
0
0
0
0
0
0
0
0
0
0
0
0
0
0
0
0
0
0
0
0
0
0
0
0
0
0
0
-0.454942
-1.37112
0
-1.33723
-1.02542
0
-1.80466
-1.07059
-1.11803
-1.90041
0
-1.42065
-1.78995