<?xml version="1.0"?>
<VTKFile type="RectilinearGrid">
<RectilinearGrid WholeExtent="0 32 0 32 0 32" Origin="0 0 0" Spacing="1 1 1">
<Piece Extent="0 32 0 32 0 32">
<PointData>
</PointData>
<Coordinates>
<DataArray type="Float32" format="ascii">
0 0.524874 1.04975 1.57462 2.0995 2.62437 3.14924 3.67412 4.19899 4.72386 5.24874 5.77361 6.29849 6.82336 7.34823 7.87311 8.39798 8.92285 9.44773 9.9726 10.4975 11.0224 11.5472 12.0721 12.597 13.1218 13.6467 14.1716 14.6965 15.2213 15.7462 16.2711 16.796 
</DataArray>
<DataArray type="Float32" format="ascii">
-5.03879 -3.62163 -2.20447 -0.787311 0.629849 2.04701 3.46417 4.88133 6.29849 7.71565 9.1328 10.55 11.9671 13.3843 14.8014 16.2186 17.6358 19.0529 20.4701 21.8872 23.3044 24.7216 26.1387 27.5559 28.973 30.3902 31.8074 33.2245 34.6417 36.0588 37.476 38.8931 40.3103 
</DataArray>
<DataArray type="Float32" format="ascii">
0 0.524874 1.04975 1.57462 2.0995 2.62437 3.14924 3.67412 4.19899 4.72386 5.24874 5.77361 6.29849 6.82336 7.34823 7.87311 8.39798 8.92285 9.44773 9.9726 10.4975 11.0224 11.5472 12.0721 12.597 13.1218 13.6467 14.1716 14.6965 15.2213 15.7462 16.2711 16.796 
</DataArray>
</Coordinates>
<CellData>
<DataArray type="Float32" Name="Scalar" format="ascii">
0
0
0
0
0
0
0
0
0
0
0
0
0
0
0
0
0
0
0
0
0
0
0
0
0
0
0
0
0
0
0
0
0
0
0
0
0
0
0
0
0
0
0
0
0
0
0
0
0
0
0
0
0
0
0
0
0
0
0
0
0
0
0
0
0.258558
0.0953337
0
0.540536
-0.300049
0
-0.738245
-0.351916
-0.340227
-0.624291
-0.105909
-1.12797
-0.151382
0.18703
-0.405319
-0.110786
0.131286
-0.249831
0
-0.625923
-0.424812
0
-1.19207
-0.62231
0.777214
-0.801782
0
-0.734481
-0.263303
0
-0.536652
0.011485
-0.107201
-0.826516
0
-1.83808
0
0
-0.766197
-0.119537
0
-0.664478
-0.00438212
-0.327604
-0.499762
0
-0.151921
-0.481365
0.357859
-0.000583421
-0.207438
-1.22635
-0.57646
0
-1.37222
-0.299855
0
-1.20648
0
-0.0294945
-1.20546
0
0
-0.072848
-3.19194
-3.06516
-0.245007
-2.50323
-0.987422
-3.13935
0
-5.76716
-0.621662
0
0
-5.684
-4.34558
-1.80881
-3.75417
0
0
-2.15767
-5.18844
-0.65923
0
-6.46223
0
-3.80186
-2.33706
0
-0.672907
-3.86493
-3.9867
0
0
-0.641532
0
-4.52072
-1.0315
-8.89943
0
-11.8887
0
0
0
-0.514507
-4.57551
0
-5.27431
0
-3.29696
-1.71579
-4.4
-3.45504
-5.02574
-6.17612
0
-2.33918
-2.53105
-3.30816
-6.3447
-0.143474
-2.91265
-3.17256
-3.15499
-1.08931
-9.10418
0
0
-1.34782
-1.45596
0
0
0
-1.49697
-0.397175
-3.4945
-1.75888
-0.440784
0
0
0
-6.83168
-0.386019
-5.43975
-0.500743
-3.06129
-5.18683
-1.42686
0
0
0
-0.91658
-1.37218
-0.282219
-0.22705
-3.74835
-0.710284
-1.46399
-6.75631
-2.89057
-2.20088
0
-0.291968
-1.88863
-1.62784
-1.27944
-3.77299
0
0
-3.71465
-0.279496
-2.18341
0
-0.146904
-1.09596
-3.21197
-4.38837
0
-1.70193
-3.02844
-0.254585
-2.21544
-2.66428
-2.26048
-1.43614
-2.36677
-1.36045
0
-6.00754
0
-2.98317
-0.0444092
-1.77975
0
-2.07562
-1.2369
0
0
-3.15641
-0.021023
-6.17666
-1.77324
-3.22014
0
0
-0.148979
-1.13741
-5.83593
-1.05178
-5.14721
-1.55367
-1.97759
-1.64182
-0.798031
-3.01714
0
0
-3.87334
-5.80269
-2.51194
0
-2.01408
0
-0.382215
-3.46345
-0.727243
0
-1.53697
0
-1.13762
-1.53351
-2.93179
-0.203653
-0.0557094
0
-3.65954
0
0
-2.3653
-0.119334
-4.84427
-1.61144
-0.0366252
-0.364982
-0.698225
-2.56427
0
-2.62984
-4.06779
0
-4.55055
-1.62715
-0.544379
-1.72634
-0.411361
-0.562465
-4.9047
0
-2.26686
-0.263222
-6.92823
-0.00445615
0
-2.16768
0
-5.99033
-5.00415
-3.20987
-3.29277
-3.18253
0
-1.84704
0
-3.56805
-0.334312
-6.63149
-2.58439
0
-1.72724
-5.33648
0
0
-2.9232
0
-2.37823
-0.230623
0
0
0
-6.36495
-3.46822
-2.14387
-5.32692
0
-6.89806
0
-1.4878
0
-4.91088
0
0
-2.33118
-5.18969
-1.99397
0
-1.03038
0
0
-2.52627
-3.74381
0
0
-2.47769
0
0
-1.92646
0
-6.83418
0
0
-5.25147
-2.53105
-0.65835
-0.290448
-8.41065
-1.2264
-5.15508
0
0
-1.03713
-5.45127
-1.86979
-3.38475
-8.35825
-0.123246
-0.0473341
-2.86821
-4.1023
-1.75606
-5.29773
-5.72422
-3.94392
-5.7312
-0.149654
-6.79296
0
-0.933506
0
-0.334449
0
-3.61897
-4.91554
-0.964778
-5.46554
-4.48286
0
0
-0.234213
-0.0358179
-2.91213
-0.699755
-0.59061
-1.73302
0
-8.31044
0
-3.53615
-0.830924
-5.23954
-1.76831
-0.10331
0
0
-0.17639
-4.78122
-3.20676
-3.14662
-4.83077
-0.378523
-1.87746
0
-7.79536
0
0
-5.67869
0
0
-0.345595
-4.25132
-3.10162
-1.38509
-2.09169
-2.50231
0
-1.77624
0
-4.62327
0
0
0
0
-0.607689
-1.82443
-1.12822
0
-2.28275
-2.18394
-4.25246
-2.32541
-2.02773
-3.22979
0
-0.621599
-1.78162
-3.29663
-9.32841
0
-0.751722
0
-7.06455
-0.8095
-2.22313
-1.21386
-3.56384
0
-0.0015864
-0.282214
0
0
-2.57189
0
-1.15851
-0.843088
-2.06341
-1.94082
0
0
-7.81846
-0.421877
-3.63528
-0.240102
0
-0.143969
0
0
-1.17507
-0.678224
-4.85662
0
-13.2373
0
-7.52245
0
-0.318747
-5.08386
0
-0.426073
-4.51629
-1.38162
-2.69785
-3.56159
0
0
-10.0872
-0.823992
-0.830797
-4.02284
-2.11247
-0.52737
0
-3.34456
0
-1.51073
-1.77884
-4.90701
0
0
-2.06697
0
-3.18824
-3.33029
-2.08523
0
-8.73524
-2.50896
-9.42983
-1.72515
-1.19997
-2.61375
-1.83798
-0.478215
-0.892742
-1.9556
-0.69429
-0.760243
0
-2.94072
-0.185439
-0.192159
-2.88921
-2.63238
-7.82233
0
-3.4412
0
-2.87045
-2.67426
-1.18187
-2.47916
-4.69452
-2.29337
-1.34168
-2.69197
-1.81129
-4.06769
-1.92216
-5.06321
-0.977859
-8.01958
-0.22114
-3.07138
0
0
0
-5.47928
-1.07819
-6.49051
-1.71284
-1.00849
-3.89689
0
0
-1.53342
-4.45114
0
-1.86753
-3.51759
-0.918901
-3.55401
-0.192209
-1.4474
0
-0.758464
-2.95755
0
-0.267418
-2.25199
-3.89293
0
-2.88141
-1.02419
-0.986878
0
-0.448415
-1.50665
-3.38717
0
-4.54153
-1.21748
-2.94157
0
0
-2.19832
-7.83962
-2.84511
-0.501032
0
0
0
-3.29374
-2.81975
-3.00096
0
-0.532084
0
-2.50348
-4.73324
-3.13825
-0.431221
-1.3698
0
-3.89054
0
-0.175996
-1.77661
-2.40349
-4.6328
-2.28131
-2.04855
-2.02444
-2.91864
-3.84909
-0.33489
-0.896305
-4.64728
0
-4.35651
-0.152182
0
-2.6294
-2.54075
-0.340618
-1.68069
-5.53186
0
-2.10774
0
0
-3.52097
-3.83017
-3.16653
0
-4.55962
0
-5.03362
0
-6.64995
-0.307789
-5.08961
-0.0632088
-3.38744
-0.216447
0
-1.85194
-1.48815
0
0
-3.64613
-7.27559
-4.58623
-6.35194
-4.16254
-5.73131
0
-1.71649
-0.0775001
-0.626589
0
-4.0105
-0.364916
-0.0779441
-1.2631
-7.75761
-1.92831
-7.67791
-6.84705
-0.351658
-0.142067
-1.80491
0
-6.29819
-1.81034
-0.419387
-1.19911
-6.60798
-9.96046
-1.27975
0
-4.78199
-0.80251
-1.66875
-6.15592
0
0
-5.74857
-1.6578
-4.57837
-1.51296
-0.00570357
-3.64208
-1.4102
0
-2.95034
-1.06019
-2.65427
-0.0257798
0
-4.58081
-0.321316
-5.00278
-2.04393
-4.82405
-0.305971
-1.13655
-2.53457
-2.76269
-0.722721
-2.03025
-3.64785
-2.09536
-1.54863
0
0
0
-5.74732
0
-4.6837
0
-7.28859
0
0
-0.0698049
-3.26487
0
-8.99898
0
-2.28241
-0.740077
-0.323715
-2.61314
-0.700288
-2.21566
-3.73237
-0.634083
-4.0448
-2.11813
-3.18688
-0.355354
0
-2.33222
0
-2.33934
0
-2.46279
-1.12593
-3.41447
0
-3.21005
-2.73073
-1.69753
0
-2.18772
-2.56083
0
0
-0.943573
-1.35058
0
-5.44751
-0.66104
-2.32296
-1.51725
-1.19896
-3.38256
-1.05451
-0.0840986
-2.06263
-2.66066
0
-0.593068
0
-3.53091
-2.6675
-2.41663
-4.79664
-0.874201
-0.167175
-0.125406
-0.184742
-4.44979
0
-2.23134
0
0
0
-7.2754
0
-2.46098
0
-1.95257
-2.0141
-3.98854
-1.44898
-0.269581
-3.27727
-9.39028
-3.86211
-4.5354
-4.13667
0
-1.20337
0
-5.57995
-0.211625
-2.60115
-0.593497
-1.94083
-3.27905
0
-1.91409
-1.43232
-2.55097
0
-1.1165
0
-6.32613
-0.109168
-6.57143
0
-0.560864
-1.77735
-0.0621298
-1.11008
-5.7934
-1.18162
-2.93396
0
0
-1.89935
-1.01029
-2.92877
0
-4.37009
-3.50122
-2.9651
0
0
-0.16393
0
-5.0377
-2.36355
0
-3.02127
-4.1862
-1.22979
-1.73331
-1.94729
0
-7.02889
0
-1.14178
-1.14419
-4.23034
0
-0.519106
-1.61684
-0.89872
-1.43572
-1.15717
-0.0854868
0
-1.98932
-0.0189805
-8.93205
-1.80152
-2.73383
-2.43342
-4.87293
-3.90211
-6.89681
-0.960765
-4.22244
0
-2.35582
-3.42702
-2.46472
-6.18035
-0.725759
0
-0.177422
-2.71951
-0.819916
-0.687349
0
-1.49342
-1.84494
-0.741532
-2.19846
-3.29586
-2.76399
-3.60419
-1.33865
-0.185705
-1.21509
-0.813101
-1.50546
-6.62848
-4.43426
-0.504931
0
-1.72873
-2.75415
0
-2.2335
-2.18092
-5.77826
-0.913072
-4.77235
0
-7.42927
-2.00028
-0.282177
-0.457135
0
0
-3.60137
-5.5569
-0.691314
0
-0.917024
-0.015196
-0.116874
0
-0.775463
-2.0565
-0.414436
0
-7.25062
-2.46829
0
-3.61128
0
-8.92239
0
-7.62529
0
0
-7.76865
0
-6.03995
-3.01448
-5.98227
-0.250355
-0.265289
-3.34805
-4.35351
-7.67904
0
-0.427244
-2.12747
-0.608879
-3.38047
0
0
-2.49713
-1.08918
0
-2.14647
-2.04883
-1.94077
-0.840257
-7.78856
0
-1.25162
-5.50152
0
-1.65239
-0.602085
-11.4878
-1.52581
-10.3485
0
-8.66468
-5.21576
0
0
-0.547557
-2.67772
-10.9155
0
0
0
0
0
0
0
0
0
0
0
0
0
0
0
0
0
0
0
0
0
0
0
0
0
0
0
0
0
0
0
0
0
0
0
0
0
0
0
0
0
0
0
0
0
0
0
0
0
0
0
0
0
0
0
0
0
0
0
0
0
0
0
0
-0.0567865
-1.21755
0
-1.20433
-1.31499
0
-0.670059
-1.35152
-0.505169
-1.23978
0.0223043
-1.01814
-1.78025
0
-1.1988
-0.677816
-0.0801599
-0.718384
-0.0438684
-0.945773
-1.46774
0
-0.959372
-0.508521
-0.149227
-2.38774
-0.0223429
-1.98303
-1.00468
0
-1.41302
-1.31136
-0.23626
-0.93406
-0.451654
-0.274289
-1.06147
0
-1.04208
-1.07807
-1.7827
-1.69424
0
-3.07943
-0.605978
0
-3.23951
-0.46605
-0.399155
-1.2554
0
-0.201465
-1.94007
0
-1.04656
-1.68771
-1.23227
-0.731945
-0.0217839
-3.74791
-0.958824
0
-2.19663
-1.79135
-4.64748
-3.99477
-2.69251
0
0
-5.59959
0
-6.48174
-2.86423
-9.24402
-0.620855
-2.63545
-7.77958
0
-2.51894
-1.80744
-2.06632
-2.41489
-4.14599
-1.55888
-0.88327
-6.98538
-2.78619
-3.06672
-5.16479
-5.4369
-0.855633
-0.527771
-3.20708
-2.17276
-7.1803
-4.86672
-4.90007
-3.08177
0
0
-0.225799
0
0
-1.35841
-1.98374
-0.374357
-4.48892
-2.03391
-0.0599737
0
-0.720524
-1.27175
0
-0.117243
-0.581335
-2.64944
-3.96907
0
0
0
-1.02633
0
-0.877647
0
-4.14045
-0.383343
-6.24094
-1.13191
-1.33924
-3.72024
0
-3.43712
-0.916938
-2.18508
-1.23394
0
-2.61893
0
0
-5.27404
-5.05474
-3.92938
-2.1103
-1.90678
-0.377261
-0.921006
-0.898509
-0.740671
-0.971063
-8.18267
-5.58012
-0.665977
-5.05131
-1.11887
-10.2243
0
0
-7.36803
0
0
-1.26344
-1.06705
-3.83445
0
-0.897498
-1.69405
-4.23153
-0.316627
-3.94396
-2.74629
-1.88761
-1.0164
-3.5798
-3.16704
-2.29366
-2.63325
-1.52743
-0.657065
-3.94459
-0.555543
-2.59701
-1.47025
-4.30082
-1.49958
-3.31393
-0.105028
-5.24292
-0.646827
-3.03527
0
-1.66272
0
-6.7652
-0.104099
-9.25203
0
0
-5.39589
-7.04488
-0.868648
-0.363778
0
-4.6004
-2.01344
0
-4.52693
-7.70868
0
0
-0.030048
0
-3.16669
0
-3.40195
-2.23796
-0.859343
-5.65496
0
-4.29944
0
-3.53094
0
-5.76476
0
-2.83166
-0.80514
-2.92067
0
-6.30154
-0.386478
-3.15632
-0.516182
-2.50705
-3.32294
-2.60581
-4.93554
-1.51813
-0.231816
-0.623217
-3.63226
-1.2532
-5.30812
0
-4.91804
0
-5.31119
-2.93367
-0.822266
0
-4.88565
-1.54496
-1.15501
-0.388803
-2.28375
-0.511775
0
-2.83072
0
-0.611505
-4.0757
-1.46608
-1.59149
-0.0144129
-5.64966
-0.718308
-8.57623
-3.76586
-2.41419
0
0
-0.499495
-8.15789
0
-5.4933
-1.66436
-2.06149
-0.834152
-0.269032
-2.57572
-1.82854
0
-5.28034
0
-0.176168
-0.873721
-0.809446
0
-1.6246
-6.02707
-1.24622
-3.85665
0
0
0
-3.26902
-1.29194
-0.395809
-7.90219
0
-2.82442
0
-5.83128
-0.970441
-0.356938
-0.523986
-2.12985
-1.55577
-0.582013
-0.21397
-0.947824
-4.14506
-5.65984
-1.41795
-2.8379
-5.88974
0
-7.27873
-5.65239
-2.96243
-4.49143
-5.17797
0
0
-5.35727
-3.31026
0
-1.27322
-7.87745
-1.63069
-6.326
0
-2.79332
-4.65441
-1.9527
-0.0969912
-2.66186
-0.0721412
-6.13681
-1.1818
-7.31971
-0.488256
0
-0.591727
-0.467497
0
-1.2384
-2.12215
-7.53237
-2.44175
-3.91218
-1.55798
-2.27645
-3.53185
-4.40058
-1.86527
-1.45975
-0.537743
-7.49585
-3.11036
-1.01607
-1.71654
-2.03837
-4.46476
-0.517595
0
0
0
-5.46746
0
-0.973987
0
-2.41485
-5.8505
-3.01333
-0.672577
-1.36404
-0.349992
0
-6.31172
0
-5.27833
-1.40483
-0.264326
0
-0.0175627
-1.25334
0
-5.43288
-6.46072
-1.05259
-1.64352
-0.318854
-0.59684
-0.370568
-1.00243
-1.49143
-3.90399
-2.17343
0
-5.09395
-0.408559
-7.97446
-1.10892
-7.21052
-2.30873
-12.7924
-2.0723
-0.879624
-1.64007
-1.47128
-2.58072
0
-5.20112
0
-5.54259
0
0
-0.279955
-7.59854
0
0
-0.296633
-0.0540231
-0.539377
-0.0781673
0
-4.8976
-1.15229
-3.6017
-0.121642
-1.48916
-4.65131
-2.33619
-0.934418
-1.3414
-2.97932
-0.78402
-0.807321
0
-0.92546
0
-3.06315
-0.901727
-4.24645
-2.89819
-0.0853367
-6.83897
-2.05439
-0.189404
-3.31851
0
-0.205123
-0.149352
-0.176986
-8.28526
-0.760546
0
-7.38692
0
0
-1.91039
-3.58571
-5.18674
0
0
-2.24874
-0.618518
-1.73307
-0.980684
-5.31221
-0.61105
-3.93459
-2.00531
-0.988164
-1.69091
-2.66187
-2.22448
-1.18551
-2.90812
-0.0593344
-2.50665
-0.825266
0
-0.641643
0
-2.03931
-0.261201
-2.24081
-2.8819
0
-0.326661
-6.49683
0
-0.504902
-1.2451
-1.26036
-2.81222
0
-0.665962
-2.3559
-3.57589
0
0
-1.5382
-0.963402
-5.77084
-2.40969
-4.04078
-2.95238
-0.0970637
-0.174327
-0.627433
-3.15694
-0.622437
-5.66428
0
-2.7156
0
0
-3.31303
-0.809444
-2.05893
0
-4.37344
-4.29875
0
-1.8946
-0.835119
-0.298101
-6.57704
-2.16726
-2.2758
-2.82743
0
-0.0347965
-2.82513
-2.0668
-1.8271
-3.39291
-0.39861
-1.43535
0
-5.27966
-6.09801
-3.30922
-3.34374
-8.78663
0
-3.42749
-5.9415
-1.35148
-2.56814
-2.81159
-1.15704
-1.57222
-4.07859
-1.51012
-0.620631
-0.16639
-0.935619
-2.73962
0
-4.64533
0
0
-2.43901
0
-7.13403
-0.407786
0
0
0
-1.21189
0
-3.1029
-0.202527
-1.48929
-1.45587
-3.12302
-0.017671
-6.33464
-1.56024
-0.711844
-3.11306
-1.71237
-1.28249
-1.82585
-0.0860021
0
0
-2.68205
-1.02218
-1.80926
-3.48498
-1.27907
-2.9859
-1.22278
-3.60073
-1.8795
-3.55282
-2.09843
-0.790052
-4.62078
0
-2.57082
0
-2.97519
-2.73686
-0.566858
-1.70012
0
-3.00044
-0.626022
0
0
0
0
-0.0235245
-1.92863
-1.62381
-3.13946
-1.66791
-1.72882
-3.35726
-1.41072
-4.73336
-2.40757
-0.357864
-1.4366
-0.188188
-0.313147
0
-3.96283
0
0
-1.89084
0
-4.56455
-1.7955
-1.96206
-5.70264
0
0
0
-4.07951
0
0
0
-1.63995
-2.50331
-4.33554
-3.92681
-3.37735
-7.42531
-1.32982
-0.27942
0
-1.5634
-9.07122
-0.0522216
-4.34698
-1.30394
-0.0719769
-5.90369
-1.70234
-4.31152
-1.16679
-0.42573
-1.46789
-4.00297
0
-2.4349
-4.66753
-1.6548
-8.08837
0
-0.140405
0
-0.995722
-5.59727
0
-0.790229
0
-1.66088
-1.61414
-0.255434
-0.0290917
-3.06882
-2.56794
-2.26287
-0.62944
-0.856996
-1.16353
-3.92164
-7.31323
-2.63915
-1.7016
-1.68066
0
0
0
-11.5481
0
0
-5.52108
0
-0.211655
-1.66677
-2.12408
0
-0.256964
-1.10881
0
-4.33919
-3.69164
-1.71069
-0.980088
-1.39982
-3.18466
0
-5.93422
-2.77439
-4.735
-8.11799
-1.23101
-1.32934
-0.227991
-2.88058
-4.62768
-1.30299
-3.77061
-2.24734
-0.361662
-1.58751
-6.66045
-4.79702
-1.84412
-0.347399
-0.364249
-3.78722
-5.21111
-6.89894
-5.30646
-0.617386
-0.114048
-0.131127
-3.12955
-2.0253
-0.770849
-3.04741
-3.99264
-5.90653
-0.269087
-2.45257
0
-0.261666
-4.98967
-0.166631
-5.42259
0
-4.8813
-0.529891
-2.62739
0
-5.18571
-0.55029
-5.69613
-4.62344
-2.98546
-8.40121
-7.61547
-1.14936
0
-3.66377
-1.14965
-0.595702
0
-1.43998
0
-7.43407
0
-3.78902
-0.829585
-0.398036
-1.25549
-1.26177
-1.82549
0
-3.90988
-2.64885
-7.63026
-0.186873
-1.79981
0
-6.23177
-1.56193
-0.402094
-2.09794
0
-2.87843
-2.37268
-6.10028
-3.71861
-6.28102
-4.81852
-0.0810766
-5.25711
-0.0662175
-1.61194
-5.17999
-0.760368
-3.33087
-1.41018
-0.183474
-0.350759
-0.497875
-2.59724
0
-4.222
-1.20235
0
-1.83557
-5.35986
0
0
-1.55726
-1.11268
-3.94497
0
-0.171334
0
-6.73467
-0.502098
0
0
-8.65186
-2.67227
-0.0498565
-2.48524
-2.03415
-6.29799
-2.62631
-5.99264
-0.150833
0
-0.501832
-3.48876
0
0
-1.6757
0
-6.28089
-0.628068
-4.52862
-0.279232
-1.81976
-1.88117
-3.12229
0
-3.23888
0
-0.849612
-2.12721
-5.66664
-0.243529
-0.2966
-1.36036
-6.66981
0
-2.2289
0
-0.194738
-2.12637
-1.63149
0
-4.47713
0
-3.08419
-4.74163
-6.90382
-5.05049
-3.37358
-7.87624
-0.0559587
-3.82752
0
0
-0.947532
-3.67988
-0.531538
0
-0.445677
-3.94628
-8.20348
0
-6.89595
-1.24506
-0.523659
-6.10813
0
-4.56342
0
-3.95906
0
-0.219194
-3.81294
-1.09029
-7.76024
-1.26288
-2.91569
-6.28819
-3.08986
-4.25292
0
-0.655798
0
-4.5874
0
-1.80077
-5.52103
-0.845906
0
-3.72097
-1.33752
-3.87729
-1.34541
-2.50062
0
-6.23901
-0.486191
0
0
-4.42335
-7.18537
-2.9451
-4.19742
-0.962911
-3.57007
-0.27863
-0.139792
-0.256991
-5.61991
0
-5.4643
0
-0.909603
-1.44924
-8.43544
-1.7756
0
-1.45203
0
-5.96122
-1.44963
-0.798704
-6.04862
-2.08983
-6.02811
0
0
0
0
0
0
0
0
0
0
0
0
0
0
0
0
0
0
0
0
0
0
0
0
0
0
0
0
0
0
0
0
0
0
0
0
0
0
0
0
0
0
0
0
0
0
0
0
0
0
0
0
0
0
0
0
0
0
0
0
0
0
0
0
0
0
0
0
0
-0.555712
-0.240821
0
0
0
0
0
0
0
0
0
0
0
0
-0.0133371
0
0
-0.0157663
0
-0.234565
-0.436015
-0.15739
0
0
-0.277299
-0.333119
0
-0.0237098
0
-0.000101917
-0.033701
0
0
-0.276509
0
0
0
0
0
-0.203998
-1.05353
0
0
0
0
0
-0.555216
0
0
0
0
0
-0.144719
0
0
0
-0.132661
-0.22114
0
0
-0.0694666
-0.975566
0
-3.59535
-0.208661
-3.84704
-4.1609
-5.22513
-1.64945
-0.379098
0
-2.15018
-1.34244
0
-1.5889
-1.98833
0
-5.46318
-0.0684355
-1.17739
-2.93969
-0.573214
0
-5.0409
0
-0.412163
0
-3.72054
-1.35155
-5.41176
-0.874373
-1.36918
-0.000588332
0
-1.27919
-3.80222
-2.39029
-5.35234
-6.8786
-1.23354
-5.242
-0.0513885
-2.10812
-1.63812
-0.147891
-4.71999
-0.763227
-0.278033
-6.77488
-1.45202
0
-3.37318
0
-3.00047
0
-4.17271
0
-5.94899
-3.04321
-0.759143
0
-1.46578
-3.27514
-2.97609
0
0
-5.47525
-2.46496
-0.361519
-1.16819
-0.788251
-0.505702
-3.8859
-4.45058
-1.24157
-7.0484
-0.527883
0
-1.89573
0
-6.39514
-0.0654044
-6.83571
0
-7.49338
-0.101424
-0.275547
-1.40091
0
-0.945048
0
-2.44232
-4.16906
-5.57775
0
0
-9.04757
-3.53291
0
-2.18599
-2.84972
-5.69906
-2.53081
-5.96147
-1.79308
-3.72811
-0.456534
-6.72336
0
-3.99713
0
-0.949935
-5.31822
-1.55052
-0.692884
-3.21382
-3.79172
-1.72591
-1.61137
-8.35949
0
-8.50646
0
-1.2518
-1.91819
-7.15516
-0.466959
-3.30135
-0.403311
-1.0271
0
-0.126738
-2.54626
-5.17047
0
-0.784653
-2.50999
-3.42261
-1.76543
-0.692792
0
-5.16319
-1.70782
0
-2.21747
-5.58264
-0.92886
-0.578923
-1.5164
-1.16356
-0.181861
0
-0.079437
-1.57603
0
-0.101921
0
-3.4665
0
-3.63424
-0.0753244
-3.20941
-1.51981
-1.23451
-0.849748
-0.710231
0
-1.34748
-2.47178
-0.298916
-0.226357
-0.951087
-1.37576
-3.54258
-1.62696
-2.80016
-0.0885942
-1.9103
-0.316897
-6.2639
0
-3.9328
-2.7825
-3.53519
-4.33211
-3.28033
-1.77954
-2.07361
-1.19463
-4.59471
-0.142218
-5.18168
0
0
-3.49439
0
-2.0091
-7.34824
-0.353513
-3.77611
-1.47003
-0.791768
-0.613228
-0.255398
-0.827504
-2.92187
-7.90329
-1.06134
-4.20141
-0.820841
0
-3.69939
-4.27028
-2.44933
-2.97702
-4.81506
-1.4161
0
-1.30494
-5.79924
-1.26335
-11.274
0
-1.93776
-0.909903
-1.48108
-2.46854
-2.85189
-0.563176
-5.30001
-1.80061
-6.66017
-2.59449
-5.8641
-1.15074
-1.01926
-1.72959
-3.02004
-0.503054
0
-1.38661
-4.96579
-0.407148
0
-5.66163
-2.07728
-7.65844
-1.9583
0
-4.85811
-4.22005
-1.53803
-1.22276
-1.677
-1.75418
-2.34422
0
-0.434849
-2.51001
0
-5.02657
0
-3.31841
0
0
-0.97061
-3.07716
-0.772376
-4.32573
-0.741072
-0.375817
-6.70094
0
-1.31884
-4.35422
0
-7.2512
0
-3.84241
-1.41362
-5.31277
-0.779273
-4.14217
-0.864332
-0.814523
-2.55976
-3.79922
-0.0296979
-4.44373
-0.215429
-3.80541
-0.0503465
-3.8975
0
0
0
-2.035
-2.76587
0
-1.70439
-1.20977
-6.09593
-0.420546
-6.93311
-1.05065
-3.22172
-1.93505
-2.3154
-2.7111
0
-0.711211
0
-1.06732
-6.75359
-5.26875
0
-4.72082
-0.9238
-1.1463
-1.9056
-2.06903
-6.0942
-0.822052
-3.85408
0
0
-4.56497
0
-8.53605
-1.36488
-6.62818
-1.07026
-3.10504
-5.09424
-1.3704
-4.35488
-1.35721
-0.928031
-0.188551
0
0
0
-0.690105
-0.625101
-2.02999
-1.36166
-2.03977
0
-1.74869
0
-4.35395
-2.46707
-6.42809
-1.68479
-6.50536
-0.937306
-5.06454
-2.59717
-0.886855
-0.627933
-3.09196
0
-6.8108
0
0
-0.797092
-0.441956
-0.0953366
-2.39418
-0.0799437
-0.893311
-2.15703
0
-0.546563
-4.07734
-3.56718
-2.31715
-1.13936
-6.06671
0
-2.48337
-0.14734
-4.36027
-0.418568
-2.65075
-1.13537
-0.418291
-1.49423
-6.21663
-2.64661
-2.98715
-0.149784
-12.4479
0
-1.45085
-4.13517
-3.07556
-5.38032
0
-0.288043
-0.0730126
-3.65606
0
-2.4686
-1.61944
-3.77357
-1.4238
-4.87391
0
-1.30395
-2.46876
-1.23476
-5.67161
-1.29788
-3.15294
-0.0973818
-3.1216
-2.3452
-5.15305
-2.82991
-10.228
-4.09963
-3.34644
-0.158227
-2.24147
-1.8494
-3.62466
-7.23523
0
-9.17242
0
-3.06056
-3.67038
-2.06312
-0.962092
-5.69586
-0.151257
0
-3.48457
0
-5.2438
-0.758555
-0.798198
-0.579039
0
-4.82968
-0.310226
-3.53781
-5.69559
-7.66493
0
-1.46116
0
-5.9522
0
-7.36264
0
-8.2671
0
-6.52638
0
0
-7.1287
-2.55295
-4.27096
-3.6651
-1.91154
-3.87266
-3.39908
-2.04956
-1.70791
-2.69983
-0.244558
-1.58606
-4.52465
-1.29258
-4.09456
-4.01198
-3.6705
0
0
-0.059535
0
-0.155928
-6.97964
-2.81642
-0.491082
-1.17516
-2.74043
0
-4.75775
0
-4.4366
-0.836123
-8.95784
-1.54112
-3.10046
-0.362579
-4.54327
0
-1.10979
-0.599885
-2.85919
-2.8609
-1.1931
-1.58456
-6.75442
0
-7.05143
-1.69044
-0.492561
0
0
-0.607586
-0.0277233
-1.6303
-0.855231
-1.15377
-0.737307
-8.61061
0
-2.62696
-3.57744
-0.265664
-6.10609
-1.45863
-6.95802
-5.90653
-2.92805
-5.79347
0
-1.25973
-0.667584
0
-0.587085
0
-0.146047
0
-1.31259
-0.632898
-3.21686
-2.85115
-2.10983
-0.218565
0
0
-4.4423
-1.25075
-3.12507
-1.01838
-5.65006
-4.41854
-8.76641
-3.50139
-5.15207
-0.480498
-1.85236
-1.44013
-3.82371
0
0
0
0
-0.848966
-8.31588
-1.60956
-4.54779
-9.68109
-0.709945
-1.76668
0
-3.70017
0
-5.33761
0
-2.41741
-2.90197
-0.944075
-4.40638
-1.45109
-3.42647
0
-2.42302
-1.40452
-2.02377
-4.00552
-0.332307
0
-3.06693
-1.9648
-1.36758
-1.69488
-6.38332
-1.94857
-3.65012
0
-1.0639
-4.96702
-0.964857
-2.16914
-0.44892
-1.00281
-2.86354
0
-7.05048
0
-2.83617
0
0
-1.40281
0
0
-8.334
0
-11.2587
-1.72547
-3.39664
-6.69822
-3.64677
-0.583762
-1.3721
-0.714732
-1.38421
-3.29319
0
-0.208155
-0.792022
0
-1.4594
-0.300968
0
-2.3657
0
0
-0.390254
-1.536
-3.96055
-3.03097
0
-8.89393
-0.546047
0
-3.00821
0
-0.531778
-1.2922
0
-4.20141
-2.31055
-4.72836
0
-0.720194
-5.50873
-2.42268
-5.30615
-3.14092
-2.16043
-1.56658
-0.506502
-0.00664089
0
-2.53388
-0.666641
-3.08517
-0.618395
-3.30879
0
0
-8.62285
0
0
-0.278003
0
-5.69581
-0.588679
-10.9565
0
-2.28479
-2.0162
-1.59381
0
-7.50336
0
0
0
-0.416362
-2.81339
0
-0.0626
-0.509315
0
-7.06619
-0.855633
-0.55856
0
-1.94251
0
0
0
-0.134456
-2.88228
0
-0.598016
-0.35377
0
-1.19102
-3.18304
0
-6.51616
0
-1.47961
-0.0840948
-7.36268
-1.4964
-7.92397
-0.750398
-0.362268
-0.118236
-4.76118
-0.0144133
-4.88225
-1.37447
0
0
-0.41853
-2.93644
0
-1.829
-1.0375
-0.804979
-3.22311
0
-3.22769
0
-5.02665
-3.4202
-4.24751
0
-4.71486
0
0
-5.73013
-1.14997
-5.26183
0
-5.04722
-0.14879
-3.21554
-3.662
-0.821977
-5.6318
-3.30683
-4.40141
0
0
0
-0.414748
-2.18122
-3.31149
0
-2.00525
-1.63894
-0.169912
-1.59015
0
-3.61465
-1.80841
-0.0902596
-0.582023
0
-6.43456
-4.24999
0
-3.90002
-3.73714
-0.952479
0
-0.530068
0
-0.0163716
-6.24784
-1.5543
-4.37136
-0.614948
-2.10714
-3.77374
-2.52983
-3.07538
-0.441476
-2.95108
-3.462
0
-0.630568
-1.2678
-1.00414
-3.79588
0
-0.262604
-6.08662
-1.01583
-1.75409
-13.6033
-1.56703
-4.67362
0
-7.99791
-0.159192
-7.31702
0
0
-3.89607
0
-1.93335
0
-3.7663
0
-0.533146
-0.234849
-0.849711
-0.508138
0
0
-2.55224
-4.41633
-2.39665
0
-5.81589
-3.67196
-9.17238
-0.0672709
-3.29402
0
0
-0.830679
-0.551656
-0.32403
-1.02568
-2.41601
-4.59477
-1.16824
-7.8402
0
-4.75276
-0.196441
-5.07709
-0.223504
0
-1.00957
0
-6.89067
-0.710252
-4.69973
0
0
-4.3673
-3.90674
0
0
-0.218711
0
-3.06657
0
-0.88654
-2.03957
-0.0988229
-0.62002
-5.43404
-2.05472
-5.87153
-4.35303
-2.62208
-6.06793
-4.27057
-5.99536
-0.807441
-3.23569
-0.878421
-3.95712
-0.806374
-4.27797
0
0
-6.35644
-0.315777
-0.321988
-0.870445
-7.86043
-1.74949
-9.42941
-0.406733
-6.59164
-10.6351
0
-0.94275
-0.0158364
-4.74116
-4.48548
0
0
0
0
0
0
0
0
0
0
0
0
0
0
0
0
0
0
0
0
0
0
0
0
0
0
0
0
0
0
0
0
0
0
0
0
0
0
0
0
0
0
0
0
0
0
0
0
0
0
0
0
0
0
0
0
0
0
0
0
0
0
0
0
-0.276529
-0.847247
0
-1.07652
-0.42771
-0.169913
-1.25465
-0.283492
-0.0575849
-1.44058
0
-0.798235
-1.05983
0
-1.25885
-1.34236
-0.490873
-0.908743
0.0402574
-1.91235
-1.25705
-0.00405391
-1.09706
-0.676041
-0.712281
-1.64442
0
-2.09449
-1.18127
0
-1.01435
-1.32176
-0.421039
-0.204662
0
-1.18523
-0.49738
0
-1.84201
-0.488215
-0.19752
-2.24491
0
-0.412248
-1.35909
0
-0.205431
-2.17553
-1.01287
-0.715404
0
-1.86723
-0.870131
-0.448357
-3.13012
-0.299253
-2.24402
-1.5748
0
-0.357269
-1.76422
-0.097244
-0.309279
-0.387846
-2.61729
0
0
0
-6.03309
0
-3.16139
-0.2617
-4.73193
-1.10322
-5.2255
-3.15555
-1.48839
-0.400296
-5.71962
0
-2.17321
-3.16642
-1.96455
-6.72106
-0.599874
-7.8585
0
-3.4146
-6.91963
0
-0.515523
-4.56066
-1.81539
-0.914016
-4.52156
-0.602839
-6.89553
0
-3.10166
0
0
0
0
-1.07913
-3.05951
-3.76398
-3.58047
0
0
-10.2287
0
0
-3.28342
-3.65132
-0.0208593
-3.02651
-0.997682
0
0
-0.0352363
-0.681787
-0.974722
-3.92883
-2.32838
-3.15396
-0.814482
-4.09332
-0.692187
-0.767467
-3.40006
-4.28704
-1.93009
-2.19432
0
-0.0295172
-2.36045
0
-4.73119
-1.52163
-6.28347
-2.21882
-2.26824
-0.657451
-2.26669
-1.40593
0
-0.478416
-3.36688
-0.662237
-6.45888
0
-6.56397
0
-6.15746
-0.399614
-1.41569
0
-5.84558
-5.40962
0
-0.338317
-2.46624
-3.29267
-1.26625
-0.537874
-0.306435
-0.00818108
-2.76945
-1.6231
0
-0.505977
-4.13522
-2.63547
-4.78791
-6.2478
0
-1.97611
-7.75657
-5.69712
-0.666676
-2.80922
-1.82684
0
-2.12221
-4.79081
0
-6.99089
-0.640452
-1.35479
-8.35898
-2.31906
-6.98147
-2.9928
-2.15663
-1.03586
0
-1.30363
-2.99217
-7.51155
-0.171419
-3.18826
0
-3.06729
-2.94178
0
-3.24864
-4.19886
-1.10522
-2.3643
-0.288936
-4.76185
-1.38884
-1.04426
-1.59085
-9.16747
-6.13523
0
-7.48212
-1.12742
-6.00511
-0.456698
-2.21281
-3.27403
-3.60788
-5.44778
-3.98627
-0.134731
-4.52384
0
-5.90783
-0.83446
-3.39636
-2.75643
-2.03834
-2.15618
0
-5.72055
-7.41421
-1.03398
-1.31488
-2.97414
0
-3.04011
0
-2.74275
0
-7.72655
0
-0.382508
-1.85559
-0.919794
-5.8272
-4.84705
-1.43195
-2.50486
-1.73814
-1.84489
-2.21867
0
-3.98363
-0.62356
0
-3.61626
-0.61085
-5.53447
-1.14787
-4.24597
-4.84421
0
0
0
-0.0352798
-5.1255
-1.78405
-1.37452
0
0
-0.867267
0
-1.63854
-3.50505
0
0
-0.188443
0
-0.190899
-3.09976
0
-1.79882
-3.13208
0
0
0
-1.35424
-7.12284
-1.31798
-2.86211
-4.68248
-5.25494
-0.972601
-0.258921
-5.49858
0
0
0
-7.36224
0
-3.25103
0
-2.94071
-7.13415
-0.979706
-1.55577
-2.09524
-7.67217
0
-4.30866
-1.61356
-5.44974
-7.33371
-0.276852
-0.448843
-0.102474
-1.94539
-0.0252503
-0.00600191
-0.101903
-5.4293
-0.523327
-5.44643
-1.14068
-10.8285
-3.24123
-5.37373
-6.7542
-0.986101
-6.33877
-0.0274821
-1.33422
0
-1.9352
-3.74265
-1.35634
0
0
-0.693491
-0.450099
-5.1887
0
-4.93969
-2.07605
-0.260515
-0.0549472
-4.09409
0
0
-0.067294
-3.48057
-1.18254
-5.51423
-3.16346
-0.11884
-7.65746
-0.526577
-1.19406
-0.811636
0
0
-2.35347
-1.50985
0
-1.70088
-0.388431
-2.59393
-4.74872
-5.26539
0
-1.1778
-3.32633
-1.64126
-0.160143
-3.89192
-2.42412
-2.9268
0
-0.848696
-0.188386
-6.11904
0
-6.32427
0
0
-0.300103
-1.96944
-1.77492
-0.933624
-4.40618
0
-2.5113
-2.56851
-4.20863
-2.33803
-4.3132
-5.00691
-3.31398
-3.30144
-1.04892
-0.503654
-1.92123
-2.97033
-0.197692
-3.17048
-0.585892
-4.52424
0
0
0
0
-2.21524
-1.0027
-0.229642
-8.12966
0
0
0
0
0
-4.54576
0
-0.833592
-2.55169
0
-3.44659
-0.0868603
-0.0411553
-7.49437
-0.0209815
-2.81105
-1.2098
-1.28124
-0.365306
0
-0.294372
-3.58038
-0.932717
-0.77372
-1.3365
-2.88103
-1.51747
-1.87326
-0.0427697
-0.949193
0
-3.89481
0
-3.45538
-1.15387
-6.88014
-0.0073286
-1.02759
-0.673358
-6.04211
-2.47041
-5.81258
-2.64756
0
-5.5297
-3.63002
-2.39001
0
-3.99031
0
-3.48419
0
0
-2.68409
0
-6.70514
0
0
-3.32112
0
-0.872156
0
0
-0.926736
-3.25869
-1.884
-1.50183
-2.23789
-6.70489
0
-0.622063
0
-5.78251
0
-3.49013
-3.70665
0
0
-2.96972
0
0
0
0
-4.1221
0
-4.26091
0
-5.10455
-0.136066
-1.25935
-0.912237
-10.5041
-3.66129
-4.23368
-4.58558
-1.71893
-2.37828
-0.339952
-3.8952
-1.23697
-0.43899
0
-6.25249
-3.60089
0
0
-0.284698
0
-3.05915
-0.773954
-4.56824
-2.00244
-2.22162
0
-0.575257
-0.596277
0
-1.10075
-0.971279
-4.18408
-2.34513
-5.69475
0
-4.99755
0
-1.27976
0
-3.06512
-1.32993
-1.56979
-3.64032
-2.4935
-2.3372
-6.04663
0
-3.67047
-0.101059
-0.26853
-3.12628
-0.41561
0
-5.51455
-0.92483
-4.00094
-0.338245
-1.77973
0
0
-1.89895
0
0
-6.50051
0
-7.64289
-1.5688
-2.68589
-2.1654
-1.63718
-4.54454
0
0
-1.09319
0
-0.63816
-6.19247
0
-3.89088
0
-5.81649
0
-0.141135
0
0
-2.75293
0
-2.696
0
-3.58153
-9.34336
-1.76328
-9.83113
-2.76181
-2.74361
-1.41662
-0.571345
-1.95294
-7.38419
0
-4.22943
-0.261806
-2.9358
-2.52073
-0.0915376
0
0
-0.944515
-4.68719
-2.64363
-5.76047
-5.41794
0
-4.27525
0
-6.08768
0
0
-1.65712
-2.24604
-2.77961
-3.67833
-3.88582
0
-2.25794
0
0
0
-5.99885
0
0
0
0
0
0
-2.25082
0
0
-0.118667
0
-5.83279
0
-1.04173
-1.64707
-3.4107
-1.03293
-2.34842
-2.50063
-1.77277
-0.603791
-1.63548
-0.152483
-1.29164
-0.149116
-1.88994
-0.240398
-0.627383
-3.19127
-1.76079
-0.835916
-0.631116
-4.82604
-2.64696
-6.60781
-2.43131
-2.39314
0
0
0
-3.14211
0
-0.488395
-2.09453
-3.196
-1.32013
0
0
-0.0478341
-7.93263
0
-2.3195
-3.19704
-6.25027
-0.285066
-5.33571
0
-5.4556
-5.58496
-0.804602
-3.92695
-1.13744
-6.06678
-0.542886
-3.26736
0
-2.68078
0
-9.40602
-1.07303
-6.26098
-1.50442
0
-3.27646
0
-0.112967
-0.64411
0
-4.23821
0
-2.79124
-1.43466
-5.14335
-0.923062
-1.41566
-1.16974
-2.33286
-6.29028
0
0
-7.46917
-0.790704
0
-3.37671
-4.5138
-2.87161
-6.28175
-3.71514
0
0
-1.7626
-0.177397
-0.088967
-1.06944
0
-1.05329
-1.13137
-7.98855
-0.417324
-5.50107
-0.890036
-3.82675
0
-4.17696
0
-0.476425
0
-8.72921
-4.48174
-1.64323
-8.60652
-0.259667
-9.07163
0
-1.42461
-0.324528
-2.47499
-2.42565
0
-2.77686
-3.07131
-0.869121
-4.52967
-0.838162
-4.07312
-4.46356
-0.223593
0
-0.813437
-1.38594
-0.405843
-4.79635
-0.0403348
0
-0.682621
-1.78278
-2.94603
-1.89148
-7.4388
-1.49204
-4.68854
0
-3.5735
0
-4.24904
-5.9282
-2.85017
-7.56045
0
-6.37903
0
-0.51797
-0.14736
-3.16251
-1.69526
-1.843
0
-4.39992
0
-2.02602
-7.08822
0
0
0
0
0
0
-4.18122
-4.2732
0
-6.17927
0
-0.259852
-8.11861
-3.19969
-4.17297
0
-2.06054
0
-0.52604
0
-0.246858
-3.55043
-2.95919
-3.49637
0
-6.43173
0
0
-2.8901
-1.99729
-1.56502
-4.52792
0
-1.05709
0
-5.16114
-0.00909961
-1.34417
-1.27183
0
-4.68548
0
-2.85979
0
-7.69387
0
-1.27023
-1.11233
0
-8.42217
-1.39544
-1.47481
0
-5.64974
0
-0.198937
-2.85432
-1.35723
-3.09293
0
-0.918802
-2.29204
-3.99809
-2.47165
0
-2.77188
0
-0.953798
-1.28189
-2.9629
-0.860303
-2.59609
-0.522139
-2.20975
-4.03449
0
-1.53961
0
-7.92838
-1.44336
-0.763854
0
0
-1.95152
-4.20582
-4.61082
-1.6168
-2.99525
-5.8066
-0.22743
-4.83858
0
0
-0.211191
0
-5.81954
-1.54944
-0.0708839
-4.39734
0
-4.34982
0
-0.149117
-2.74814
-1.83902
-9.63872
-3.96279
-3.76392
-0.279136