<?xml version="1.0"?>
<VTKFile type="RectilinearGrid">
<RectilinearGrid WholeExtent="0 32 0 32 0 32" Origin="0 0 0" Spacing="1 1 1">
<Piece Extent="0 32 0 32 0 32">
<PointData>
</PointData>
<Coordinates>
<DataArray type="Float32" format="ascii">
0 0.524874 1.04975 1.57462 2.0995 2.62437 3.14924 3.67412 4.19899 4.72386 5.24874 5.77361 6.29849 6.82336 7.34823 7.87311 8.39798 8.92285 9.44773 9.9726 10.4975 11.0224 11.5472 12.0721 12.597 13.1218 13.6467 14.1716 14.6965 15.2213 15.7462 16.2711 16.796 
</DataArray>
<DataArray type="Float32" format="ascii">
-5.03879 -3.62163 -2.20447 -0.787311 0.629849 2.04701 3.46417 4.88133 6.29849 7.71565 9.1328 10.55 11.9671 13.3843 14.8014 16.2186 17.6358 19.0529 20.4701 21.8872 23.3044 24.7216 26.1387 27.5559 28.973 30.3902 31.8074 33.2245 34.6417 36.0588 37.476 38.8931 40.3103 
</DataArray>
<DataArray type="Float32" format="ascii">
0 0.524874 1.04975 1.57462 2.0995 2.62437 3.14924 3.67412 4.19899 4.72386 5.24874 5.77361 6.29849 6.82336 7.34823 7.87311 8.39798 8.92285 9.44773 9.9726 10.4975 11.0224 11.5472 12.0721 12.597 13.1218 13.6467 14.1716 14.6965 15.2213 15.7462 16.2711 16.796 
</DataArray>
</Coordinates>
<CellData>
<DataArray type="Float32" Name="Scalar" format="ascii">
0
0
0
0
0
0
0
0
0
0
0
0
0
0
0
0
0
0
0
0
0
0
0
0
0
0
0
0
0
0
0
0
0
0
0
0
0
0
0
0
0
0
0
0
0
0
0
0
0
0
0
0
0
0
0
0
0
0
0
0
0
0
0
0
0.00949472
-0.551166
0
-0.88319
-0.0502201
0
-0.239937
-0.233018
-0.683343
-0.939523
0
0.192005
-0.418227
0
-0.564999
-0.619439
-0.0929615
-0.405822
0
-0.444959
-0.287254
0
0.334026
-0.421065
-0.672303
-1.2368
0
-0.406089
-0.238925
0
-0.586055
-0.571607
-0.152838
-0.0262461
0
-1.17149
-0.9425
0
-1.70323
-1.17359
-0.144209
-1.1198
0
-1.27525
-2.36815
0
-1.32379
-1.10521
0.00947539
-0.480416
0
-2.33693
-0.188968
0
-0.314018
-0.19733
0
-0.452501
0
0
-0.98521
0
-0.0188864
-0.151943
0
-4.05977
-2.03146
-2.8108
-3.05622
-2.41516
-5.21279
-0.817356
-3.25045
-6.71374
-3.35305
-3.54651
-4.7532
0
-5.12158
0
0
0
-3.72174
0
-3.65242
0
-3.7235
-2.64883
0
-0.47827
-4.19946
-2.26379
-2.89864
-0.159532
-4.81789
-1.35639
0
-4.54888
-0.52798
-5.20247
-2.43784
-6.75986
-1.79537
0
0
-0.390974
-0.781422
-0.122787
-0.585993
-5.44444
-1.51231
-4.47238
-1.80916
-2.23517
0
-4.11468
-0.297271
-4.13688
0
-5.86432
0
-4.17353
-0.856197
0
-2.23808
-5.38064
0
-1.75318
-2.06114
-0.655933
-1.58692
0
-1.82108
-0.741916
-5.95816
-3.06054
-3.09455
-4.63131
0
-3.69382
-3.24132
-1.21069
0
-1.79442
-0.990301
-2.73104
0
0
-0.654101
-1.93038
-4.7482
-0.365477
-5.50772
-0.799031
-0.465193
-3.53949
-7.41473
0
-0.764846
-0.793588
-1.58715
0
-5.21604
0
-3.26267
-3.69658
0
-0.963847
-0.129664
0
-5.53698
0
-4.68587
0
-0.2834
0
0
-4.98967
0
-5.52637
-1.18273
-5.21234
-0.492652
-7.48114
-4.02513
-4.40949
0
-2.69997
-2.55252
-1.2615
-2.45997
-0.966775
-1.07906
-0.0842077
-1.39024
-2.61172
-0.505972
0
-0.892508
-2.3524
-0.459946
-2.87956
0
-3.79075
0
-3.98947
-0.558209
0
-1.03265
-9.40202
-0.129685
-3.69499
-0.246004
-2.32296
-0.289798
-1.1764
-0.481043
-2.84917
-1.30307
-3.63524
-1.72926
-1.71124
-2.85986
-0.569858
-7.21305
0
-7.91581
0
-12.6219
0
0
-6.60886
-1.39746
0
-5.82137
-0.0879254
-4.51618
-0.290354
-5.08995
-1.23199
-0.777835
-0.151992
-1.28672
0
0
-5.38426
-0.289283
-4.33428
-5.55571
0
-7.86088
-0.57482
-4.34688
-3.61732
-6.05185
0
-1.52066
-0.0868827
0
-0.0954693
-2.10532
-3.6542
-4.60123
-3.51512
-2.00213
-5.55234
0
-5.13026
-2.22644
-3.57785
-3.08442
0
-6.61611
-0.131845
-0.0507989
-2.55035
-6.52746
-0.436295
-5.34163
-2.46234
0
-1.18601
-0.0909638
-1.72349
0
-1.54972
-2.83881
-4.6611
-5.29962
0
-4.21554
-0.576614
-6.13242
-1.82137
-4.13441
-2.46394
-5.47175
-0.758791
-3.29293
0
-1.63438
-0.974137
0
-5.54209
-0.524923
-6.09437
-3.79794
-3.13814
-3.77078
-7.62057
0
-7.65694
-3.09618
-2.32081
0
-5.33183
-3.1101
-6.73784
-1.2724
-0.0399295
-3.48105
-0.370377
0
-5.144
0
-0.527853
-2.6317
-3.08886
-0.587272
-1.10099
0
0
-8.79014
0
0
-0.716658
-1.10437
0
-3.85878
-0.75828
-2.08597
-2.27341
-1.17221
-0.0681408
-4.55998
-1.54257
-6.29039
-1.11546
-3.16869
0
0
-1.06402
-3.80076
-3.27765
-1.36367
-0.708675
0
-7.67388
0
-4.52117
-7.50668
0
-3.84401
0
-7.13712
-2.87288
-2.1441
-3.92373
-2.6331
-5.67883
0
-11.3451
0
-6.24333
-5.84233
-2.97059
0
-2.90458
0
-5.13557
0
-2.48954
-2.65124
-3.56272
-2.41999
-7.30141
-5.33311
-3.66044
-1.44912
0
-3.49357
0
0
-4.20451
-1.07166
0
-0.113438
-0.967078
-1.05202
-9.37624
-1.93213
0
-1.16081
-4.19774
-3.5869
-0.644941
-5.10091
-0.718104
-6.09342
0
-1.33976
-2.13178
-1.73529
-2.16021
-0.270345
-3.65765
-0.655134
-3.68841
0
0
-3.10372
-3.66219
0
-7.6474
-1.31165
-3.12987
-0.883314
-2.92407
-1.21042
0
-6.6508
-0.159238
-1.05276
-0.793801
-0.63709
-0.0975153
-0.333054
-1.41942
-2.11343
-0.744347
-3.3623
0
-3.84805
0
-1.29609
-0.101988
-0.462782
-4.72915
0
0
0
-6.72822
0
-3.88738
-4.24085
-1.45023
0
-6.82061
-0.863613
-6.96087
-0.191805
0
-4.4348
-0.866484
-6.03288
-0.18005
0
0
-3.3215
-4.04894
-1.32324
0
-0.178813
-1.48023
-0.344025
-5.2731
0
-5.29587
-1.91875
-5.18996
0
-7.74213
0
-2.90823
-3.66175
-5.8578
0
-3.36458
0
-1.30316
-5.82106
-3.99187
-1.79487
-1.32045
-0.37561
-3.73265
0
-6.48469
-2.10727
-2.33719
0
-1.80186
-4.68789
-1.7332
-1.16516
0
-2.8681
0
-6.31549
-0.856817
-0.842718
-0.880228
0
0
0
-0.889352
-2.96994
-0.336261
-5.13287
-0.0378248
-0.785241
0
-0.64088
-1.31361
0
-5.00806
-1.07466
-5.30316
-2.33279
-0.41591
-1.56208
-0.888972
-0.888954
-1.08312
0
-2.13249
-0.120503
-4.31793
-0.327015
-5.48856
-0.53942
-0.372242
-4.09109
-2.58623
-2.53933
-1.05713
-0.406002
-0.871816
-0.110599
-2.36611
-9.30708
-0.642972
-9.13749
0
-2.94978
0
-0.252335
0
0
-8.0325
0
-3.86297
-2.73795
-0.78958
0
-6.74914
0
0
0
-6.56894
0
-2.28517
0
0
-6.53453
-1.72672
-5.41737
0
-2.21634
-8.66368
-1.48948
-6.97001
0
-1.39642
0
-4.04336
-0.115351
-0.901086
0
-0.140594
-1.45341
-5.82174
0
0
-1.74756
-4.39589
0
-5.70797
-1.23018
-3.37365
0
-0.882689
0
-2.89554
-4.5676
-1.3091
-0.795384
0
-1.96403
-2.00879
-5.08392
0
-5.70429
-7.10382
-8.5953
-2.29926
-7.99417
-5.11306
-6.11665
0
-0.769378
-3.06268
-2.59552
0
-0.059805
0
-7.11342
0
-5.38548
-0.615338
-6.52864
-6.13396
0
-4.55008
-0.391562
-0.3909
-0.508969
0
-1.23794
-4.96367
-3.79826
-1.37432
-1.44509
-0.197231
-4.23031
-1.03334
-5.42044
0
0
-2.93029
-4.00056
-1.52519
0
-0.599914
-1.00586
0
-8.22434
-0.446629
-4.52395
-3.37543
-3.06409
0
-0.878214
0
-0.134315
-5.87346
0
-7.48193
0
-5.85305
-7.98501
-0.491967
-6.15042
-1.58568
-1.69333
0
0
-2.48041
0
-6.56188
-1.75328
-6.74432
-4.88535
0
0
0
-3.57066
0
-5.70982
-2.5754
-6.07796
-1.98222
-2.47326
-0.512701
-2.63907
-0.82913
-2.86297
-2.17357
-0.452598
0
0
-1.11997
-5.18218
-1.19153
-0.906398
-1.02663
-2.37113
-0.325195
-0.549097
-2.10171
0
-4.59764
-1.5818
0
-1.47134
0
0
-0.159344
0
-8.13952
0
-1.234
0
-1.74683
-1.41244
-0.760932
-0.389804
-1.99782
-2.30675
-6.17458
-1.67032
-5.19188
0
0
-4.18712
-1.53266
0
-6.64553
0
-7.34327
0
-1.76181
0
-0.0986026
-1.01226
-5.3821
-1.03304
-1.00985
0
-1.70661
-4.49521
-1.17599
-5.53269
-1.86222
-1.67816
-4.25668
-3.71457
-1.23633
-1.94751
-3.01727
-0.670287
0
0
-3.09933
0
-8.10123
-0.286746
0
-7.21925
-3.65188
0
-1.14929
-1.01749
0
-4.43706
0
-1.49694
0
-6.34239
-3.32196
0
-1.428
-1.5705
0
-1.28004
-10.0695
-0.211512
-7.04793
-1.82824
-2.15675
-2.26834
-0.99285
0
0
-0.623851
0
-1.17895
0
0
-2.18012
-7.7294
0
0
0
-9.27318
-0.0578755
-0.917675
-1.43861
-10.3048
-2.18215
-5.28937
-1.61332
-1.33432
-1.82031
-8.52465
-0.23741
-0.774273
-2.66567
0
-4.21349
0
-3.15647
-1.24717
-1.39171
-1.64971
-0.498315
-5.49734
-3.22183
-0.0974808
0
0
-2.8608
-0.0290719
-5.15296
-0.703029
-1.26959
-2.52665
-0.641381
-3.51968
0
0
0
-2.88424
0
0
0
-6.07404
0
-5.52838
-2.48437
0
-2.25435
-4.50967
-4.207
0
-4.74919
-0.921363
-2.52953
0
0
0
0
0
0
0
-4.99689
-0.317289
-7.20423
0
-3.79757
0
-11.0676
-0.991273
-9.72842
-0.0416719
-4.12191
-2.38747
-3.57157
-5.11847
-2.44774
-5.64282
-2.49379
-1.66598
-4.87143
-1.20409
-4.19324
-1.89352
-4.41815
0
-2.03541
0
-2.22648
-2.31594
0
-1.98038
-0.397618
0
-1.26407
-0.714552
-3.52305
0
0
-7.14614
0
-10.2204
-1.32861
-5.42073
0
-1.39985
-5.09694
0
-10.3701
-6.93464
-4.81615
0
0
0
-4.95003
0
-0.581562
-0.249414
-9.06359
-1.32956
0
-6.87359
-4.89115
-0.103701
-13.6817
-5.1313
-0.453443
-5.1248
0
-3.38136
-0.745069
-2.60696
0
-3.87994
0
0
-2.61172
-1.94482
-0.389977
0
0
-3.1482
0
-1.52587
-6.01654
-1.4353
-3.23926
-10.0961
0
-0.923355
-6.24815
-0.443961
-6.90652
-1.99313
-0.716069
0
-3.78704
0
0
0
0
0
0
0
0
0
0
0
0
0
0
0
0
0
0
0
0
0
0
0
0
0
0
0
0
0
0
0
0
0
0
0
0
0
0
0
0
0
0
0
0
0
0
0
0
0
0
0
0
0
0
0
0
0
0
0
0
0
0
0
0
-0.0963564
-1.21656
-0.0955135
-1.0665
-2.6889
0
-1.25809
-0.68057
-0.455523
-1.17678
-0.167208
-2.39774
-0.80684
0
-1.21762
-0.490945
-0.0276836
-2.78009
0
-1.54882
-1.61831
0
-1.57466
-0.527258
0.336908
-2.09797
0
-1.21687
-1.0926
-0.0592587
-1.83762
-2.32993
-0.0517721
-1.1902
0
-0.0549828
-1.11229
0
-0.51679
-0.595185
-0.401958
-0.228249
-0.0884261
-2.08606
-1.12421
0
-2.4432
-0.67227
-0.900825
-3.54231
0
-0.265615
-3.27344
0
-0.354362
-2.03076
-1.34599
-0.607108
-0.0325468
-2.60035
-1.18313
0
-2.90282
-0.722091
-1.25346
-0.525208
-0.415905
-2.96367
-7.4182
-3.09767
-1.17996
-3.22364
-2.2881
-5.83089
-1.79075
-8.77831
-1.83053
-1.68861
-2.47153
-3.21558
-8.80039
0
-4.42783
-3.02752
-5.73353
0
-3.90175
-0.62258
-5.54426
-5.11175
0
-1.85239
-2.81603
-1.23446
-0.0515388
-4.78028
0
-1.98735
-1.31926
0
0
0
-2.25597
-4.10802
-6.60723
0
-2.22466
-2.27111
-3.85735
0
-0.479686
-1.8609
-0.0713341
0
-1.15253
-6.57406
-0.0183015
-9.47877
0
-1.88634
0
-1.63646
-0.839381
-4.42317
-0.644328
-2.39864
-1.76581
-2.63997
-0.332807
-2.38978
-1.79637
0
-0.787305
-1.54147
-2.76327
0
-1.6904
-1.10291
-0.665759
-2.32179
-0.22853
-4.03574
-1.54518
-1.64408
0
-1.7967
-3.83852
-0.472319
-6.55868
-0.597302
0
0
-2.4261
-7.6905
-0.321593
0
0
-3.21536
-1.55072
-2.0244
-2.87
0
-3.25925
-0.0681916
-1.61584
-2.56848
0
-5.36843
-0.646233
-6.82227
-2.10108
-7.58164
0
0
-6.67761
-5.13273
-0.63467
0
-6.93047
0
0
-0.559282
-8.70634
-2.21697
-0.0498492
-0.743421
0
-3.74228
0
-0.856895
-2.32712
0
-5.36523
-1.16367
-2.06295
-2.12178
-4.90144
-0.100029
-1.86291
0
-0.643913
-0.533601
-1.321
-2.07272
-0.511091
-1.41403
-2.8166
-2.36566
-0.894072
-1.92919
0
0
-4.63451
0
-2.63185
-1.80268
-0.930298
-1.06916
0
-2.01406
0
-2.62841
-3.6952
0
0
-0.0278877
-5.356
0
0
-1.92783
-3.14374
-2.92486
-3.50484
-1.13364
0
-1.74143
-2.88469
-0.388733
-1.84793
-3.16026
-3.01203
-0.991851
-4.99447
-0.0525253
-6.53128
-0.42122
-4.28041
-3.47077
0
-8.77555
0
-1.52029
-2.46216
0
0
-2.29295
-2.82707
-0.186798
-2.79469
-4.01689
-4.26437
-0.301408
-0.50149
0
0
0
-6.74668
-0.0219002
-0.0347144
-0.109943
-0.0456464
-0.146597
0
-4.68786
-7.70499
-3.63082
-0.202122
-1.18528
0
-8.10421
0
-7.75913
-1.01297
-3.01542
-3.62041
-1.67683
-1.47287
-3.68633
0
-2.66199
-3.28359
0
-1.04293
-4.59181
0
-2.21337
-0.0862145
-1.11367
-0.955358
-3.00628
-3.96376
-7.88123
-0.639057
-1.2612
-1.54502
-2.23925
-2.72613
-2.52718
0
0
-0.00653933
-0.106333
0
0
-4.41613
0
-0.15643
0
-3.49717
-1.73108
-0.604906
-6.3768
-0.206353
-6.9009
0
-5.65403
0
-0.318266
-3.72081
-1.46017
-7.68105
0
-3.03746
0
0
-2.99882
0
-3.47887
-1.2318
-0.104351
-4.09634
0
-6.89743
-2.03584
-2.04345
-3.02163
0
-0.391858
-4.62453
-2.61533
-1.79798
0
-0.741116
-0.328279
0
-8.48299
-1.56503
-2.45388
0
-0.70568
-1.93147
-0.575083
-1.62857
-2.35813
0
-3.91009
-5.01857
-5.9256
-2.5532
-5.17138
0
0
-2.26514
-3.22861
-0.359507
0
-4.14008
-4.69784
-3.78001
-1.35303
0
-1.51789
0
-0.283207
-1.90449
-0.758222
0
-0.644117
-2.25625
-1.55511
-1.90479
0
0
0
0
-2.10864
-3.95231
-2.10883
-1.6909
0
-0.797999
-5.75233
-1.85722
-0.0694921
0
0
-3.09371
0
-0.825642
0
0
-3.10344
-0.229691
-6.55211
0
-4.25042
-0.848868
-1.48858
-7.60684
-1.94778
0
-1.0716
-3.39261
-1.80683
-3.93101
-0.791682
-2.19793
0
-10.2078
-3.89864
-3.59929
-0.046419
-8.72783
0
-9.20614
0
-1.74092
0
-1.85569
-0.198105
0
-2.09099
-1.61065
-1.844
-2.29156
-2.96106
-0.679104
0
0
-5.51984
-0.327974
-0.5243
0
-5.09593
-0.678199
-0.82008
-5.35551
-1.76813
0
0
-2.1166
-2.47816
-1.66045
0
0
-0.38801
-4.87276
-1.73877
-5.23332
0
-0.0073859
-1.77735
-1.46878
-5.20495
-1.13548
-1.71967
-3.40306
-2.95439
0
-4.70017
-4.29572
-3.03104
-3.78655
0
-2.86049
-0.724086
-1.53284
-5.44453
-0.973199
-5.1764
0
-0.473284
-6.4567
0
-2.30599
-0.476686
-6.55237
-3.14991
-1.70768
-3.25383
0
-3.08629
-0.0532966
-0.207133
-4.80289
0
-2.43504
-1.95059
-0.276831
-2.42749
-1.48805
-3.86996
-1.09808
-5.98592
-2.05936
-7.10512
-4.0763
-0.759232
-0.926645
-1.54198
-6.8959
0
-0.282075
0
-4.81309
-3.74158
-3.10267
0
0
-3.7741
-3.17187
-7.56495
-0.957916
-2.90281
-2.16888
-2.0585
-0.822116
-0.339037
-1.56008
0
-9.26389
0
-0.140224
0
-0.840012
-6.59451
-0.34762
-4.84281
-0.0421708
-0.631947
0
-3.36195
-5.82622
0
-12.0279
0
-3.66446
-8.81863
-1.32811
0
-4.87439
-3.43452
-0.637072
-0.944774
-4.33646
-8.89089
0
-12.5588
0
-2.6148
-3.15201
-1.33726
-2.80073
-4.4896
-0.201558
-4.16669
-0.922766
0
-2.05683
0
0
0
-1.38972
-1.16557
-0.0416004
0
-6.46341
0
-7.15496
0
-3.20367
0
-8.5093
0
-4.00402
0
-3.94192
-0.480175
0
-0.55904
-4.92382
0
-5.5602
0
0
0
-5.83033
0
-2.77338
-5.94935
-4.28047
0
-2.07509
-0.0779333
0
-2.36053
0
-0.142833
0
-3.1641
-5.09085
0
0
-4.08777
-0.731227
0
-1.55556
-0.249851
-2.1227
-0.934242
-6.23003
-2.91018
-2.7973
-2.84818
-1.18018
0
-5.81862
0
-4.70278
-1.33798
-1.78328
0
-3.84286
0
-4.62699
0
0
-1.07118
-2.37655
0
-2.30385
-1.71018
-8.39852
-1.34293
-7.94221
-3.26403
-0.249467
-0.0937641
-1.41668
0
0
-1.45312
-2.09603
0
-4.99758
0
-4.38587
-2.48755
-3.34507
-4.89382
-0.0139273
0
-0.89641
-0.178628
-0.889173
-7.10956
0
-4.26713
0
-6.90478
-0.0380423
-2.06369
-4.12482
-2.47379
-4.18627
-0.479527
-0.122037
0
0
0
-2.262
0
-5.54078
-1.379
-6.39578
-2.07753
0
-0.653587
-0.124538
-2.40512
-1.89561
0
0
-4.66831
-5.49779
-1.46156
-4.32999
-2.07385
0
-5.50965
-1.79397
-2.0871
-0.503803
-4.37622
-1.61998
-1.52137
-7.97573
-1.06789
-5.27475
-8.521
0
-7.1487
0
-6.88218
-2.18082
-9.74569
0
-9.92369
0
0
-2.26007
0
-5.36635
0
-1.85334
-0.783576
0
0
0
0
-3.54967
-6.75024
-1.78321
-3.16973
0
-0.814239
-0.530136
-4.99341
-0.718603
-3.62595
-3.80475
0
-4.90995
-0.877909
-12.082
0
-1.53578
-2.14645
-1.28922
0
-2.10798
-6.52663
0
-3.07069
0
-2.28067
0
-4.3439
-1.54311
-2.30395
-7.01418
0
-0.543847
-0.356886
-0.190085
-2.22487
-2.96717
0
-2.99139
-3.31114
-10.5693
0
-7.78951
-1.79985
-6.28305
0
0
0
0
0
-0.147062
0
-4.46529
0
-2.33843
-4.35364
-0.0248063
-1.23623
-0.72788
-6.77207
0
-0.407782
-10.7033
0
-0.981225
-5.55634
-2.47871
-9.22803
-1.65759
-1.24333
-0.0582078
-2.75356
0
-3.18256
-1.45139
-0.8234
-9.11665
-1.0064
-6.28994
-1.52205
-6.81654
-1.71274
-5.28133
-0.510578
-5.33897
-2.30084
-6.71644
-2.52867
-9.82741
-3.58296
-6.14597
-2.6003
-4.72441
-2.22691
-3.1996
-3.47575
-0.178545
0
-3.36023
-0.70327
-7.18989
-0.571148
-3.72707
0
-2.50292
-1.07814
0
-5.19779
0
-1.14007
-2.9587
-0.118078
0
-7.42917
-0.950848
-4.21479
-0.378633
-2.59522
-6.6556
0
-5.38478
-0.224384
-1.79786
-5.50818
0
-2.84305
0
0
-13.6806
0
-11.6186
0
0
0
0
-0.341031
-3.44472
0
-4.1128
0
0
-0.0858309
-2.72963
-1.43302
-1.22332
-2.12824
-0.331111
-3.14311
0
-1.65647
0
-0.411907
-2.43017
-1.06125
-1.26076
0
0
-0.57317
-5.00415
0
-4.77486
-0.0819829
0
0
-1.59377
-1.971
-9.26561
-3.79798
-2.43082
-1.46189
-4.6149
0
0
-2.81541
-2.53044
-4.95064
-2.38272
-3.51215
-2.7655
-2.58749
-2.65937
-0.317583
-1.76612
-5.37261
0
-2.83212
-5.74897
-1.36668
-1.47882
-2.90974
-2.39451
-2.69875
-3.61039
0
-4.17177
0
-3.66552
0
-5.58954
0
-4.91234
-0.930891
-4.50387
-3.01898
-2.67014
-6.05084
-3.32607
-1.15866
-4.78562
-3.73078
0
-8.51923
-4.42423
0
-9.93971
0
-4.93454
0
-6.03653
0
0
0
0
0
0
0
0
0
0
0
0
0
0
0
0
0
0
0
0
0
0
0
0
0
0
0
0
0
0
0
0
0
0
0
0
0
0
0
0
0
0
0
0
0
0
0
0
0
0
0
0
0
0
0
0
0
0
0
0
0
0
0
0
0
0
-0.0300866
0
0
0
0
-0.0961805
-0.102648
0
0
-0.0395252
-0.412173
-0.609268
0
0
0
0
-0.244888
0
-0.013196
-0.0904341
0
0
-0.0689829
-0.350089
-0.214303
0
0
-0.291422
0
-0.0898693
0
0
0
0
0
0
0
0
0
0
-0.0295585
0
0
0
0
0
0
0
-0.156302
0
-0.831054
-0.0140236
0
0
-0.201649
0
0
0
0
-0.185342
0
0
0
-3.00991
-2.42691
-3.19998
-1.10083
-0.172174
-2.38536
-7.38821
-5.45902
-1.82404
-1.46184
0
-2.24169
-0.298687
-0.95908
-2.05526
0
-0.118814
0
-9.3766
0
-0.335393
-0.659587
-4.11283
-4.46847
-1.17473
-1.02535
0
-2.05869
-0.29374
-0.146963
-1.75225
0
-3.06449
-0.132379
-2.47204
-0.307246
-7.82612
0
-8.65927
0
-0.559049
-1.46995
-4.8736
0
0
-7.17559
-3.52199
0
-6.42169
-0.915093
-1.52092
-0.761599
-4.74954
0
-7.1156
0
-1.02059
-2.68884
-0.0103864
-3.84245
-3.50189
-3.74682
-2.1492
-3.17428
-3.64956
-0.667444
-1.07619
-1.87673
-0.921243
-3.62598
-0.389581
-5.35996
-1.61637
-4.81806
-5.2149
-1.28264
-0.0809668
-1.04711
0
-0.397424
-3.62536
-0.872755
-1.97097
-2.1626
-3.27802
-0.368691
-2.00166
-0.0952691
-3.8233
0
-7.55082
-4.8152
-5.14037
-0.5942
-1.68601
-0.412454
-4.2101
-3.48509
-0.671728
-1.03939
-0.703147
-3.50787
-0.00237324
-0.542771
0
-1.68273
-0.933818
-1.78333
-0.842426
-9.83899
0
-0.191575
-5.16302
0
-1.36365
0
-3.70903
-0.86979
-1.66175
0
-3.13696
-0.356158
-0.188291
-1.99778
-1.25103
-9.52156
-0.0275577
-8.91634
-0.975518
0
-6.47877
0
-0.0829512
-1.79906
-5.80409
-0.881148
-6.86453
-3.56915
-4.70616
0
-0.0695897
-0.0152136
0
0
-1.3499
-0.297804
-6.63148
-0.0352292
-3.63275
-2.22041
-2.40824
0
-3.54361
-0.50879
-1.12013
-0.576258
0
-3.50228
-0.113737
-5.76162
-2.12575
-5.03461
-2.26398
-2.95033
-3.55488
-0.626048
-1.35727
-1.96027
-1.72464
0
0
0
-3.59345
-0.621655
-3.6576
-4.08788
-1.11771
-0.848807
-1.96946
-0.895014
0
-4.31021
-0.95689
-2.93208
0
0
-6.24955
-1.68778
-1.37641
-3.00982
0
-5.01892
0
-0.760132
-0.389537
-0.282713
-1.32848
0
-5.92178
0
-3.90637
-1.82629
-7.57773
0
-6.69171
-0.14599
-1.98914
-2.22043
-2.32428
-2.77533
-0.316689
-2.78279
-0.340135
-2.89508
-4.78943
-0.0782772
-0.906248
-0.774159
-5.86787
-3.92666
-0.732226
-0.363764
-1.97152
0
-4.95144
-2.40892
0
-5.1071
0
-0.953218
-3.13672
-2.34514
-3.69472
0
-1.44061
-3.85693
-1.0045
0
-0.882544
-7.13091
-5.9712
-6.10881
-1.61252
-0.950612
-8.26987
-2.5034
-8.54698
0
-6.25201
-0.975139
-3.00785
0
-4.3308
0
-2.7015
0
0
0
0
-0.0783265
-0.0471817
-1.72
0
-5.58897
-0.159579
-4.68722
0
-0.741199
0
-3.63742
-1.86787
0
-0.297317
-0.118191
-1.25142
-4.18083
-1.21711
-0.863402
0
-4.11621
0
-3.37959
-3.21211
-0.605465
-1.43047
-0.0172298
0
-4.27747
-3.65583
-3.4946
-0.242979
0
-1.70741
-6.10016
-2.60167
-0.32178
-1.88925
-1.19187
-1.29908
-1.23424
-0.25705
-3.17971
0
-1.45872
-4.00561
0
-5.45393
0
-0.916477
-0.203523
-5.08655
-2.21656
-4.32148
0
-2.26614
-1.41605
-1.67776
-1.97793
-4.20559
-2.26669
-0.485978
-4.5953
-0.837014
-7.82637
0
-0.800523
-2.78037
0
-6.48928
-4.45946
-9.42565
-1.81534
0
-1.38608
-0.505329
-3.56723
-2.26957
0
-2.49933
-3.58233
-2.21092
-3.23609
0
-2.62971
0
-6.31624
-1.63623
-2.79101
0
-3.67471
0
-5.37833
-4.47754
-0.0743103
0
-1.27155
-7.33913
-2.67212
-3.96541
-1.47633
-2.341
-0.11312
-0.620082
-9.44112
-0.173653
0
-2.91589
-0.602303
-0.734978
-0.216996
-2.35158
-0.264305
-6.9079
0
-6.05272
-0.31165
-2.48429
-3.941
0
-5.67771
-0.111619
0
-6.59072
0
-5.37954
-0.402539
-3.22752
-5.46779
-2.83467
-1.03019
-1.21708
-0.303691
-4.2773
-2.31512
-1.20087
-3.62008
-0.25702
-1.5078
-3.88465
-3.75062
-7.27284
-0.840227
-0.172598
-0.119107
-2.31032
-1.03896
-0.37567
-1.98555
-0.545734
-2.53763
-3.07989
0
-1.93256
-1.34836
-5.48916
0
-0.950117
-0.815636
-0.0548179
-6.70141
0
-7.10441
-8.46372
-1.08377
-4.98456
0
-1.90225
-2.17969
0
0
-5.64494
-2.92803
0
-2.06927
0
-4.43545
0
-1.89241
-0.981286
-0.825894
-2.10149
-1.23452
0
-2.78516
-1.3318
-8.30192
-0.919965
-4.78143
0
0
-2.02055
0
-1.14114
-8.70544
-3.78216
0
-0.0674336
-2.32815
-4.71984
-3.93413
-3.11283
-0.0499056
-1.45426
-0.54344
-2.94752
-3.07482
0
-3.83294
-1.77002
-1.39072
-0.0714125
-1.89025
-6.52007
0
-9.9597
0
-1.81043
-2.13029
-4.90144
0
0
-1.96896
-3.16849
-3.73449
0
-2.94748
-5.30205
-0.397647
0
-2.7475
-0.50865
-6.42483
0
-0.394306
0
-4.29884
-0.0450337
0
0
-1.9984
-0.0248059
-3.08231
0
0
-0.227639
-1.98201
0
-4.01547
-1.91833
0
-0.411142
-5.84637
-6.49654
0
-3.56931
0
-5.38229
-0.0684384
-3.38219
0
-0.139165
-2.4122
-1.66772
0
0
0
-2.35633
0
-1.43066
-1.70155
-9.01483
-3.61375
-4.31179
-0.968355
-4.88003
-0.532063
-2.01301
0
0
0
-7.19171
-2.09006
0
0
-0.617873
0
0
-3.17219
-0.314168
-6.39921
-0.403565
-2.4635
-1.98316
-7.15381
0
0
-0.444349
-2.44656
-0.719717
-1.15672
-2.27534
-2.57333
-4.05263
-1.15409
-5.25582
-3.14948
-0.365244
-0.514202
0
-1.741
-6.25698
-1.63022
0
-1.69774
-2.74112
-5.6255
-5.49144
0
-5.12854
-0.913666
-4.73078
-2.71059
-5.27573
0
-0.883765
-3.82433
0
-3.81003
0
-0.995529
-4.76375
0
-0.142911
-5.34194
-1.55723
-5.68285
-2.55118
-4.83112
-0.716154
0
-1.69653
0
-3.47223
-0.813251
-3.33804
0
-4.41572
-0.620104
-0.452504
-1.20303
-1.76343
0
-3.10656
0
0
0
-3.85836
-1.34106
-4.67928
-0.100832
-6.30654
0
-7.70679
-2.81068
-6.22793
-5.93013
-1.48351
-0.809263
0
-1.09639
-0.642619
-0.19988
-6.09208
-0.311216
-5.27706
0
0
-2.91727
-2.18102
0
-3.81353
0
-3.69913
-0.975227
-4.46989
0
-3.99156
-1.25699
-5.32627
-0.562421
-2.92165
0
0
0
-2.05419
-3.10163
-4.64552
0
0
-2.57685
0
-2.7934
-1.49219
0
-4.10662
-3.65953
-3.18019
-4.45874
-3.09128
-0.31547
-0.400911
0
-3.26667
-6.81607
-0.660649
-7.70572
0
-0.678435
-2.63018
0
-11.4844
-1.08417
-4.971
0
-4.56718
0
-1.80219
-5.42177
0
0
-0.750913
0
-4.38668
0
-0.612904
-8.74734
0
0
0
-0.535876
-2.36223
-2.03473
-2.64374
0
-0.252038
-0.81568
-4.40842
-2.69432
-4.64127
-0.167058
-4.61678
-0.298236
-0.413866
-1.96061
-0.0551187
-1.18704
0
-2.75299
-0.936533
0
-1.02777
-0.448982
0
-4.495
-1.71422
-5.08983
0
-0.575356
-1.58836
0
-7.07179
-0.672841
-0.425916
-4.55686
0
-0.18282
-0.210479
-0.891722
0
-3.42064
-5.22318
-0.0539301
-0.565573
-1.3172
-0.603558
-12.2271
0
-3.27051
-3.07286
-8.01128
-3.58382
-2.15079
-3.24314
-1.86258
-1.14967
-1.26175
-1.73549
0
-3.43703
-3.95665
0
0
0
0
0
-0.300622
-0.102499
0
-0.626963
-1.37404
-0.432878
-1.79666
-4.85527
-1.5464
-1.43347
-2.60941
0
-5.01622
0
0
0
0
-6.66019
0
-0.314775
0
-5.48368
0
-2.7943
-3.12903
-1.00904
0
-3.43806
-3.42424
0
-2.0857
0
-4.55752
-1.07579
-0.792874
-3.54832
-0.416528
-3.26369
-1.12058
-1.69132
0
-0.777238
-0.61589
-7.43971
-0.549136
-6.39716
-2.16456
-1.10485
-5.78422
-3.70306
0
-3.62489
-2.86718
0
-5.04587
0
0
-7.29072
-0.207208
-7.47045
-0.813843
-5.82548
-0.093462
0
-0.263118
-3.89771
-0.666608
-2.12737
0
-1.99968
0
-1.31817
0
-4.72935
-6.48303
-0.924388
-1.20017
0
-1.09014
-3.4739
-0.183168
-2.23093
0
-9.32353
0
-2.10277
0
0
0
-1.8211
0
-0.0942154
-2.78714
0
0
-7.67713
0
-3.92549
-2.24485
-5.28675
-7.89452
-1.82465
-4.87028
-2.2142
-10.4736
0
-10.3537
-1.38963
-6.38045
0
-3.8702
0
-1.92679
-0.684829
0
-4.45319
0
-4.80795
-8.50192
0
-4.94843
-4.80301
0
-6.9996
-5.4174
-5.0718
0
-5.89518
0
-2.6128
-11.6549
0
0
0
0
0
0
0
0
0
0
0
0
0
0
0
0
0
0
0
0
0
0
0
0
0
0
0
0
0
0
0
0
0
0
0
0
0
0
0
0
0
0
0
0
0
0
0
0
0
0
0
0
0
0
0
0
0
0
0
0
0
0
0
0
-0.0474459
-0.610797
0.0909095
-0.0635135
-0.620872
0
-1.61481
-1.17019
0.0838675
-0.684376
0
-0.990503
-1.1913
0.129482
-0.917497
-0.6929
-0.472333
-2.12128
0
-1.83058
-0.660892
0.0443075
-1.0034
-0.28928
-1.18106
-1.05265
0
-1.07166
-0.576935
-0.0273664
-1.82636
-0.679565
-1.69346
-0.258229
0
-1.0976
-0.2867
0
-1.40782
-0.438437
-0.693328
-1.70421
0
0
-1.92007
0.0341793
-0.711827
-1.29168
-1.0484
-0.3419
0
-2.67423
-0.43287
0
-4.39761
-0.181442
0
-1.89023
0
-0.191985
-1.89096
0
-0.861806
-0.33483
-1.01431
-2.4244
-5.14595
-0.894316
-4.81611
0
-0.612111
0
-3.54451
-3.24685
-3.86753
-5.55955
-2.43354
-3.02346
-4.00541
0
-4.75015
-5.86816
0
-0.937071
-12.1221
-3.32243
-0.48505
-4.15332
-0.246414
-3.64113
-0.815847
-3.2381
-1.87126
-3.25812
-3.12308
0
0
-5.15297
-0.426683
-0.671783
0
0
-0.998665
0
-5.44244
0
0
-5.55752
0
0
0
-6.49016
0
-0.965584
-3.33096
0
-0.482836
0
-0.954996
-4.01074
-2.66574
-6.4358
-1.06366
-1.91673
-2.02969
-1.46812
-0.630319
0
-0.1498
-2.88694
-0.382076
-4.94218
-0.735032
0
-1.03072
-1.34931
0
0
-2.03122
-5.06077
-4.02198
-0.673102
-3.26698
-0.974936
0
0
-0.207854
-0.969875
-2.89429
-0.210345
-3.88638
0
-5.76019
0
0
-2.77931
0
-0.647469
-1.92895
-0.53676
-0.439845
-4.6504
-3.97799
-2.6782
0
0
-4.64561
-3.07596
-2.38043
-4.0725
0
-9.64445
0
0
-2.56707
-7.42549
-2.7901
-1.64665
-3.25606
0
-1.39354
0
-1.45089
-0.0545889
-0.194562
0
-0.463573
-0.905875
-0.0364392
0
-0.755227
0
-4.88244
-4.43556
-0.975435
0
-6.61564
-2.47245
-4.25463
-2.10819
-6.29514
-0.888817
-1.834
-3.27391
-6.18728
-2.45179
-4.98579
-0.473357
0
-2.45545
0
-5.11937
-1.73727
-7.89138
-0.850798
-4.32385
-3.00599
-3.88283
-1.34474
-1.72061
-4.78435
0
-0.456454
-2.24481
-0.0579823
0
-3.55217
-2.64655
-4.04025
-4.98937
0
-4.80963
0
-5.73755
-3.23872
-4.04298
-2.94384
-3.65176
-4.06432
0
-3.21369
-2.51028
-2.41276
-2.35714
0
-2.25227
-0.786161
-3.67386
0
-5.34812
-3.59586
-3.53959
-3.8436
-3.0462
-1.08205
-2.74584
-2.25628
-4.04044
-2.09377
-0.731661
-1.73184
-3.31348
0
-0.488329
0
-0.0266111
-3.6278
-1.10097
0
-0.3114
-0.493081
-0.738818
-2.12847
-0.0368438
-3.77913
-3.37029
-3.54457
0
-0.0158862
-4.03023
-1.05283
-3.00379
0
-1.44646
-2.11212
-4.95137
0
-2.18839
0
-2.58286
-0.754428
0
-1.0319
-2.62102
-4.14594
-0.930524
0
-1.96264
-2.95865
0
-0.483363
-5.1331
-0.72758
-3.71174
-1.60129
-3.33677
-1.03544
-5.28367
-0.8804
-1.3474
0
0
-1.27183
0
-4.19038
0
0
-7.54989
-0.589897
-5.96925
-2.10659
-5.04016
-3.75317
-1.43179
-2.06152
-2.02706
-0.742456
-0.206346
-5.98122
-1.16559
0
-1.94919
0
-0.677805
0
-5.83248
0
-4.92673
-0.934787
-1.13369
-0.592219
-2.55586
-2.29182
-1.80516
-0.470028
-1.17392
-0.491383
-8.63111
0
-7.42747
0
-3.47736
-0.0639324
-1.96075
-0.135126
-2.63732
-0.147096
0
-1.50111
-1.2484
0
-0.690423
-1.88502
-1.51187
-3.09206
-4.1015
-0.942924
-6.04981
0
-0.578701
-1.87808
0
-8.65231
0
-3.4264
0
-0.828913
-4.26472
-1.5423
-3.8898
-0.303062
-0.5538
-3.23582
0
-0.148844
0
0
-0.683083
-2.66051
-5.39335
-5.60358
-2.08516
-6.13247
0
0
-2.24504
-4.4025
-0.234327
-1.785
-1.16173
0
-8.89319
-2.29832
-7.10814
0
-5.66245
-2.16492
-5.52929
-7.98147
-1.80761
0
-4.99121
0
-2.62716
-0.578749
-2.41212
0
-4.26518
-2.95201
-0.984214
0
0
0
-4.50968
0
-5.1265
-2.00486
-0.217132
-2.29945
-7.33392
-1.72696
0
-8.86282
-0.0427328
-2.58885
-1.50132
0
-5.93421
0
-5.85804
0
-1.31708
-2.25068
-4.55105
-2.40815
-6.89002
-1.47324
0
-3.92562
0
-3.73353
-2.54098
-3.71424
-4.49945
-4.4599
-5.59427
0
-12.0735
0
-0.405449
-3.71395
-0.24454
-0.975367
-0.959214
-1.15882
0
-1.33811
-0.08268
-0.820794
0
-3.14585
-1.99876
-8.34705
0
-2.79409
-0.409673
-4.42539
0
-2.54821
0
-2.03923
-7.10905
0
-2.04204
0
-1.34908
-0.847173
-0.975966
-0.787512
-1.21897
0
0
-1.82803
-2.13837
0
-4.0478
0
-4.14771
0
0
0
-0.768882
-2.81361
-2.11915
-0.552935
-2.51132
-1.62158
-3.00172
-2.28357
-0.170365
0
-0.105556
-0.936751
-6.01562
0
-9.1279
-0.487038
0
-1.07026
-0.234765
-5.05693
-1.92172
-3.97543
0
0
-3.72649
-0.541073
0
-1.3948
0
-3.56835
0
-2.73296
-3.23324
-9.33214
0
-6.14059
0
-0.936611
-2.8697
-3.26782
-2.75605
-0.208613
-6.42959
-0.351397
-4.03505
-2.57873
0
-1.43163
-2.72509
0
-0.633436
-6.65493
-4.42176
-1.93473
-2.35707
0
-11.7774
0
-2.69429
0
-10.0389
0
-4.61449
0
0
-3.08253
-0.804363
-2.39996
-2.4736
0
-3.18939
0
-7.70069
0
-2.84885
0
0
-1.49257
-0.169783
-1.56254
-2.71728
0
-6.93524
-4.82155
-0.176161
0
-3.04966
-0.464242
-8.3349
0
0
-6.3122
0
-0.560101
-2.49257
-1.49744
-6.97965
-0.883568
-9.52316
-1.87446
-0.337118
-2.57226
-2.0828
0
-4.34961
0
-7.32839
-0.944648
-6.31983
0
-0.932972
-0.0426057
0
0
-0.320656
-2.37532
0
-1.53879
-6.39502
0
-3.06082
-0.698727
-9.82117
-0.612043
-3.78982
0
-4.54423
-0.583366
-0.642079
-6.76193
-2.40563
-3.14656
-6.60927
-2.52923
-2.66519
-6.73741
0
-1.73181
-5.45131
-0.952141
-1.11248
-1.26723
-1.18817
-1.33216
0
0
-5.03207
0
-0.863169
-1.15428
-8.46336
-2.48675
-6.48934
-3.4078
-5.65466
-1.92509
-4.07087
0
0
0
-2.07409
-5.24669
-4.26328
-7.81579
0
-3.57284
0
-1.83229
-8.44052
-1.37811
0
0
-3.7073
-0.815305
0
-5.28602
0
-8.41736
-1.91611
0
-0.91254
-0.0974214
-2.82768
-1.11298
-2.4303
-3.0875
0
0
-1.14424
0
-3.68545
-3.63916
0
-4.44757
-0.607538
-0.575913
-0.352926
-0.164792
-2.55427
-3.42869
0
0
-4.8436
-1.62862
-8.31424
-0.720375
-2.54658
-0.730768
-3.85226
-1.03919
0
-0.329433
-0.261988
0
-5.28647
0
-0.918496
-2.25558
-4.66421
-6.82565
-5.31578
-4.12342
-2.1428
-1.49284
-7.69526
-1.806
0
-1.17372
-0.125323
0
-0.832488
0
-5.10868
-1.26362
-5.68344
0
-0.621492
-1.01081
-1.5295
0
-1.73962
-2.06628
-3.73766
0
0
-0.412932
0
0
-3.32905
-0.914478
0
-1.14878
-7.83169
-1.08855
-6.18272
0
0
-2.58327
-2.10038
-3.29651
0
-3.22044
0
0
0
-1.03674
-1.66994
-3.3474
-3.32109
-0.988542
-3.35232
-1.08309
-2.4303
-1.4552
0
-4.9432
-0.723375
0
-2.8362
-0.294023
-2.71363
0
-5.18651
0
-4.54031
0
0
0
-5.90568
-0.430418
-6.13769
-3.76189
-4.33279
-1.61357
-5.77385
-0.760036
-0.427322
0
-6.10508
0
-1.46744
0
0
-1.29124
-5.95509
-1.34435
-4.50816
-1.04477
0
-4.38523
-8.8636
-1.661
-5.23299
-1.18979
-1.21293
-4.06145
-1.93874
-9.7872
-6.33997
0
-6.18987
-0.257539
-1.49668
-6.16975
-3.61399
-3.32662
-2.05606
-0.636529
-5.66108
-1.73964
-6.08557
-1.76691
-2.73161
-2.15374
-4.00205
-0.031742
-0.754888
-7.44507
-2.054
-7.17677
-0.588049
-6.55159
-1.05652
-5.59406
-1.40973
-0.705547
0
-7.18412
-1.19038
-2.62879
-4.58055
-10.9728
-1.96336
-3.65258
-7.81184
0
-1.53412
-0.88327
-4.47961
-1.05568
-4.19013
-2.759
-8.99019
0
-2.94638
-0.691922
0
-2.323
-2.56505
-0.706845
0
0
-0.308876
-0.8264
-1.41381
-3.72299
-1.52173
0
-2.01881
-0.860639
-0.715579
-1.09433
-0.588319
-10.517
0
-5.62081
-7.29806
-7.30601
0
-0.728072
-3.05994
-6.54169
0
-0.73612
0
-4.69306
-7.0248
-3.39268
-6.46467
-5.38577
-6.35539
0
-4.44927
-3.22921
-6.76903
-2.34914
-3.10827
-0.175149
-4.00449
-7.2915
-0.351016
0
-1.0861
-5.40676
-5.01088
-0.0900878
-3.56293
-0.150097
-3.95627
0
-2.17939
-0.114882
-2.94269
0
0
-1.96236
0
-0.0356736
-2.28769
-3.27982
-7.21626
-2.6093
-1.82019
-6.51808
0
-3.00435
-2.56124
0
-8.99181
0
-9.29059
0
-6.08317
0
-10.3627
0
-1.53122
-3.75777
-2.08754
0
-9.59438
-0.506643
0
-1.31861
-4.24329
0
-6.62993
-1.03599
0
0
0
0
0
0
0
0
0
0
0
0
0
0
0
0
0
0
0
0
0
0
0
0
0
0
0
0
0
0
0
0
0
0
0
0
0
0
0
0
0
0
0
0
0
0
0
0
0
0
0
0
0
0
0