<?xml version="1.0"?>
<VTKFile type="RectilinearGrid">
<RectilinearGrid WholeExtent="0 32 0 32 0 32" Origin="0 0 0" Spacing="1 1 1">
<Piece Extent="0 32 0 32 0 32">
<PointData>
</PointData>
<Coordinates>
<DataArray type="Float32" format="ascii">
0 0.524874 1.04975 1.57462 2.0995 2.62437 3.14924 3.67412 4.19899 4.72386 5.24874 5.77361 6.29849 6.82336 7.34823 7.87311 8.39798 8.92285 9.44773 9.9726 10.4975 11.0224 11.5472 12.0721 12.597 13.1218 13.6467 14.1716 14.6965 15.2213 15.7462 16.2711 16.796 
</DataArray>
<DataArray type="Float32" format="ascii">
-5.03879 -3.62163 -2.20447 -0.787311 0.629849 2.04701 3.46417 4.88133 6.29849 7.71565 9.1328 10.55 11.9671 13.3843 14.8014 16.2186 17.6358 19.0529 20.4701 21.8872 23.3044 24.7216 26.1387 27.5559 28.973 30.3902 31.8074 33.2245 34.6417 36.0588 37.476 38.8931 40.3103 
</DataArray>
<DataArray type="Float32" format="ascii">
0 0.524874 1.04975 1.57462 2.0995 2.62437 3.14924 3.67412 4.19899 4.72386 5.24874 5.77361 6.29849 6.82336 7.34823 7.87311 8.39798 8.92285 9.44773 9.9726 10.4975 11.0224 11.5472 12.0721 12.597 13.1218 13.6467 14.1716 14.6965 15.2213 15.7462 16.2711 16.796 
</DataArray>
</Coordinates>
<CellData>
<DataArray type="Float32" Name="Scalar" format="ascii">
0
0
0
0
0
0
0
0
0
0
0
0
0
0
0
0
0
0
0
0
0
0
0
0
0
0
0
0
0
0
0
0
0
0
0
0
0
0
0
0
0
0
0
0
0
0
0
0
0
0
0
0
0
0
0
0
0
0
0
0
0
0
0
0
0.413554
-0.26004
-0.108222
0.153481
-0.47933
0
-0.810897
-0.510432
0.0974531
-1.17748
0
-0.799237
-1.99485
0.00392015
0.00317331
-0.501504
-0.18631
-0.682078
0
-0.354332
-0.3769
0
-0.659321
-1.28299
0.0523988
-0.756106
0
-0.674224
-1.30484
-0.13863
-1.10695
-0.457682
-1.02751
0
0
-0.587002
-0.0489845
0
-0.721199
-0.0365781
-0.0249953
-0.830849
-1.0104
-0.711439
-1.81116
0
-0.205887
-0.0324106
-0.221157
0
0
-0.593026
-2.09007
0
-2.1083
-0.736604
0
-0.679207
0
-0.177081
-0.671768
0
-0.885103
-0.795003
-3.84994
-2.43054
0
-4.38967
-1.01395
-1.58254
-2.95102
-2.25979
-4.71817
-1.23528
-2.55951
-1.62639
-3.84109
-4.17461
-3.81831
-0.560268
-0.485832
-4.45609
-0.499733
-5.81868
-4.69739
-4.23968
-4.70393
-2.05338
-3.21795
-4.68922
0
-0.938167
-1.96129
-4.58557
-2.5165
-4.0359
-1.43804
-5.62843
-1.06171
-0.626867
0
0
-2.22594
-0.26714
-0.0106553
0
0
-1.97506
-4.26379
-0.136428
-3.49293
-0.225741
0
-3.40331
0
-6.58382
0
0
-4.32754
0
-0.278355
0
-4.78698
-3.07113
-2.90739
-0.231754
-0.7354
-1.02707
0
-6.16644
-2.05612
-3.23185
-1.99708
-8.52651
-1.45205
-1.50624
-3.89692
0
-3.38667
-1.30274
0
-1.18707
0
-3.2145
0
-4.6169
-0.315274
-4.60249
0
0
-4.67513
0
-7.13638
-0.343815
-3.08374
0
-0.857789
-2.00272
-0.25186
-0.345848
-3.38345
0
-0.804949
-1.39143
0
-0.95338
-1.84937
-4.58097
-3.55248
-0.475439
-3.51725
-0.459556
-4.12799
0
-3.07374
0
-0.462042
-0.466434
0
-4.29472
0
-3.55577
-7.64723
-0.717195
-0.22253
-3.50433
0
-5.65317
-2.99596
-3.14107
-2.40118
0
-1.33358
0
0
-0.035495
0
-1.40781
0
-1.3169
-5.59333
-6.7258
-0.155445
-1.28789
-0.9441
-5.33236
0
-2.58107
-4.34252
-3.16879
-1.36611
-4.14812
0
-1.92825
-3.96611
-3.18684
0
0
-5.65488
-0.889251
0
-6.26664
-2.30315
-4.47761
-1.17881
-2.86147
-1.5934
-1.51892
-2.43851
-2.56016
-1.38763
0
0
-1.44215
-1.2395
0
0
-4.32871
0
-4.53165
-0.817616
-4.49141
-0.887329
-4.44389
-3.36142
-1.31113
-3.41018
-1.20488
-3.19398
-0.938977
0
-1.41667
0
-1.17811
-0.464226
-1.64312
-1.61366
-0.667861
-1.42634
-0.198606
-0.821926
-9.90812
-1.30425
-4.72374
-3.75383
-4.91723
0
-3.2798
0
-5.17361
-0.988942
-7.94219
-3.13852
-2.31279
0
-3.62232
0
-7.89331
-1.41135
-2.98456
-2.12764
-1.54806
-1.84564
-0.752405
0
-0.459963
-1.79223
-3.3302
0
-6.45603
-0.587822
-7.23744
0
-4.16107
-1.47608
0
-5.99235
-1.22295
-7.56977
-3.49942
0
-2.89094
0
-5.06604
0
-5.81161
-3.02301
-0.862128
0
-3.27773
-0.502912
-3.75502
0
0
-1.82732
0
-5.37105
-0.449912
0
-4.09423
-3.01366
-1.68066
0
-2.42518
-3.05713
-0.692983
-5.52127
-2.05748
-0.689143
-4.63047
0
-3.65894
-2.84484
-1.33857
-1.32429
-3.39872
0
-5.79306
0
-5.1718
0
-3.79831
0
0
-9.73645
-1.03884
-9.7942
0
-3.16071
0
-0.632858
-1.92203
-0.187882
-3.94984
-4.1491
-0.295587
-1.8121
-3.95485
0
0
-0.0588018
0
0
-3.3193
-3.27229
-1.07664
-1.54382
-0.982328
-3.20362
-1.77796
-4.96908
0
-0.0153904
-0.603001
-2.97667
0
-1.61132
-6.19461
-0.753851
-0.215764
-0.714187
-2.22067
0
-0.531805
-0.718517
-1.01436
-3.45915
-0.105077
-4.92235
0
-5.69718
0
-1.22819
-0.0619163
-6.78197
-5.324
-0.841354
-0.781864
-4.58696
0
-5.44428
0
-0.707411
-4.17383
-0.88475
-6.40704
-5.63842
-1.13823
-0.394794
-6.38596
0
-4.90263
-0.753824
-0.646051
0
-5.44354
-1.25518
-2.95629
0
-2.09865
0
-1.56672
-0.545546
0
-5.59236
0
-7.67981
0
-7.86241
-7.05862
0
0
-0.0836851
0
-1.30402
-0.498048
-0.387181
-2.85674
0
0
-7.91712
0
-4.52559
-2.78674
-1.30712
-3.78742
-6.30058
0
-0.0981311
-0.33372
0
-2.10891
-0.993577
0
-2.66737
0
-6.04304
0
0
-0.362264
-1.07297
-1.79833
-3.41711
0
-2.10469
-3.79053
-0.109678
-2.26349
0
0
-4.55264
-1.93074
-4.44614
0
-0.609209
-3.33583
-0.714186
-0.0732931
-1.26808
0
0
-7.55909
0
0
0
-0.107276
-2.32425
0
-2.05175
-1.16709
-1.65907
-3.97516
-3.5888
0
0
0
-2.00289
-2.8352
-1.07899
-4.22265
0
-6.55163
0
-0.903774
0
-0.315102
-1.95915
-2.52153
0
0
0
-7.72745
-2.95275
-1.70059
-3.29963
-2.33073
-5.3056
-4.19088
-2.13503
-5.49322
0
-6.15161
0
-5.42356
0
0
-0.997087
-6.85342
-0.0924202
0
0
-3.27901
-1.94856
-1.90008
-0.254574
-1.29797
-0.0732347
0
-5.51184
-0.665021
-5.59693
-1.5873
0
-2.31115
-1.23232
-1.67852
-0.509077
-3.37321
0
0
-5.41456
0
-1.74895
-3.57039
-0.74796
0
0
0
-4.3149
0
-3.50713
-3.42235
-3.36007
-0.884477
-1.68396
-2.78891
-6.34243
-1.70229
0
-3.04859
-1.93387
0
0
-0.628329
0
-6.61986
-2.80501
0
-7.68826
0
-4.55517
-0.0746017
-4.70859
-4.43352
-0.815598
0
0
-5.60608
-0.0516357
0
-4.6886
-3.86623
0
-1.37442
-1.42342
0
-8.47866
0
-1.47192
0
0
-6.41019
-0.900039
0
-3.71082
-4.60275
-0.160587
-5.55393
-3.95042
-2.50857
-2.9278
0
0
-1.46797
0
-1.16804
-2.48146
-5.96416
-0.952251
0
-1.46687
0
0
-7.22597
-3.54689
-3.39187
-4.33191
-2.53652
-3.92774
0
-2.1347
-2.7573
-3.9626
0
0
0
0
-3.34115
-2.98886
-2.39656
-1.60041
0
-4.754
-1.09798
-4.45147
-2.21476
-1.67237
-1.32712
-1.86056
-1.03469
-1.71085
0
-2.94263
-7.68677
-6.94962
-1.97103
-2.03493
-4.10788
-0.375652
-1.47845
0
-4.28126
-0.871577
-0.0902405
0
-1.86839
0
-2.51329
-7.0888
-5.75587
-1.27
-2.42567
-0.818199
-4.94295
-1.63509
-5.77104
-0.675541
0
-4.52573
0
-4.06307
0
-2.68785
-0.318346
0
-5.18624
-2.35655
-0.542982
-1.52044
0
-9.41002
0
-6.60922
0
-2.76815
0
-1.41797
0
-3.18673
0
0
-3.11371
0
-1.89752
0
-0.577943
-0.149138
-3.54174
-7.79152
-2.20771
-6.63208
0
-1.10966
-1.4538
-0.528062
-7.65586
-0.66928
-4.54771
0
0
0
-7.17367
0
-0.288176
-1.00113
-3.2041
0
0
0
-1.14072
-5.83574
0
-4.98233
-3.04932
-4.65814
-3.8246
-1.47189
-3.89832
-4.75312
-3.04219
0
-5.48717
0
0
-4.70695
-4.14397
-5.33933
-0.36076
-6.09267
-1.16843
-1.37788
-2.37796
0
-0.403409
-0.123674
-3.77904
-3.14988
-0.261385
-8.06691
-1.04997
-9.69118
-0.673143
-1.11266
0
-0.72966
-0.89261
0
0
-8.51745
-2.935
-4.9159
0
-3.59063
-1.07924
0
-0.881783
-3.50957
0
-0.529022
0
-2.3117
0
-6.8814
-4.09401
-0.159528
-1.61208
-4.08305
-5.52556
-1.2038
-0.298168
-4.85953
-2.02436
0
0
-5.42152
-3.84718
-4.18321
-0.271531
0
-0.569487
0
-5.26965
0
-7.0818
0
-1.57421
-0.933751
0
-3.96632
-0.228805
-3.82574
-4.96528
-4.79838
0
-0.224242
-2.009
-2.61589
-0.240288
-4.27071
-0.561797
-0.363309
-4.30525
-0.139189
-3.5528
-4.24084
-4.32785
-0.134456
-1.32042
-1.1666
-3.49267
-3.20372
-0.605568
-5.8505
0
0
-0.946711
-2.2075
-1.46475
-2.69605
0
0
-0.736074
-2.09848
-4.10887
-2.44083
-4.98305
-1.3
-4.32858
-2.5195
-1.13794
-1.13453
-1.16
-0.163553
0
-9.90282
-0.446383
-4.32734
-1.32652
-2.20952
-1.64552
-0.32755
-1.05506
-0.993257
-0.0221355
-5.42623
-3.64896
-5.68541
-0.509452
-0.850353
-2.44373
-4.64785
-5.77311
-1.67263
-0.726117
-1.17692
-1.89314
0
-6.58216
-1.3431
-0.153904
-4.52917
-3.92821
-1.95994
-4.68097
-3.03911
-0.764241
-2.18536
-5.11142
-0.614572
-7.19906
-0.0696062
-8.02161
0
-5.27192
-1.72329
-1.17686
0
0
-1.94932
-1.30874
-8.53313
-5.01812
-4.55066
-4.13514
0
-2.92127
-2.88161
0
-2.65309
0
-8.1986
0
-0.899651
0
-0.300818
-1.84427
-4.09676
-2.9843
-3.23314
-1.0499
-6.7723
-1.47262
-4.39187
0
-4.18249
-0.507526
-1.76446
-0.0747579
-2.66477
-5.34402
-4.65694
-3.6453
-2.13818
-4.09694
-0.447091
0
0
-0.676042
-5.63669
-2.37372
-1.63016
-1.03128
-0.556035
-5.20047
-2.3589
-7.46549
0
-1.3065
0
-12.8498
-2.80208
-2.71948
-1.22252
-4.97528
-2.49064
-3.94867
-0.710538
-9.44349
0
-2.36046
0
0
0
0
0
0
0
0
0
0
0
0
0
0
0
0
0
0
0
0
0
0
0
0
0
0
0
0
0
0
0
0
0
0
0
0
0
0
0
0
0
0
0
0
0
0
0
0
0
0
0
0
0
0
0
0
0
0
0
0
0
0
0
0
-0.514562
-1.19515
-0.0142007
-1.33796
-1.29858
0
-1.96569
-0.835875
-0.205647
-0.894273
-0.246247
-3.63688
-0.650075
0
-1.28809
-0.98692
-0.210478
-0.954852
-0.0287692
-1.11688
-1.32274
0.00749411
-2.04265
-1.13291
-0.283768
-0.392344
0
-1.41178
-1.73139
0
-1.72782
-0.956904
-0.259943
-2.97542
-0.0777406
-0.569808
-1.69632
-0.0106436
-0.114675
-1.6546
-0.920137
-4.48975
0
-2.52155
-0.0663295
0
-1.63669
-2.48214
-0.0884582
-2.68927
-0.24486
-1.35153
-2.76474
0
-1.12843
-1.76911
-1.24428
-1.46332
0
-2.73729
-1.17925
0
-1.6421
-0.458082
-1.35637
-5.28109
-4.75744
-3.17975
-1.83492
-3.04378
-4.70104
-0.541727
0
-4.50225
-4.64291
0
-3.48136
-0.179247
-4.13637
-5.06224
-2.18175
-3.85457
-4.78822
-3.8586
-3.63102
0
-4.67141
-6.69207
-0.0405689
-5.67584
0
-7.38323
-0.762337
-2.53756
-1.97701
-0.554412
-1.0696
-0.0913586
0
-1.66774
-4.11092
-2.83583
-4.67038
-3.0433
-2.71128
-1.12876
-3.47545
-0.598958
-0.264877
-2.8765
-0.54457
-7.38867
0
-1.20807
-1.76123
-0.651386
0
-0.398385
-2.11461
0
-6.55902
-6.7431
-0.985561
-0.534495
-0.525536
-2.24786
-0.297409
-2.09001
0
-0.718797
0
-5.34122
-0.249791
-0.81352
-3.21759
-1.67461
-0.14747
0
-3.80564
-3.04916
-0.779179
-0.190861
-5.4915
0
0
-1.9288
-1.16697
0
-6.71415
-1.27599
0
0
-8.49828
0
0
-0.820931
0
-0.927608
-3.56597
-5.70729
-3.88785
0
-4.30598
-1.99657
-0.204408
-3.54693
-1.43392
-0.0799224
-1.19203
-0.807088
-0.758129
0
0
0
-3.26626
-0.323221
-3.62899
-4.06124
-1.9725
-0.945339
-5.52921
-3.36024
-0.268836
-2.01768
-4.52595
-2.54428
-6.8819
0
-0.454147
-0.757216
-5.30331
-3.1141
0
-9.38841
-4.13972
0
-3.22532
-6.20707
-1.68042
-4.28275
0
0
0
-5.38554
0
0
-5.78605
0
-0.102957
0
-1.1594
0
-5.08184
-0.658388
0
-1.82238
-2.03515
-4.48594
-3.82878
-4.52352
-5.16847
0
-1.03574
0
-0.578289
0
-2.98055
-3.28171
-0.864614
-2.52469
-4.78543
-0.838111
-6.70089
0
-2.82649
0
-3.65499
0
-1.57428
0
-0.883891
-1.37659
-3.86468
-0.0235018
-1.85985
-0.385373
0
-3.91471
-1.38225
-4.60739
-2.62798
-4.94144
-1.65109
-1.8391
0
-5.06655
-5.0429
-2.81104
-2.44545
0
-6.10945
0
0
-5.03484
-1.60577
0
-6.92694
0
-5.66088
-1.09304
-0.252178
-1.84958
0
-7.69838
-1.6785
-2.78765
0
0
-1.56473
-6.96504
-1.56116
-3.31876
-3.40777
0
-5.71729
-0.0143613
-0.887166
0
-1.78782
0
0
-2.53684
0
-2.15909
-0.177217
-1.79005
0
-2.43234
0
-6.56587
-1.71349
-7.04475
-2.17991
-0.438606
-2.21059
-0.2824
0
-10.4047
0
-3.91496
-0.963644
-2.91228
-3.01633
-2.36208
-3.96332
-1.28534
-0.375961
-2.03983
-4.42866
-1.78674
0
-2.60375
0
-4.59099
0
-4.66029
-1.91513
-0.0906302
-1.42178
0
-4.77641
-0.970283
0
-0.709626
-2.31594
-0.355111
-1.29046
-3.12247
0
-3.23223
0
-8.79363
-0.236274
-11.1648
-0.783127
0
-1.00228
-3.47381
-0.969111
-3.10694
-3.84642
0
-1.18167
-0.594578
-0.87396
-3.9513
-4.48543
0
-3.38465
-3.10839
-12.0217
-1.2735
-4.71482
-0.236537
-1.99306
-0.357312
-2.71673
-0.017925
-1.556
-0.125854
-0.129774
-4.19866
-3.53953
0
-4.02586
-0.760771
-3.01695
0
-6.1271
0
-8.09512
-1.95461
-3.17701
-2.94156
0
-3.54285
0
-0.854714
-2.37788
-0.215867
-3.57246
0
-7.12501
0
-2.53043
-1.78373
-5.25045
-1.49954
-1.96267
0
-2.33736
0
-2.02771
-0.238403
-1.96329
-2.31035
0
-0.982625
-3.45197
0
0
-0.272074
-1.22265
-0.552787
-5.93932
0
0
-5.84552
-0.581897
-1.97542
-2.52302
-6.63014
-3.21457
-4.10524
-2.78959
-2.25195
-0.952387
-0.707713
-2.53563
-0.114949
-1.45864
-6.1047
-7.78498
-2.39848
-3.85976
-2.75138
-1.5272
0
-4.12946
-1.35122
-5.40497
-0.61483
-8.65143
-0.346544
-5.39491
0
0
0
-3.23957
-2.08959
-6.41635
-3.30709
-0.394592
0
-2.07208
0
-4.81972
0
-8.74196
-0.0213215
-3.80377
-3.60572
-0.650861
-8.11309
0
0
-5.60389
-0.281228
-6.47222
-2.42163
-1.70809
0
-1.7564
0
-5.79926
0
-6.45818
-0.776647
-1.42752
-4.20846
-0.860457
-0.277641
-4.21072
-1.45542
-3.77564
-2.25121
-1.47522
-1.98518
0
-3.21651
0
-2.62269
-1.67515
-0.144874
-4.9387
-0.484084
-2.66524
-1.53793
-2.00158
-0.521826
0
0
0
-1.40862
-2.44296
-4.4259
-2.97386
-2.25563
-11.0909
0
0
-2.0841
0
-0.0879622
-4.90579
-1.66673
-1.73811
-0.642766
-1.62129
-2.5115
0
-1.26721
0
-1.20331
-4.75512
-7.17833
0
0
0
-6.92855
-3.19433
0
-1.82428
0
-1.64015
-1.32811
-7.16604
0
-0.267411
-0.422953
0
-5.80937
-3.27204
-5.97821
-0.219967
-7.28595
-1.00187
-4.11407
-1.43936
-2.30297
-0.866171
-4.40207
0
-6.90748
-9.64566
-1.48267
-3.65992
-7.26754
-0.717527
-3.53417
-0.562773
0
-1.21118
-4.92073
-0.813744
-1.43551
0
-0.893721
0
0
-2.64123
-2.91592
0
-3.92094
0
0
-1.00311
-3.08604
0
0
-0.311752
-2.85433
-1.9893
-6.57355
-1.19305
-1.60935
-7.9604
-5.01681
-4.91576
-3.42816
-1.39384
0
-2.76401
-2.33098
0
0
0
-3.95638
-5.55148
0
-2.57333
0
0
0
-7.09493
0
0
-6.39212
0
-5.05323
-0.256194
-6.16921
-0.75309
-2.31022
-4.06278
-2.31224
-2.64836
0
-5.57439
0
-4.2834
-1.22464
-8.74535
0
-7.65902
-0.986061
-0.417645
-0.266666
-1.34761
-1.97203
-2.29361
-0.433438
-4.00964
0
-5.7334
0
-4.26452
-0.0496994
-2.70196
-0.643104
0
0
-1.13936
-1.82363
-0.981778
-0.0276919
0
-4.79871
0
-6.27768
0
-12.3582
-1.14932
-5.88387
0
-1.19313
-10.0008
-2.24426
-8.69181
-1.12866
-6.58847
0
-0.604083
-7.53027
-2.20896
-3.31252
-5.09441
-2.38644
0
0
-1.06076
-0.358313
-6.44107
-0.255395
-0.72571
0
-2.58514
-1.6229
-7.38038
0
-2.67285
-4.72256
-2.28906
-1.08774
-4.46006
0
-4.71442
-0.490935
-2.12508
0
-3.53631
0
-2.81221
-6.12108
-1.87789
-7.48617
-2.11638
-2.9239
-2.67765
-3.46007
-0.786407
-1.53935
0
-0.438065
-7.44293
0
-3.37692
-0.0864039
0
0
-2.91333
-5.92144
0
-8.30538
0
0
-2.91486
0
-0.812664
-6.70775
0
-0.423881
0
-3.84758
0
-3.769
0
-9.76478
-0.120047
-7.12005
0
-8.58405
0
-3.47478
-0.740726
0
-1.04753
-5.04258
-1.47306
-0.462333
-3.6964
0
0
-5.38723
-0.719118
-2.89652
0
-8.15142
-4.18612
-0.794175
-2.06894
-0.474831
0
-3.82409
-1.41895
-0.879721
-2.58727
0
0
0
-0.844618
-1.48447
-2.57646
0
-1.92481
-0.318202
-3.66859
-6.9103
-1.53413
-2.69314
0
-2.48102
0
-0.332939
-6.55927
-1.20758
0
-3.77847
-2.14661
-2.34173
-0.0417354
-2.96867
0
-4.50702
-1.34231
-0.297958
-1.72665
0
-2.63271
-1.31231
-0.127152
0
-4.35747
-1.41938
0
-3.40601
0
-7.03415
-1.27843
0
-2.37165
-0.433607
0
-2.3643
-3.66582
-1.63149
0
-5.99477
0
0
0
-1.03604
-1.62452
-6.10825
-0.965133
-6.46284
-5.00682
-10.6452
0
0
-4.51471
-0.956117
-4.71414
-0.767901
-0.0255924
0
-6.61896
-3.30285
-5.57306
-1.95997
-2.12769
-5.95159
-1.66728
-2.85274
-4.14442
0
-1.03009
-4.58011
0
-7.76848
-0.298438
-3.70928
-0.204902
-0.861127
0
0
-5.86849
0
0
-4.85007
-0.702381
-5.68094
-0.387332
-7.07526
0
-3.34842
-3.01193
-4.28527
-1.97061
-3.67724
-1.3581
-1.5843
-2.12499
-1.02454
0
-1.45969
-2.15723
-2.52603
-1.39737
-1.28253
0
-0.628527
-2.6021
-8.40619
-2.89383
0
-2.32032
0
-3.06887
-1.23478
-0.238932
-2.68998
-1.97246
0
-2.18442
-2.74235
-3.91222
-0.25291
-0.475409
-0.374235
0
-6.49815
0
-1.7881
0
-3.11427
-0.307154
-3.51329
-2.7146
-2.31479
-1.86826
0
0
-1.9311
-2.20908
-0.286721
0
-3.0781
-4.53954
0
0
-2.31628
-3.82472
-0.444664
-2.91017
-3.38131
-0.927788
0
-2.96342
-0.988352
-0.775521
-1.97221
-6.10346
0
-2.02283
-2.03445
-0.293213
-5.43214
-2.00347
-3.08353
0
-1.29592
-0.873422
-0.321827
-8.34233
-3.31441
-7.50096
-4.36171
-2.44151
-1.65582
-1.98749
-3.87993
-4.36559
-4.21299
0
-2.38194
-2.36842
-11.7655
-3.29567
-0.777971
-6.18543
-0.403695
-10.5619
0
-5.70967
-7.74774
-2.39799
-2.49692
-0.739929
-5.68274
0
0
0
0
0
0
0
0
0
0
0
0
0
0
0
0
0
0
0
0
0
0
0
0
0
0
0
0
0
0
0
0
0
0
0
0
0
0
0
0
0
0
0
0
0
0
0
0
0
0
0
0
0
0
0
0
0
0
0
0
0
0
0
0
0
-0.547592
0
0
0
0
-0.184342
0
0
0
0
0
0
0
-0.366927
0
0
0
0
-0.129555
0
0
0
0
0
-0.171017
0
-0.039386
0
0
0
0
0
0
0
0
0
0
0
0
-0.0463296
0
0
0
0
0
0
0
0
0
0
0
0
0
0
0
0
-0.167609
0
-0.0198429
0
0
-0.0808368
0
-2.13685
-0.115938
-0.901303
-0.0590423
-4.3355
0
-0.292117
-0.737037
-3.67124
0
-3.2354
-0.615184
0
0
-4.21359
0
-3.92509
-0.18516
-0.754022
0
-6.27544
-0.687471
-5.16568
0
-2.05876
-0.424561
-6.02059
0
0
-1.57798
-0.113852
-1.54765
-3.44389
-2.07767
0
-1.22344
0
-1.75752
-1.41859
-5.35717
-2.97851
-8.76092
0
-7.03351
0
-8.60941
0
-0.0804041
-0.559966
-4.27319
-0.946825
-1.50461
0
0
-0.331219
0
-3.80508
-4.03088
-2.32269
-5.81117
0
0
-2.48317
-1.11793
-2.42494
-2.12682
0
-2.51751
-1.79155
-4.19299
0
0
-4.12615
0
-0.639751
0
-2.44138
-4.47487
-0.362383
-0.116336
-4.90458
0
-0.157086
-7.30049
0
-0.0667089
-5.44263
-1.04801
0
-2.7573
-3.29384
-6.26684
-0.0813394
-5.85093
-2.10353
-1.01345
-1.3958
-10.6161
0
-3.41953
-0.833406
-0.500654
-2.56343
-1.25913
0
-3.17696
-4.572
-4.68635
-6.2364
0
-1.01636
-7.60636
-1.25602
0
-1.4368
0
-0.249152
-2.90006
-5.9836
-0.577218
0
0
-0.567098
-0.604777
-3.553
-0.587433
-0.412043
0
-8.32941
0
-3.63731
0
-4.17474
0
-0.143858
-0.84733
-2.43625
-2.01756
0
0
-0.187591
0
-0.685425
-0.0817294
-4.45178
-5.40605
-1.97283
-3.57724
-3.74691
0
-6.48815
-0.330438
-4.36844
0
-0.804771
-2.38597
-2.2286
0
-5.79446
0
0
-0.373149
-2.93836
-2.20425
-2.50352
-0.360199
-1.15994
-1.65684
-2.61881
-1.29119
-9.41879
0
-7.62552
-1.03809
-6.93903
-1.9042
-7.03456
-0.99054
-0.0746142
-5.92308
0
-0.229755
-5.48861
-0.591145
-2.84851
-1.66852
-2.52003
-0.216955
-4.82715
-2.62664
-1.80075
-0.40995
-2.52706
0
-3.01241
-0.357013
-0.502682
-0.222801
-4.34432
0
-6.74488
-1.01896
-5.00571
-1.03666
-1.38364
-0.7469
-4.80137
-4.41977
-2.35755
-1.06198
-1.58103
-0.559431
-3.82467
-4.84338
-4.52893
-1.64112
-1.29319
0
-6.12807
0
-3.42109
0
-3.59274
0
-1.08435
-4.38834
0
-5.29699
0
-0.387203
-4.02324
0
-1.3908
-3.82355
-0.432092
-0.290782
-1.05799
0
-1.38303
-2.26411
-1.95448
-5.86152
-0.900175
0
-3.33307
-0.372098
-4.12988
-0.17783
-0.147841
-1.33273
-2.35395
-6.11756
-2.16506
-0.358725
0
-2.46708
-9.48222
0
-5.88491
0
-5.32913
0
-0.583536
-4.21932
-3.12872
-6.47105
0
0
-6.89888
-0.260125
-1.82476
-1.25276
-2.76495
-2.28576
-4.38887
-1.56318
-0.846344
-1.41403
-0.0438611
-0.596177
0
-5.26408
-4.11943
0
-0.224904
-0.738043
-4.16648
0
-0.139552
-7.09796
0
-0.988247
0
0
-8.27645
-0.206034
0
0
-0.0637836
-2.71496
-5.25499
0
-1.22847
-1.49513
-3.68147
-0.558735
-5.61183
0
-1.7213
-0.0819558
-4.41813
-1.90123
-1.39282
0
0
-0.623198
-1.28752
-3.34584
0
-1.65733
0
-0.822836
0
-4.15119
-2.13077
-3.28961
-0.0274278
-1.47986
0
-4.06033
-5.12098
0
-0.370404
-3.50922
0
-7.06207
-1.37002
-9.00409
-2.04015
0
-3.60386
-0.0987732
-3.33457
-0.80133
-0.475391
0
-4.58506
-1.12553
-4.15694
0
-1.03669
-10.3708
-5.04258
-0.39934
-3.74554
-1.46922
-1.17616
-4.04256
-1.91866
-3.27337
0
-7.21487
-2.96609
-5.85555
-3.54894
-5.24367
-1.67327
-6.45892
-0.0896371
-0.905775
-0.315949
-2.45748
-2.78512
0
-3.21902
0
-1.35216
0
0
0
0
-3.60503
-3.92929
-1.77657
-0.385999
-0.580909
0
-7.88686
-0.686171
-7.54156
0
-5.70783
-0.317644
-1.13665
0
0
-7.91033
-1.82816
-2.21364
-1.17653
-4.5649
0
-0.995803
0
-2.79489
0
-0.911762
-0.683996
0
-3.19483
-0.242718
-0.655763
0
-2.13828
-1.65865
-0.269275
-1.0169
-6.03327
0
0
0
0
-3.54843
-5.00573
0
-0.701656
-4.61682
-4.65285
-3.56321
-0.529536
-1.18993
0
0
-0.151398
-2.55553
-1.21163
-6.88504
-2.24474
-1.17285
-0.754981
-2.05931
-1.85895
-0.182451
-0.777282
0
0
-6.60582
0
-5.65255
-4.68296
-0.361996
-0.299668
0
-2.65652
-0.880032
-6.53286
0
-5.5061
0
-2.06364
0
0
-0.0931121
-7.47428
-2.32567
-0.404473
-9.29784
-0.758808
-3.28525
-0.944553
-1.69392
-6.7095
0
-0.943862
-1.35613
-6.44525
-2.52261
-9.05317
-2.52859
-4.83931
-0.377171
-1.4229
-0.996165
-1.407
-5.56227
-4.07825
-1.52996
0
-0.877115
-3.71482
0
0
-5.90039
-0.352395
-3.5632
-1.39698
-6.90872
-3.49507
-3.77583
-0.0356592
0
0
-0.13176
-5.73633
-0.360478
-3.73988
-0.40524
-2.59075
-3.33492
0
-2.41255
-3.15997
-5.41457
0
-8.61624
0
-6.85411
0
-1.33027
-5.79805
-1.54142
0
0
0
-2.32084
0
-1.40706
-4.99531
0
0
-4.02646
-7.15571
-4.37779
-1.41402
-1.57562
0
-6.02539
-1.70322
-8.2926
-0.3775
-4.28169
0
-5.6575
0
-5.91958
0
-3.38333
-1.09549
-3.47094
-2.4216
0
-5.5712
-3.91434
-3.34793
0
-2.71418
-0.794647
-0.965704
0
0
-2.76139
0
-7.53568
0
-3.07878
0
-0.0831286
-3.08673
-0.780928
0
0
-1.04627
-3.45158
-3.56995
-1.98057
-1.5731
-3.23784
-2.17743
-4.35616
-1.72691
0
-6.19043
-2.28845
-2.39244
0
-3.01387
0
-0.342291
0
-1.79143
-0.390194
-8.12708
0
0
-3.60956
0
-5.58414
-3.64064
-3.77866
0
-3.96685
-1.36015
-3.59307
0
-7.48433
0
-8.98275
-0.852436
-2.26144
-1.53655
-7.33219
-2.0996
-1.55558
-1.29229
0
-1.79202
-4.22925
-1.22631
-0.90887
-1.77773
-1.12475
-3.13625
-3.51826
-4.8077
-1.23398
-0.272874
-5.14154
-0.0956286
-5.37856
-0.334197
0
0
-2.49535
-0.070191
-1.55971
0
0
0
-0.30718
-2.63934
0
0
-3.58833
-0.387353
-3.5094
-2.54655
-5.39513
-4.36496
-1.32355
-5.13867
0
-11.1423
0
-9.39417
-0.369893
-1.3516
-2.47326
-1.1299
-4.88514
0
0
-6.37938
0
0
0
-2.27826
0
-5.02591
-1.61179
-5.44867
-1.12366
-4.08341
0
-5.18907
0
-9.12088
0
-8.77257
0
-3.48964
-0.972294
-10.2176
0
-2.78512
-3.46252
-0.147687
-1.61789
-2.54319
-0.157066
-1.39316
0
-6.11023
-0.19757
-0.337363
-4.56753
0
-4.07693
-0.183575
-2.01534
-0.243765
0
-1.41354
0
-0.387338
0
-3.76211
0
-1.19143
-2.99633
0
-0.78441
0
-2.41537
-1.91583
0
-0.283534
-5.02549
-0.77504
-4.97694
-2.38445
-5.94883
-0.656174
-7.29111
0
-4.85703
-0.365552
-1.78236
-0.462183
-2.17653
-0.828141
-4.05392
-1.63124
0
0
0
-7.52202
-0.763447
-6.18869
-1.0343
-3.6131
-0.141178
-8.84473
-2.17617
-3.07389
-0.725621
-1.5095
0
-3.46449
0
-0.254773
0
-1.04175
-4.24714
0
-7.9573
-9.31746
-1.01407
-1.00423
-3.106
-0.668969
-7.08416
0
-0.436065
-1.64101
-1.67479
-3.85552
-7.43914
0
-3.32441
0
0
-3.08548
-3.79361
0
-0.841016
0
-2.7375
0
-3.68068
-2.65291
-3.80508
-1.1998
-1.73862
0
0
-0.666972
-0.209784
-1.69013
-0.812244
-2.43653
-0.368073
-0.848142
-0.864733
-3.76656
-4.19168
0
-1.81731
-1.75406
-3.23547
-1.83829
-0.192893
-5.03992
-0.777303
-3.83627
-2.56466
-3.82128
-0.252563
-6.92478
-0.564222
0
-0.173943
0
-5.89938
0
-4.61252
-7.98773
-4.57662
-0.971155
0
-2.72681
-4.28653
0
-0.62278
-1.49502
-4.2282
-0.286981
-3.47439
-4.62384
-1.65768
-5.81269
0
-4.98168
-4.80615
0
0
0
-0.301268
0
-7.24896
0
-1.64714
0
-7.87896
0
-4.31681
-3.0648
-1.56461
-1.96044
-0.881643
-4.05107
-0.313929
0
-2.5592
-6.52286
-1.32864
0
-2.75394
-0.909866
0
-0.865229
-3.08095
-2.01978
-3.33969
-0.20814
-1.43268
-0.988599
-0.34706
-3.63354
-4.23097
-2.46775
-3.53482
-1.79857
-0.351961
-6.78216
-4.3667
-9.44858
-2.77095
-3.3018
-2.95408
-3.40993
-1.89456
-2.98866
0
0
-2.37396
-0.301373
-7.80416
-2.26052
-4.60485
-3.28156
-6.15521
-0.713977
-6.41903
-4.22428
-5.83729
-1.15221
0
0
0
0
0
0
0
0
0
0
0
0
0
0
0
0
0
0
0
0
0
0
0
0
0
0
0
0
0
0
0
0
0
0
0
0
0
0
0
0
0
0
0
0
0
0
0
0
0
0
0
0
0
0
0
0
0
0
0
0
0
0
0
0
-0.283776
-1.85633
0
-0.882236
-1.30671
0
-1.55901
-0.721972
-1.21615
-2.45306
0.0214772
-1.51901
-0.911442
-0.0293629
-1.35709
-0.888783
-1.64838
-2.3853
0.118559
-0.614139
-0.704499
-0.463829
-1.69926
-0.453609
-0.397833
-1.04636
0
-0.981825
-1.66519
0
-2.37907
-0.647976
-0.570654
-0.124994
-0.559282
-1.28509
-0.242082
0
-0.56589
-0.0638972
-0.0612552
-1.33029
0
-0.0248448
-3.84965
-0.0458732
-0.807211
-2.20778
-2.11821
-1.32283
0
-3.65543
-0.18719
0
-0.425969
-0.0542224
-0.141572
-3.28799
0
-1.02708
-1.8516
0
-0.167877
-0.42608
0
-2.06216
-2.06527
-1.49753
-2.36381
0
-7.19979
-0.411282
-2.06866
0
-5.47749
0
-9.22133
-1.52192
-6.83323
-1.8785
-1.36843
-4.71268
-1.04194
-5.0726
-2.38856
-0.839164
-4.47734
-0.0420557
-5.06138
0
-1.84944
-5.14737
-0.605719
-1.01646
-5.23792
-2.5082
0
-0.314514
-3.92664
-7.15644
-1.91665
-4.70838
-0.345696
-5.39986
-0.305331
-6.42496
-2.50196
-4.73771
-3.1394
0
-3.34696
-2.88163
0
-2.98882
-1.57442
-1.49942
-4.81034
-2.61897
-1.22873
-3.01119
-0.310972
0
-3.42897
-2.64099
-5.16817
-2.68413
-0.369425
-0.435984
-2.03047
0
-4.54981
-0.613773
0
-1.48441
0
-1.48155
0
0
-7.5528
0
0
-3.66757
-0.45352
-4.19166
-0.851415
-1.49323
-3.13582
0
-1.92983
-5.22942
0
0
-7.33183
0
0
-4.90908
0
-3.96695
-5.35086
0
0
-0.280877
0
-4.4686
-0.159401
-7.31845
-0.461501
-4.24601
-5.0167
-5.39131
-4.18705
-0.0226964
0
-6.4411
0
0
-3.11175
-3.86446
-0.281742
-2.57152
-1.72143
-0.417152
-0.207695
-7.4069
-0.456179
-5.14467
-2.03456
-3.80656
-1.72914
-2.7395
-0.539264
-4.84617
-4.22768
0
-3.61364
0
-1.67249
-1.99826
-4.37702
-0.20077
0
0
-6.82856
0
-3.72726
-2.07022
-2.43229
0
-0.168943
0
-0.425489
0
-0.0585428
-5.20158
0
0
-4.59366
-1.98529
-6.28782
-4.52377
-2.19412
-2.10659
-6.07553
0
-7.12173
-1.20945
-0.569902
-0.757931
-2.41407
-5.94259
-0.813642
-6.94416
-2.24373
-2.50357
-0.56678
-2.75206
-2.30326
0
0
-0.947209
-0.00966544
-3.17991
0
-3.96317
-0.431294
0
-1.36396
-0.00510901
-5.26645
-1.39115
-2.45251
-3.84413
-2.34374
-0.970395
-7.06938
-0.357234
-0.902482
-3.13332
-2.655
-1.48767
-5.96184
-1.36412
-1.2501
0
-0.875171
-4.56771
-0.063908
-3.51331
0
0
-2.15136
0
-1.7893
-0.90941
-3.22262
-2.71133
-3.51596
0
-4.88008
0
-3.00542
-2.06982
-5.36867
-0.59084
-5.57082
0
-0.362277
0
0
-1.54268
0
0
-0.0030377
-2.4478
-0.0104389
-4.75095
-2.65353
-0.152956
-9.03995
-2.99119
-1.8775
-5.69457
-4.54639
-2.80868
-2.9335
-0.531504
0
-5.79158
0
-2.22332
-0.0180535
-7.22015
-0.0596775
-6.39782
-5.28359
-1.00259
0
-7.9005
0
-3.96867
-6.21998
0
-2.5353
0
-0.242721
-3.95965
-2.18466
-2.42441
-0.951393
-2.19337
-4.28055
-2.43339
0
0
-0.974622
-0.18819
-1.22676
-2.16079
-1.89164
-0.857482
-7.36073
0
-7.84047
-0.734302
-2.42196
0
0
-8.3757
-2.2698
-8.20405
-1.02793
-3.34819
0
-1.38109
-2.47777
-4.37578
0
-8.0204
0
-3.46012
-0.114334
-3.01713
-1.1455
-0.0557707
-1.08271
-8.73394
0
0
0
-0.845108
0
-6.37584
-0.307784
-5.00346
-0.551208
-0.740175
-2.74627
-7.07951
-3.52532
-4.76475
0
-1.80712
0
-2.59773
-1.1799
-2.92805
-4.37697
-2.2607
-2.66221
-2.18287
-0.656277
-2.92546
-2.31242
-0.750218
-0.3063
-0.756197
0
-6.99008
-2.37681
0
0
-0.27252
0
-5.15348
0
-0.167858
-0.0627466
-2.70925
-6.06709
0
0
-4.9364
-0.484868
-5.96909
-0.586235
-3.75393
-1.80435
-3.25292
-1.32521
-0.785937
-7.8931
0
0
-4.06874
0
-1.35563
0
-2.81577
0
0
0
0
-4.68598
-0.823425
-2.35291
-0.8179
0
-2.81845
-2.53285
-0.117816
-4.53361
-6.73948
-1.39326
-5.79879
-0.469301
-4.30213
0
-0.14514
-1.77905
-3.21535
-5.04776
-0.0134641
0
-3.14135
0
-3.97093
0
-4.25745
0
-3.37871
-0.207997
-0.776962
-3.83875
0
-0.0282132
-0.435343
-6.22625
-5.8477
-3.51358
-4.89805
-0.204291
-3.16519
-2.13665
-4.44227
-0.0138244
-3.44813
0
-1.83655
0
-9.43746
0
0
-3.35261
-3.1151
-7.98399
-6.91943
-1.78419
-2.09829
-3.86133
-1.75224
0
-3.09318
-0.0723974
-0.922922
-2.87045
-1.88995
-5.61757
-1.69844
0
-0.45356
-2.14341
0
-5.17979
-1.75596
-2.22675
-0.425565
-0.438929
-2.95092
-0.866823
-3.56509
0
-0.238136
0
-1.97749
0
-2.25751
-3.26232
0
0
-1.87006
-0.681929
-3.03206
-4.06512
-0.098109
0
-3.09875
-5.95312
0
-0.478371
-4.02991
-0.554693
-3.44695
-0.951518
-2.8311
-3.5484
-1.79122
-2.72301
-5.64264
-1.73579
0
-2.16397
-1.25784
0
-3.15369
-0.542003
-0.663098
-2.19849
-1.28319
0
0
-6.89506
-8.32101
0
-1.30289
-0.102868
-0.441723
-5.21705
-6.88817
-0.369288
-1.75538
-1.66239
0
0
-5.09145
-0.763784
-7.78554
-1.16068
-0.140413
-5.69611
-2.4815
-6.04372
0
-0.200494
-2.78798
-2.40089
-2.59021
-1.7484
-1.87315
-0.388357
-7.62251
-2.15997
-4.94856
-6.55783
-0.721452
-3.42393
0
-0.23361
-4.47788
0
-3.35995
0
0
-3.35946
-5.70096
0
-2.13703
0
-8.09817
0
-8.1559
-0.337743
-3.11614
0
-0.990203
-1.60114
-0.258869
-1.29154
0
0
-2.89812
-3.39319
-0.158245
-3.27915
-1.696
-7.41643
-0.453089
-2.69784
-2.81711
-1.84694
-1.23792
-4.35937
-2.75138
-6.09518
-1.28204
-2.37622
0
-1.21786
0
-3.26828
0
-4.87842
-0.878266
0
-1.33135
-3.77801
-0.915686
-4.04399
-6.61558
-0.288305
-0.127778
-2.01348
-1.21946
0
-5.85415
0
-1.17515
-1.12573
-3.34451
-0.416307
0
0
-4.12787
0
-1.78826
-0.703022
0
-4.27165
-4.98102
-3.32236
-7.03147
-1.04862
-1.14412
-9.31098
0
-4.55705
-0.612252
-5.50778
-0.264675
-0.399634
0
-0.12076
-2.59716
-2.70339
-0.198944
0
0
-2.62119
0
-0.398462
0
-0.0725843
-7.2126
-4.86025
-6.9403
-7.00639
0
-0.468761
-1.56485
-2.62419
-2.55576
-0.0874182
0
-2.06901
-1.09857
-0.97612
-1.06603
-1.45648
-6.86924
0
-3.66561
-3.77902
-3.11154
-4.65886
-0.792665
-1.82201
-0.473349
0
-1.41518
-5.72549
0
0
-12.4648
-0.892352
-5.94841
-0.0214641
-0.17676
0
0
-2.96239
-2.92242
-3.40977
-1.65215
0
-0.936126
-3.9248
-2.24884
-1.33288
-5.16577
-3.5986
-0.682005
-0.880302
-2.61927
-0.247135
-1.95813
-0.14708
0
-6.13004
-3.88798
-0.4059
0
0
0
-1.29275
-5.21779
0
-3.25919
-3.15295
-6.52206
-2.69821
-5.22692
-0.676799
0
0
-3.68093
0
-0.177017
-2.37208
-4.29067
-1.02916
-1.2568
-2.56967
0
-2.84636
-2.9316
0
-1.85413
-7.72117
0
-1.77774
-3.13817
-0.619092
0
-0.998121
-0.063484
-6.20286
0
-8.1346
0
-8.46485
-1.19572
-2.96806
0
0
0
-1.95321
-1.51127
-3.36456
-2.37712
-2.65886
0
-1.15366
-2.79961
0
-0.177691
-2.48605
0
-5.85465
-3.30278
-0.192339
0
-1.84581
-1.93797
0
-3.78589
-1.9314
-1.546
0
-5.22093
-2.78363
-2.30931
-5.01338
0
-5.84814
-5.02343
0
-0.986512
-1.03035
-3.68788
0
-0.761642
-2.32374
-6.35142
-0.525523
0
-0.0613402
-0.664596
-4.10128
-5.95342
0
0
-0.128443
-4.75758
-1.50282
-2.16119
-0.878836
-0.770862
-3.18535
-4.49621
-9.45177
0
-2.90458
-3.20377
-3.64436
-0.201619
-6.66853
0
-10.3579
-2.60447
-4.30426
-0.42532
-7.28292
-6.33401
0
0
-9.53944
-1.29195
-10.8211
-0.673453
0
-3.36961
-4.50781
0
-2.14832
-1.84375
-0.602969
-0.636666
-2.83046
0
0
0
-0.38558
-2.7255
-2.86402
-2.114
-2.71223
-4.40074
0
-6.03949
-0.792118
0
0
-2.44237
-3.31522
-5.12281
-1.26137
-2.42774
-8.12185
-4.2674
-0.104218
-2.0565
-2.98652
-0.821357
0
-0.815134
-2.48164
-0.0746798
0
-3.30808
-2.73681
-7.09441
-6.44992
-1.48139
-0.536008
-3.10677
-5.92736
0
0
0
-1.64543
0
0
-6.84777
-2.38116
-8.07234
0
-6.78311
0
-0.135582
-3.11155
-4.94832
-7.79965
0
-5.38321
-1.7257
-0.893292
-0.644626
-1.65989
0
-1.9239
-0.0227071
-7.20963
-2.0108
-6.42516
-3.04129
-3.07655
-3.11323
-1.4177
-3.5318
0
0
-1.39324
-0.339281
0
-2.35199
-0.168726
-3.25522
-9.50999
-2.28057