<?xml version="1.0"?>
<VTKFile type="RectilinearGrid">
<RectilinearGrid WholeExtent="0 32 0 32 0 32" Origin="0 0 0" Spacing="1 1 1">
<Piece Extent="0 32 0 32 0 32">
<PointData>
</PointData>
<Coordinates>
<DataArray type="Float32" format="ascii">
0 0.524874 1.04975 1.57462 2.0995 2.62437 3.14924 3.67412 4.19899 4.72386 5.24874 5.77361 6.29849 6.82336 7.34823 7.87311 8.39798 8.92285 9.44773 9.9726 10.4975 11.0224 11.5472 12.0721 12.597 13.1218 13.6467 14.1716 14.6965 15.2213 15.7462 16.2711 16.796 
</DataArray>
<DataArray type="Float32" format="ascii">
-5.03879 -3.62163 -2.20447 -0.787311 0.629849 2.04701 3.46417 4.88133 6.29849 7.71565 9.1328 10.55 11.9671 13.3843 14.8014 16.2186 17.6358 19.0529 20.4701 21.8872 23.3044 24.7216 26.1387 27.5559 28.973 30.3902 31.8074 33.2245 34.6417 36.0588 37.476 38.8931 40.3103 
</DataArray>
<DataArray type="Float32" format="ascii">
0 0.524874 1.04975 1.57462 2.0995 2.62437 3.14924 3.67412 4.19899 4.72386 5.24874 5.77361 6.29849 6.82336 7.34823 7.87311 8.39798 8.92285 9.44773 9.9726 10.4975 11.0224 11.5472 12.0721 12.597 13.1218 13.6467 14.1716 14.6965 15.2213 15.7462 16.2711 16.796 
</DataArray>
</Coordinates>
<CellData>
<DataArray type="Float32" Name="Scalar" format="ascii">
0
0
0
0
0
0
0
0
0
0
0
0
0
0
0
0
0
0
0
0
0
0
0
0
0
0
0
0
0
0
0
0
0
0
0
0
0
0
0
0
0
0
0
0
0
0
0
0
0
0
0
0
0
0
0
0
0
0
0
0
0
0
0
0
-0.355964
-0.580024
0
-0.456355
-0.361399
0
-0.349641
-0.491194
0.00138775
-0.979353
-0.0084592
-0.156882
-0.416526
0.00692325
-0.410666
-0.319916
0.310921
-0.182535
0.0440619
-0.459463
-0.211585
-0.00411903
-0.239698
-0.236861
-0.135866
-0.23495
0
0.0836311
-1.1417
0
-0.468769
-0.582721
-0.825568
-0.99236
0
-1.83474
-0.268719
0
-0.352461
0
0
-2.27748
0
-0.0651646
-0.305213
-0.20721
-0.189925
-0.717982
-0.108607
-0.507056
0
-0.361951
0
0
-0.833707
0
-0.0959778
-1.77294
0
-0.440123
-1.24012
0
-0.592081
-0.648102
-1.58375
-2.36843
0
-3.33638
-2.67162
-5.23388
-0.501056
-10.393
-1.25866
-8.13848
0
0
-5.73919
-4.32714
-2.16641
-0.0899297
-0.507745
-4.59365
-2.75581
0
-2.62438
-2.81145
-4.69172
-0.797441
-9.79781
0
-7.18478
-3.4537
-2.98472
-0.3169
-3.27605
-3.14006
-4.3793
-2.11555
0
-0.348923
0
0
-9.45512
-2.13754
0
0
-8.43079
-0.733885
-0.893618
-9.05176
0
-0.579535
-2.57459
0
-1.37732
0
-5.1425
-0.168654
0
0
0
-0.996329
-0.32329
-3.83151
0
0
-1.27322
-0.612149
0
-1.59794
-8.48224
0
-0.403988
-6.04297
-0.0364144
0
-0.868559
0
0
-6.4617
-1.0059
-9.38232
0
-1.05397
-3.40085
-7.15164
0
-6.27609
-1.26899
-6.49395
-4.99699
-4.31253
-1.92421
-1.47192
-3.66842
-2.02111
-0.643214
-2.96633
-5.50008
-0.534359
-0.88506
0
-5.09187
0
-0.521572
-0.652409
0
0
-2.1963
0
-3.79659
-0.934802
-6.51852
-0.582219
0
-0.0488132
-6.37627
-0.926095
0
-10.1734
-0.807442
-4.22777
-5.83716
-0.616859
0
0
-1.00048
-0.252393
-0.138028
-0.113818
0
-2.17063
0
-4.84522
0
-4.08055
-1.31466
-0.895985
0
-7.45542
0
-9.0985
0
-0.651021
-7.61994
-0.0184045
-3.60905
-5.29725
-2.37237
-4.1219
-3.29148
-4.74767
0
0
-0.972269
-0.139982
-2.23736
0
-4.82702
-5.55231
0
0
0
-5.18811
0
-3.16222
0
-3.52335
-0.35874
-1.03386
-9.55205
0
-2.89564
-1.31447
0
0
-7.63991
-0.564402
0
-1.79873
-2.36619
0
-1.06516
-10.5486
-1.53413
-1.57694
-6.16247
-3.85885
-3.4308
-4.67832
0
-1.73728
-2.15577
0
-0.363273
-0.044542
0
0
-5.91606
0
-1.37478
-6.14071
-5.31299
-1.88531
-1.06107
-1.05514
-2.89069
0
-1.16535
-6.53928
0
-5.37381
0
-3.06905
0
-3.21291
-1.63882
0
0
-3.57328
-0.687476
-7.88008
-1.3916
-0.541033
-4.19412
-2.57581
-3.40362
-0.376171
-3.56036
-1.15451
-2.06176
-5.68023
-5.33628
-1.46463
-3.92355
-5.18656
0
-2.07847
-2.07346
-3.35907
0
-3.3587
-0.546902
-0.247009
0
-1.42218
0
0
-2.75337
-1.5416
-0.68568
-0.535256
0
-0.185394
0
0
-0.763599
0
-6.61295
-1.56449
-2.42246
-5.02752
-2.13365
-4.8472
0
-2.62249
-3.03815
-0.802486
-1.751
-1.57834
-5.46105
0
-3.90177
-3.34618
-0.745132
-1.11741
-2.29676
-0.734649
-1.898
-1.93733
0
-0.022701
-7.04563
0
-5.91513
-1.44428
-4.27535
-0.540032
-1.39323
-5.86306
-3.29535
-3.62938
-4.68835
-0.14002
-8.3699
-2.47142
-0.635669
-1.65335
-1.71572
-0.0789837
0
0
-4.1831
-4.56691
-0.089065
-2.03643
-5.62753
-1.8639
-3.11965
-1.28269
-3.8842
-2.40377
-0.652745
0
0
-1.37099
-5.26478
-1.95994
-3.14615
0
-1.58533
-2.75497
-3.25834
-0.252296
-5.37544
-1.533
0
-0.0754642
-5.52053
0
-9.60144
0
-5.35546
-2.1668
-5.30556
-2.33728
-3.73834
0
0
-3.18936
0
-1.33109
0
-0.965859
-2.27006
-0.432574
-4.00635
0
-0.794456
-6.94281
-0.241973
-6.95583
0
0
-2.9173
-1.69173
-3.11896
-0.240387
-8.95049
0
-5.95312
-3.39554
-0.824673
-1.20909
-3.6563
0
-3.07492
0
0
-2.222
-3.38498
-0.458627
-4.10159
-4.88188
0
-0.177657
-0.679026
-1.66468
-3.50608
-0.176338
0
-0.253947
-9.49628
-1.31337
-5.66921
0
-9.04605
0
-1.28113
-1.85569
-0.732857
-2.91561
-1.65879
0
-0.925094
-3.67123
-1.5992
-5.15634
-3.12814
-3.72841
-3.75425
-0.143333
-2.43905
-3.71236
0
-6.70901
-0.990277
-0.42059
-1.15773
-0.904476
-2.68083
-2.50549
-6.06678
-0.849167
0
0
-7.59075
-2.85814
-2.77773
-2.58231
0
-4.42388
-1.42908
-2.37799
-0.839262
-1.43818
-0.0611593
-3.64779
-4.10898
-4.094
0
-7.73673
0
-2.67666
-3.35781
-6.44375
0
0
-0.484867
-2.4018
-1.10408
-3.93063
-2.00382
-1.9042
0
-2.36117
-8.92818
-0.446292
-0.549711
0
-2.52488
-1.88922
-2.99082
0
-1.70486
0
-1.06517
0
-5.23104
-0.0478173
-3.45103
0
-6.77263
-0.367011
-0.868882
0
0
-2.01089
0
-2.35503
0
-6.36134
-2.3947
-4.37222
0
-2.63368
0
-0.427141
-0.523303
-1.58426
0
0
-2.57196
-2.74675
-2.4743
-2.42671
-4.9132
-0.956615
0
-0.92946
-0.106871
-3.71747
-0.0668514
0
-2.95759
0
-2.35083
-2.36829
-6.08216
0
0
-1.37993
0
0
-0.491106
-4.95427
0
-6.92604
0
0
-6.9234
0
-0.297056
-1.06007
-5.83605
0
-1.56527
-1.95152
0
0
-3.98479
-0.132867
-1.42197
-0.0543528
-2.60023
0
-2.86624
0
-0.317518
-0.0936413
0
-4.02402
0
-4.73095
0
0
-6.175
0
0
-5.37768
-3.83849
-2.63817
-3.33664
0
-1.07591
-5.63089
-4.59924
-4.97193
-2.97884
-4.56838
-1.84973
-5.77112
-5.99212
-4.79577
0
-4.47281
0
0
-3.62396
-1.93849
-2.65516
-0.284846
-2.27079
-1.54156
-4.92179
0
-1.15106
-6.77368
0
-2.23693
-2.49225
-10.41
-0.213003
-0.572505
-0.820946
-6.05319
-1.57174
-4.59656
-2.2115
-2.53314
-5.62975
-0.448822
0
-2.90736
0
-0.572181
-8.25278
-3.98059
-1.30007
-0.955739
-1.86591
-2.39845
-1.26413
-0.177796
-0.256873
-2.15503
-1.73013
0
-4.53652
0
0
-2.98956
0
-1.38548
-0.974985
-5.34492
-0.550848
-5.63204
-0.0943213
-2.69123
0
-2.91795
-2.62752
0
-8.38906
0
-2.27766
0
-2.47279
-0.476532
-5.96235
-2.49255
-1.58461
-1.29695
-1.68443
-2.29457
-2.49246
0
-1.70693
-1.2218
-3.51214
-2.26574
-1.59849
-1.72551
-1.05609
-5.46305
0
-0.0425715
0
-2.21049
-3.53818
0
-1.4519
-0.497506
-0.80877
-4.61154
0
-6.65831
-3.27151
0
-2.01199
-0.608187
-4.80297
-0.9322
-2.75031
-4.6221
0
0
-5.19972
-1.17934
-2.54841
-3.42952
0
-4.97407
-2.32956
-4.83243
-3.87938
-4.67122
-3.40484
-6.505
-0.00901141
-1.96005
-0.795025
-6.05672
-4.02192
-5.45466
0
-5.16737
0
-4.837
-0.590261
-2.9153
-8.60498
0
0
-0.55118
-0.926124
-3.74779
-2.92937
-0.987477
-1.86547
-2
-1.51172
-2.33328
-1.87394
-0.899558
-1.24206
0
-0.236339
-3.16971
-0.525179
-1.82084
0
-5.88027
-2.97783
-1.18856
0
-3.87673
-2.49641
-1.87426
-2.70555
-0.834863
-4.85758
0
-0.614771
0
-0.24616
-3.55437
-1.00026
-3.07706
-1.85775
-2.1375
-6.4146
-0.00982802
-1.01333
0
-5.47667
-0.419811
-2.56983
-0.23084
-1.62277
-2.63242
-3.4467
-2.76406
-1.60206
-0.824431
-7.64118
-0.0414485
-5.02655
-0.914682
-2.31583
-3.01435
-1.14856
-0.154479
-0.350315
-5.55752
-1.97186
-3.31628
-2.91333
-6.47585
-1.20203
-2.88603
0
-3.04526
-1.69409
0
0
-2.47578
-1.21256
-5.22711
-2.49923
0
0
0
-4.38331
0
0
-3.39074
-1.47737
-4.01561
0
-0.895264
0
0
-1.87809
-1.77223
-1.34702
-4.98671
0
0
-5.18836
0
-5.42349
-1.63361
-6.40457
0
-0.633159
-9.09083
0
-1.5809
-3.78858
0
-1.20823
0
-1.4976
-5.02812
0
-3.30616
-0.362303
-3.69198
0
-1.36689
-0.141875
-0.544008
0
0
-1.41166
0
-1.27746
0
0
-3.19049
-2.44001
-3.83613
-0.421827
-0.457125
-2.34384
-2.56048
-0.970236
-0.759371
-2.52277
-0.358426
-5.569
0
-9.12566
-0.151651
-7.11859
0
0
-5.47008
0
0
0
-4.34954
-3.53764
0
-1.07572
0
0
-9.352
-0.649579
-5.24123
-4.04103
0
-5.47121
-0.456341
-0.276904
-4.80491
-5.28098
0
-2.2629
-2.30082
-6.0941
0
-2.52354
-1.00107
-5.99408
-6.25904
-3.17418
-2.91551
-0.163622
-1.8033
-1.42925
0
-3.34885
-5.69862
0
0
-2.97061
-6.67125
-3.01607
0
-0.0600521
0
-0.824708
-2.39384
-0.0512949
-6.66489
-2.67004
-2.58651
-8.25995
-5.25238
-2.46949
-1.34112
-1.51639
-7.98347
-0.568699
-0.0979735
-4.46947
-6.28876
-0.627059
-2.88533
-2.08839
-2.71418
-0.616862
-0.507481
-3.6873
0
-1.61516
0
0
0
0
0
0
0
0
0
0
0
0
0
0
0
0
0
0
0
0
0
0
0
0
0
0
0
0
0
0
0
0
0
0
0
0
0
0
0
0
0
0
0
0
0
0
0
0
0
0
0
0
0
0
0
0
0
0
0
0
0
0
0
0
0
-0.689774
-1.62575
0.0222653
-0.690856
-1.70539
0
-1.52312
-0.726761
0.0742931
-1.04069
-0.0882636
-2.12318
-1.50521
-0.327891
-1.15575
-1.26983
-0.272
-1.11538
-0.0237188
-1.1668
-1.37258
0
-0.879601
-0.518544
-0.930039
-1.9814
-0.00780148
-0.916567
-1.14537
0
-1.24478
-0.827648
-0.596922
-3.29359
0
-2.20026
-1.17775
0
-0.454662
-0.549624
-0.512655
-0.25197
-0.680099
-1.48515
-0.148812
0
-1.22416
-0.118966
-0.419651
-2.39821
0
-1.48664
-2.2695
0
0
-2.39614
-1.08636
-2.74742
0
-2.91158
0
0
-1.73162
-0.0982416
-2.53737
-5.51339
-0.744624
-6.23738
0
-1.9061
-2.85344
-3.03925
-0.770963
0
-5.71036
-1.21861
-4.71022
0
-6.49931
-3.4389
-1.41553
-0.167657
-0.653764
-6.70259
0
-4.20498
-5.99392
0
-1.87733
-4.48781
-0.286714
0
-1.40773
-3.07764
0
-1.81628
-0.466249
0
-3.01432
-6.83604
-3.61829
-2.6819
0
0
-9.20232
-1.16455
-0.691064
-1.62014
-2.05745
-0.0110055
-4.10111
0
-4.20256
-0.46064
-2.47471
-3.56042
-0.99751
-2.1511
-5.30961
-8.04711
-5.78898
-1.19187
-3.59722
-6.29959
-1.33813
-6.48846
-4.18854
-3.81718
0
0
-1.99992
-1.20778
-1.70598
0
-1.51245
-2.42349
-1.7909
-1.45408
-3.29097
0
-4.91477
-1.13423
-4.98296
-4.14827
-2.86688
0
-1.87787
-0.201318
0
-1.73663
0
-0.0538181
-0.85398
-3.80433
0
-3.32287
0
-5.87513
-0.640342
-7.53433
-6.42931
-3.66434
0
-2.99609
-2.66871
-0.781513
-6.28825
-2.55462
-3.79169
-9.05856
-1.72409
-4.63442
-0.480822
-1.08157
-5.92044
0
0
-1.84984
-2.04315
0
0
-7.28853
0
-1.76222
0
-1.19854
-3.88422
-0.46144
-2.21938
-1.05556
-2.51609
0
-3.88376
0
-4.32817
0
-2.53013
-4.47229
0
-3.48855
-2.40611
-3.78772
-1.22337
-3.1804
0
-2.00526
-4.9593
-0.30981
0
-6.08458
0
0
-3.59013
-3.09084
-4.40299
0
-0.0313746
-0.0951897
-0.623854
-7.84529
-1.85101
-4.87605
-3.12412
0
0
-1.18539
-0.854229
-1.90226
-0.843857
-3.65471
-1.13628
-4.10113
-2.27079
-2.54833
-4.81349
-8.22828
0
-2.19686
-3.38985
-3.22815
0
-4.55089
-0.115359
-0.0206431
-1.98765
-5.3151
-7.41057
-2.22735
-6.19009
-2.52321
-3.30371
-1.74549
-3.35037
0
0
-3.43058
-3.0817
-3.89018
-2.96998
-7.38891
-3.90321
-0.602384
0
0
-1.60972
0
-0.728995
-4.83588
-1.98429
-3.9143
-0.111221
-1.73499
0
0
-5.03053
-1.06299
0
-4.17942
0
-3.25668
0
-0.078786
-0.749501
-4.91681
-0.831076
-0.0620824
-5.39086
-6.70191
-1.02063
0
0
0
0
-3.29002
-2.80229
-0.674177
-3.61505
-0.953827
-1.36299
-6.72181
0
-3.52161
-2.37106
-2.56587
-0.751147
-4.1828
0
-5.9858
-0.272085
-2.14254
-1.18334
-5.82827
-1.99104
-6.77068
-6.37437
-2.75039
-4.80032
0
-0.0833499
0
0
-5.37509
0
0
0
-2.39055
-2.91744
-0.300563
-2.108
0
-2.77428
-0.93318
-1.9225
0
-0.47151
-4.90287
-0.661268
-3.53646
0
0
-8.81865
0
-1.2468
-0.316362
-3.54788
0
-1.71867
0
-6.10239
0
0
-2.40313
0
0
0
0
-4.04617
-1.19979
-0.235517
-1.90581
-1.90582
-1.04178
-4.3011
0
-1.36641
-3.80685
0
-5.74855
0
-7.47186
-0.749065
-1.56843
-3.97015
-3.49717
-2.94702
-3.11153
-0.80541
-3.80841
0
-0.564974
0
-2.76906
-0.462103
-6.37269
-1.85775
0
-6.65734
0
0
0
0
-0.565093
-9.95076
0
0
-0.553732
-6.30665
-1.27545
-8.08316
-1.86783
-0.666174
-0.357508
-1.25025
-4.10402
-0.654585
0
0
-4.59658
-3.02782
0
0
0
-2.3498
-2.68574
0
0
-5.42821
0
0
-4.41788
-2.22757
-1.39049
-6.72171
0
0
0
-7.85242
-0.502176
-5.68187
0
-2.44233
-1.98241
-4.18556
0
0
-4.63736
0
-5.8607
0
-7.77823
-4.73543
-5.80579
-0.54045
0
0
0
-4.98333
0
0
-3.92483
-0.745349
-2.45498
0
-5.45294
-1.79105
-0.413975
0
0
0
0
0
0
-2.9226
-0.400781
-2.73984
-0.762457
0
-6.9017
-0.0916969
-7.64216
-0.382698
-0.927616
-2.90975
-3.31719
-6.98323
0
0
0
0
0
-1.33501
0
-4.81538
-4.96043
0
-5.53548
0
-3.36953
0
-4.49993
0
-0.913401
0
-11.2954
-0.696709
-1.38487
-1.77457
-7.53135
0
-3.75235
-1.59822
-1.57147
0
-4.14011
-0.736372
-7.20704
0
-0.764764
-5.72749
0
-1.92618
-4.48577
0
-1.61908
-0.550992
0
-4.30887
-4.64618
-0.0761156
-4.44263
-0.425821
-2.43007
-2.09877
-2.0417
0
-3.60864
0
-1.73
-2.0261
-2.36064
-0.860788
-0.167191
-3.52682
0
-3.14199
-0.803224
-1.81247
-2.69246
-1.25056
-4.45913
-1.8608
-8.69451
0
-2.20173
-5.28263
0
-2.90546
-3.68723
-5.2972
-0.613941
-5.72851
0
-2.1232
-5.88322
-1.49833
-0.468762
-6.78196
0
-3.92039
0
0
0
-1.30395
-2.31769
-0.772884
-1.84593
-1.27138
0
-1.1117
-6.7133
0
-1.52674
-5.3501
-0.145048
0
-1.32451
-0.520964
-2.41047
-3.18916
-3.22773
-1.81303
-0.403707
-0.989636
-1.40684
-5.63499
0
-1.76478
-0.461824
-0.473787
-3.05794
0
-1.78011
-5.64599
0
-4.16049
-1.32802
0
-1.64598
-2.21773
-0.846283
-1.98952
-3.54204
-2.7727
-0.709601
-4.59534
-0.247032
-0.131591
0
0
-1.26177
0
0
-0.213956
-1.97592
0
-0.135789
-2.33428
-2.8353
-2.66708
-0.113816
-1.46043
-2.68157
-0.778125
-1.98027
0
0
-7.1104
-3.31981
0
-6.1621
0
-1.02544
-1.12552
-4.82003
0
-0.587604
0
-2.25863
-0.264412
-0.197969
-1.45663
-2.54692
-8.41965
-2.2406
-7.79241
-1.52515
-0.00497482
0
-2.99706
-2.1372
-7.97717
-1.82526
-5.00586
-4.64832
-1.71941
-2.82633
-1.19941
-3.5299
0
-0.866533
-0.3558
-4.09984
-0.301601
-1.81142
-1.34384
0
0
-2.98123
-1.59101
-1.97979
-1.02833
-1.13178
-3.00654
0
0
-5.82149
-2.00846
-0.909314
-2.89921
-0.641134
-0.696183
0
-5.0642
-2.55011
0
-1.62185
-1.63663
-6.0619
-3.84548
0
-0.0585233
-6.05173
-3.75106
0
-2.57064
0
-1.93173
0
-4.67703
0
0
-2.23806
-1.56481
-0.647946
-6.64466
-0.261954
-8.28124
-2.43271
-4.92365
-1.96064
-1.47921
-2.0213
-0.782363
-1.51804
-1.3423
-3.7396
-0.580569
-7.783
0
-2.20958
-1.80863
-2.64711
-3.52289
-0.284289
0
-0.347847
-0.475481
-2.76528
-1.00018
-6.57293
-2.03833
-0.604751
-0.100015
-1.69313
-0.360014
-2.19757
-4.9861
-2.63974
-1.56709
-0.401823
-5.69977
-0.730795
0
-4.89974
0
0
-3.86805
0
-1.94344
-0.0682073
-0.291848
0
0
-2.43456
-3.65632
-9.08912
0
-5.96817
-0.292866
-3.45223
-2.89999
-4.72606
-1.65173
0
-1.47771
0
-2.60844
0
-1.47183
0
0
-2.9341
0
0
-3.5596
0
-3.85469
-1.03566
-0.550757
-0.583761
0
-0.851581
0
-0.982221
-5.32802
-2.40503
-0.44633
0
-4.56453
-1.03098
-4.06184
0
-0.0496147
0
-1.80795
-3.47116
0
-6.13325
0
-3.47916
-0.33285
-0.557041
-0.590619
-1.1498
-4.76914
0
-0.633792
-1.02119
-1.27704
-0.676837
-0.0694557
-0.742987
-4.97344
0
0
-5.08115
-0.69774
0
0
-1.73225
-2.03259
-4.01548
-10.4822
0
-6.83114
0
-9.0149
0
-1.1444
-1.43972
-2.29112
-1.95058
-2.76497
-1.59568
-0.96269
-3.17898
0
-1.06099
-4.94335
-5.6834
0
0
0
-2.46839
-0.0611478
-3.2071
-2.36068
0
0
-6.16017
0
-1.8687
-0.833886
-5.54395
-1.21065
-0.396713
-2.80527
-3.03123
-6.59994
-0.668993
-3.59363
-1.52667
-5.66459
-0.51364
-1.79849
-3.58794
-8.71559
-3.77946
-0.920755
0
-1.15187
-3.86385
0
0
-8.4291
-0.3225
0
-5.84168
-0.0596078
-4.48843
-1.76647
-4.27311
-1.49218
-0.726841
-0.721012
0
-0.137915
-4.91532
-4.86404
-0.491308
0
-10.4001
-4.37366
-7.44219
0
-6.53452
-3.29395
-4.43642
-8.22975
-0.117589
-3.29577
-6.21691
0
-1.5886
-0.543076
0
-5.52686
0
-4.01909
-2.69796
-6.88346
0
0
-7.78749
-1.09819
-6.45142
0
-0.473067
-1.12915
-1.47109
-3.14866
-2.17508
-0.465981
-2.60379
-0.917902
-0.185994
-2.63311
-6.32925
-2.06048
0
-0.0465363
-4.0588
-0.848894
-4.06823
0
-5.91991
-1.25333
0
-1.62353
-5.56312
0
0
-3.76122
-4.24389
-1.16343
0
-5.96126
-7.93413
0
-4.71724
-7.17556
0
-4.52989
-4.19039
-2.40404
-1.24604
-3.49837
-0.894133
-2.76339
-2.37578
0
0
0
0
0
0
0
0
0
0
0
0
0
0
0
0
0
0
0
0
0
0
0
0
0
0
0
0
0
0
0
0
0
0
0
0
0
0
0
0
0
0
0
0
0
0
0
0
0
0
0
0
0
0
0
0
0
0
0
0
0
0
0
0
-0.129299
0
0
0
0
0
-0.0753571
0
0
-0.0464492
0
-0.0120303
0
0
-0.749421
0
-0.0631575
0
0
-0.252469
0
0
0
0
0
-0.496649
-0.361544
0
-0.0665796
0
0
0
0
0
0
0
0
0
0
0
0
0
0
0
0
0
0
0
0
0
0
0
0
0
-0.371482
0
0
0
0
0
-0.12556
0
0
-0.473895
-0.101932
-1.58289
-0.879605
-7.13781
-0.659324
-5.43296
-0.811903
0
-8.35336
0
-1.08204
-0.622374
-2.94876
-2.26397
-2.39106
0
-6.47083
-3.44439
-10.5712
0
-7.68143
-3.82974
0
-0.895093
-2.83957
-0.753799
-6.41183
0
-1.66991
0
-0.886792
-0.217141
-2.53994
-7.83404
0
0
-0.30156
0
-6.67937
-1.07155
0
0
-10.0564
-0.82686
-6.44166
0
-2.61291
0
-3.84619
-5.06101
-3.12626
-2.2184
-2.12463
-0.0681992
-4.73661
0
-7.52744
-3.28917
0
0
-7.91024
0
-1.1819
-7.51271
-2.27299
-2.81423
-7.88431
-0.115908
-1.84477
-1.90615
-4.30912
-2.19965
0
-0.182883
0
-0.807857
-2.51991
-4.45739
0
-0.0145968
-2.24407
-2.93023
-2.90837
-1.28116
-4.28645
-4.24874
0
-9.1197
0
-0.0304076
-7.96574
-3.80263
-1.55847
-0.7929
0
-1.60891
0
-0.0613169
-1.03873
-1.45701
-5.80951
-4.05868
-0.762665
0
-0.0189788
0
-2.70771
-2.70589
-9.52047
-0.464219
0
-0.459379
-5.46415
-0.48059
-3.77139
-2.9857
-0.427152
-1.87126
-0.20604
-3.23087
-3.69646
-3.66945
0
-1.72929
-1.29741
-2.10003
-2.51208
-0.444149
-2.67999
0
-3.95003
0
-7.47776
-0.179124
-7.07385
0
-1.0099
-4.95046
-1.76564
0
-1.39942
-0.823294
-0.896362
-6.33984
0
-0.534755
-2.77695
-0.285632
-3.9265
0
-0.464896
-2.72178
-8.05296
-0.0936325
-3.67947
0
-4.81932
0
0
0
-0.507813
-5.35063
-2.16323
-2.26263
-2.33438
-5.26264
-3.42596
-5.25108
-0.206581
-3.20903
0
-1.37689
-1.26035
-1.19922
-0.00924982
0
-2.64848
-3.75258
-3.61211
-2.33974
-1.25897
-0.288279
-9.74663
-0.698834
-1.16425
0
-4.381
0
-2.12295
-1.2722
-1.69985
-2.31497
-1.98292
-4.54151
-2.99635
-1.15321
-1.74797
-0.312155
-3.44139
0
-1.60301
-1.15146
-4.12689
0
-2.4061
-1.53918
-2.02473
0
-5.91403
-0.0912783
-3.86543
-2.30964
-1.58728
0
0
-5.09495
0
-4.57264
-0.68086
0
-4.72063
-3.89994
-1.49625
0
-0.356514
-2.43506
-2.25846
-2.0932
-6.22969
0
-2.17822
-1.19287
-3.06276
-2.91139
-1.33525
-0.119142
0
-5.66164
-8.63689
0
-6.12337
0
-2.07386
-0.375133
-2.93754
0
-5.19168
-0.158389
-1.01413
0
-0.690631
-3.30078
0
-5.4819
-0.908442
-2.87388
-5.14205
0
-1.72468
-1.6761
-0.748431
-1.79476
-0.403103
-4.61899
-2.19216
-2.09319
-4.49221
0
-1.03603
-3.24982
-1.16046
-0.201943
-1.84155
-2.97951
-5.82481
-1.19915
-0.901532
-0.0433093
-1.52785
-2.76382
-4.30358
0
-4.55048
0
0
-2.12218
-2.11678
-0.695824
0
-3.32357
0
-0.966661
-0.908686
0
-5.31817
-1.08492
-1.2582
-1.40313
-2.62816
0
-5.7266
-5.68849
-3.29987
-2.12003
0
0
0
-6.41665
0
-3.31203
0
0
-1.33435
-0.437736
0
-5.2322
0
-2.92214
0
-1.34728
-4.91642
-3.08485
-2.73234
-2.64593
-2.04148
-7.32704
-0.90721
-1.59571
0
-0.523295
-2.75984
-1.57535
-4.07993
-0.771692
0
0
-0.659872
-0.456196
-5.56425
0
-0.610942
-2.52194
0
-2.50522
0
-3.76924
-4.74436
-1.93725
0
-0.90609
-7.73848
-0.66818
-0.283579
0
-1.10215
-0.562614
-2.64506
-2.29218
0
-9.06998
-2.45109
0
-0.520466
-2.99001
0
-1.27745
-1.12378
-1.67877
-2.25152
-5.02523
-1.4002
0
-2.42479
0
0
0
0
-1.72916
-0.146829
-11.6865
-3.20504
-8.13793
-0.0473664
-0.0474103
-1.59189
-2.8596
-0.900858
-0.233145
-2.23168
0
0
-4.41248
-6.28845
-8.78092
-0.637768
-11.6457
-0.455453
-11.657
0
-5.89457
-0.532255
0
-1.03583
-0.116101
-5.82958
-2.6478
-4.01216
0
-4.42841
0
-0.177906
0
-4.31603
-0.0241832
-3.36269
-0.239365
0
-9.9198
0
-2.53884
-8.00897
-0.574023
-0.192449
-2.73967
-0.114343
-5.44638
0
-7.15393
0
-0.895442
0
-1.32904
-0.259432
0
-9.86793
-1.58766
-0.523155
-1.69662
-0.259854
-5.05216
-0.252398
-2.29592
-6.88869
-1.72504
0
0
-6.51009
-0.870923
-5.9159
-2.32359
-2.25242
-0.353791
0
-4.38385
-0.624975
-1.10017
0
-0.813586
-0.839054
-4.74547
-1.15121
-0.882468
-1.40841
0
-9.21428
0
-7.1472
-0.321051
-7.05776
0
-2.69879
-0.520863
-0.341138
-1.10334
-0.508303
-2.20568
-3.39287
0
-2.20983
-4.87121
0
-11.3765
0
0
-1.59032
-1.67869
-0.581847
-2.95015
0
-0.859548
0
-3.96747
0
-0.776713
-4.49964
-1.10708
-2.85142
-1.56152
-1.85747
0
-3.1988
-0.826727
-3.79651
-0.0259974
-3.81098
0
0
-5.19911
-0.305284
-2.6625
-2.64111
-0.856562
-3.58833
-0.880031
0
-4.96752
-2.7449
-3.86739
0
-2.17879
0
-3.36879
0
-12.7973
-0.341409
-2.11711
0
-0.0503057
-5.73299
-3.73662
-2.6902
-1.18065
0
-5.89281
0
-0.555334
-7.63576
0
-2.042
-4.87332
-0.951878
-2.56883
-2.78869
-9.99612
-0.559504
-5.09246
-2.02782
-0.990788
-2.81553
-0.346344
-0.389292
-6.54858
0
-2.11176
-2.92003
-4.49512
-1.40043
-2.5679
-1.61227
-3.63432
-7.4003
-5.41671
0
-8.89903
-1.88137
-0.0743852
0
-1.36371
-0.115633
0
-7.91621
0
0
-3.53401
0
-2.50775
-6.38121
0
-0.382331
-4.20576
-2.52404
-3.38004
-8.03507
0
-10.0095
0
0
-4.36151
0
0
-0.530157
-0.647364
-0.252726
-0.569622
0
-4.41184
0
-0.563142
-3.33326
-1.05057
-5.62927
-2.73398
-3.07269
-2.87592
-5.47458
0
-3.1348
0
0
-6.29843
-1.58377
-1.59923
-0.114308
-3.27294
0
-3.69035
-3.04053
0
-1.25792
-0.888338
-9.55934
0
-2.57401
0
-1.08185
-3.63129
-8.14354
0
-4.9428
-0.424679
-5.82785
-1.80798
-4.22965
-0.136506
0
-0.338485
-3.01039
-0.42305
-0.775475
-0.765466
-3.70557
-3.08674
-1.23305
0
-0.459719
0
-1.47619
-1.21944
-0.877879
-3.41078
-3.80516
-2.66219
0
0
-0.755876
-1.428
-0.723223
-1.97483
-4.25618
0
-5.25764
-5.12262
-2.03493
-5.98213
-1.15855
-4.69177
-4.99113
-1.63137
-3.56966
-0.844773
-3.69025
-5.39575
0
-3.40888
-1.84162
-4.31666
0
-2.31502
-4.11254
-0.628058
-4.60639
0
-1.01419
-0.679161
-2.09683
0
-7.2943
-2.13751
-3.80812
-0.709068
-3.14497
0
-4.39426
0
0
-3.78068
0
-0.845734
0
-1.80348
-2.60055
0
-3.21667
0
0
-7.5379
-0.438496
-1.17536
-0.596247
-4.59196
0
-4.96182
0
0
-2.41096
-0.158743
-1.05973
-0.0291047
-3.42727
0
-0.563271
-4.58389
-2.93385
0
-0.966902
0
-0.31495
-0.613484
-2.55666
-1.11109
0
-1.29447
-6.70856
-0.776999
-5.00718
0
-3.21584
0
-2.96124
0
-0.238858
0
-4.81175
0
-3.71139
-4.91435
-5.42075
0
0
0
-4.79534
0
-1.11685
0
-2.35871
-4.88178
-1.82673
-5.86188
-0.655073
-1.53144
-2.51844
-0.0329112
0
-2.05828
0
-5.50237
-0.857228
-0.0547198
-1.8878
-0.34031
-4.32648
-0.994915
-9.3666
-3.96414
0
-0.302266
-5.33612
-1.74197
0
-0.896147
-1.44098
-1.44693
-0.359133
-4.00837
-2.914
-0.118103
-0.268438
-2.16383
0
-1.59742
-2.87254
-1.711
-3.33519
-3.83099
-0.594903
-0.238642
-0.253199
-1.70478
0
0
-2.94504
0
0
0
-0.101245
-3.346
-1.68894
-1.00594
-1.02359
-3.02856
-3.50355
-3.38538
-0.602436
-2.68644
-1.47384
-0.904921
0
-0.863654
-0.876822
-3.58533
0
-7.00472
-3.01955
-0.794489
-0.101458
-6.63652
-1.20517
0
-1.69138
-5.40587
-7.50581
-0.282701
-11.0227
0
-0.600345
-1.93456
-1.74114
0
-0.464108
-3.68096
-3.361
-0.024016
0
-1.01293
-2.92059
0
-0.355643
-1.89129
-4.49388
0
-0.0688384
0
-1.3209
-7.87772
-0.364016
-6.81914
0
0
0
0
-0.143705
-1.16635
-2.68978
-0.589382
-1.84957
-8.85367
0
-3.54332
0
-0.157846
-1.59429
-0.5708
0
-8.9587
-1.40819
-5.94525
-1.55417
-3.87096
0
0
-6.92571
-2.30142
0
-0.632985
-4.55536
-2.53167
0
-2.21086
-0.0942075
-0.519628
-6.23275
-8.32638
-0.640212
-5.45778
-1.95136
-4.08366
0
0
0
0
0
0
0
0
0
0
0
0
0
0
0
0
0
0
0
0
0
0
0
0
0
0
0
0
0
0
0
0
0
0
0
0
0
0
0
0
0
0
0
0
0
0
0
0
0
0
0
0
0
0
0
0
0
0
0
0
0
0
0
0
-0.65966
-1.2458
0.0845895
-0.829659
-2.40059
0
-0.611776
-0.827182
-0.518861
-1.77855
0
-0.577221
-1.00808
0
-1.3854
-0.822974
-0.542637
-1.39942
0
-0.995025
-1.07036
0
-1.88012
-1.50961
0.0756505
-2.00533
-0.0357187
-0.949028
-0.540761
0
-1.215
-0.229016
-0.871072
-0.144357
-0.0851687
-1.94477
-0.516461
0
-2.16485
-0.347823
-0.408692
-2.06214
0
-0.549328
-1.28506
0
-0.466973
-2.4431
-0.333255
-3.66147
0
-2.32378
-1.05343
0
-2.83396
-0.216543
-0.747822
-3.43645
0
-1.27619
-4.08629
0.0425465
-0.589808
-0.983494
0
-6.24524
-1.41277
-0.158319
-3.2736
-2.58225
-0.930944
-4.9282
-0.716395
-1.67273
-4.42647
0
-2.8111
-1.25158
-5.3273
-1.75728
-1.50156
-4.44421
-1.31986
-2.88099
-3.21009
0
-4.82797
-3.31792
-1.80488
-0.449046
-1.91833
-3.83628
-4.64723
-1.29553
-7.25958
-10.1233
-0.653843
-3.82309
-5.94348
-7.2552
-6.76857
-3.46133
0
0
-6.49727
-0.47903
-0.355334
0
-0.0511928
0
-2.34957
0
0
0
-1.04741
-3.67823
-1.1892
-8.72308
-1.60087
-3.5402
-1.78673
-0.285228
-6.96071
0
-3.34097
-6.84983
-4.49861
0
-0.0915969
-3.26365
-0.233558
-1.53842
-4.73352
-0.634489
-1.42603
-0.806552
-3.21531
-6.22054
0
-0.822825
-1.53017
-4.35355
-2.8884
-7.24437
-0.151048
0
0
-2.27877
0
-2.60519
0
-0.46551
-0.703375
-3.04411
0
0
-0.997389
-2.15138
-2.33515
-1.45697
-1.80933
-8.07281
-0.997901
-1.54248
-1.41177
-0.454998
-1.45744
-4.18757
-3.63092
-2.84029
-1.37029
-4.29331
-0.656031
-0.293819
-8.66723
-0.0891251
-0.0455069
-2.32201
-6.29054
-1.4863
-0.760756
-1.30874
-1.26003
0
-0.528013
-4.32886
0
-3.25076
0
-7.07874
-1.12603
-11.6383
0
-7.83704
-2.20742
-2.50546
0
-0.353008
-2.14249
-0.119348
-3.28527
0
-0.150648
-2.12277
0
0
-5.19689
0
-9.31954
0
-1.68525
0
-1.61775
-1.50628
-2.89207
0
0
-4.02896
-1.14716
-1.82802
-2.37484
0
-4.77376
0
0
-1.72189
-1.17623
-0.759233
-2.71951
-0.994182
-1.87057
-2.67573
-5.58793
-1.35407
-4.77929
0
-1.23
-5.42573
0
-3.85365
-1.02048
-2.28616
-2.19985
-0.885354
-2.67091
-2.71119
-2.30887
-0.895507
-3.86247
-1.34473
-1.02623
-1.17565
-2.08676
-0.873898
-4.81618
-0.49485
-2.52987
-0.479715
-1.97626
-2.92936
-1.61761
-1.05003
0
0
-0.9511
-0.920733
-0.992784
0
-1.51715
-2.51425
-4.87901
-0.466516
0
0
-1.11841
-1.45841
-3.56685
-1.52879
-1.44207
-1.49152
-1.05275
-7.30134
-2.21098
-0.845063
-0.321575
0
0
-3.47731
0
0
-1.91924
-0.832888
0
-4.91733
-0.668494
-1.58965
-1.59621
-2.43894
-0.196624
-9.40428
-3.03358
-3.61181
-2.0984
0
-4.03445
-1.09703
-9.62456
0
-4.93133
0
-8.10813
-6.06905
-5.09574
-5.35637
-4.64623
-7.11722
-4.64511
-3.09655
0
-0.630675
0
-6.12685
-0.800176
-5.12873
0
-2.09695
-3.99041
-2.28468
0
-0.720867
-0.309037
-7.13326
-2.33108
0
0
-3.45053
0
-1.43352
0
0
-6.55512
0
0
0
0
-0.0549882
-1.85943
0
-6.27559
0
-1.54877
0
-2.21632
-1.07959
-2.58555
0
-6.2877
-2.08454
-1.11019
-1.17479
-4.91432
-0.99212
-5.30339
0
-5.44085
-2.29892
-5.74071
-11.5693
0
-9.07304
0
-2.44824
0
-4.49203
-3.8067
0
-3.6742
-0.400022
-0.398789
0
-3.76154
-1.01814
-5.58434
0
-1.25378
-1.37244
-6.83985
-2.21006
-2.27924
-1.06937
0
-3.55374
-0.397442
-0.364352
0
-0.19425
-1.58929
0
-6.85093
-0.375266
-9.26221
-3.52205
-2.72325
-8.66876
-3.17727
-0.129804
-1.05207
-4.68211
-5.05228
-0.932767
0
0
-4.60142
-0.52871
-0.780766
0
-3.67616
0
-4.77843
0
-1.22781
-6.35503
0
0
-1.79091
-7.79701
-2.27188
-5.87629
-3.90058
-0.705826
-2.58949
-5.84008
0
-0.54723
-0.0231468
-3.53911
-0.893905
-1.11769
-0.128454
-4.61371
0
-0.749453
-2.42772
0
-0.10375
-3.59349
-5.2235
-2.11162
-0.992678
-1.18454
-5.59702
0
-3.96008
0
-4.46088
0
-0.150902
-0.431282
-3.32622
-0.0589552
0
-1.02561
-6.6661
-4.87652
-2.82834
-0.756752
-3.00303
-4.30885
-1.23732
-0.53778
-7.17935
-1.8766
-1.71257
-6.28214
0
-3.83092
-0.0925155
0
-0.404523
0
0
-0.497631
-1.35048
-2.0513
0
-0.0378821
-3.19474
0
-2.17145
0
-2.1758
-0.567802
0
-1.98772
0
-1.04219
0
-4.61963
0
0
-0.477356
-2.74568
-0.583523
-0.376546
-0.819964
0
0
-0.959332
-6.89712
-2.36674
0
-7.64695
0
-2.18134
-2.01593
-6.68838
0
-4.01219
-6.29137
-1.64282
-2.83745
-5.11688
-4.15533
0
-4.05295
-4.48338
-6.40674
0
-5.69941
-1.67199
-0.124742
-1.73074
-4.44298
-1.09776
-5.43745
0
-0.817214
-0.792542
-3.37213
0
-2.82957
0
-2.58947
0
-5.14709
-1.77235
-6.61716
-1.42973
-0.227542
-1.79363
-0.401765
-1.35031
-5.08211
-0.41901
-4.53407
-1.16572
-1.39975
-5.33592
-2.9642
0
-0.379032
0
-4.25976
-3.65921
0
0
-3.59378
-3.01334
-3.44479
-2.54968
-3.69301
-0.397636
-5.1934
-2.79067
-1.39989
-0.824888
-3.86171
-0.937012
-7.72903
0
0
-0.183694
-3.6172
-2.44111
-6.34884
-0.760795
-6.97598
-0.04699
-2.49631
-0.823407
-5.54345
-2.43888
-0.578061
-0.0616057
0
-3.30107
-2.17703
0
-4.01166
-3.54517
0
-2.51071
0
-2.47079
0
-2.70197
0
-0.95421
-0.420004
-0.960297
0
-1.60625
-0.699277
-4.11097
-3.26476
-4.23942
-2.63004
-3.46846
-1.36973
-4.8987
-1.77804
-2.87221
-0.0492321
-0.119351
0
0
0
-4.14203
0
-6.0971
-1.54545
-5.09555
-3.53029
-0.222888
-2.09884
-2.05043
-1.8533
-4.24443
-2.71907
-1.5716
-0.850968
-4.0634
-0.40093
-1.87476
-0.652614
0
-1.57819
0
0
-3.92648
-5.8092
-3.2522
0
-7.52305
-0.0673759
-5.10341
0
-0.183835
-7.53745
-0.623838
-0.871413
-7.13941
0
-4.12094
0
-2.89057
-0.2469
0
-2.15011
-0.112559
-1.16616
0
-3.37226
-1.41913
-1.21709
-4.95969
0
-12.0699
-1.32467
-6.47781
-2.44376
-4.92147
-1.14035
0
0
-0.110262
-7.01689
-0.061655
-6.72077
-0.74281
0
-2.69782
0
-0.456279
0
0
-1.45193
0
-7.15081
0
-4.01769
0
-9.05214
-1.74541
0
0
-0.999847
-3.76506
-2.28683
-2.47519
0
-2.65579
0
-2.36225
0
-4.83945
-7.75085
-1.11971
-8.56716
-0.310461
-2.37958
-3.18169
0
-1.32155
-0.143027
0
-2.12253
0
-2.24475
-1.23717
0
-2.50424
-1.1637
-4.34017
0
-0.164373
-0.76924
-1.60598
-2.23206
-3.43723
-6.26244
0
-1.81047
0
-6.28437
0
-4.04703
-0.0967987
0
-2.97664
0
0
-1.82394
0
-3.46379
0
-2.44509
-4.03621
-0.0369606
-1.01543
0
-5.24302
-1.07632
-8.02109
0
-5.37893
-0.329687
-4.74401
-0.232318
-3.24641
0
-1.53418
-0.805037
-0.483764
-0.833292
-1.97157
0
-3.67547
0
-8.49684
-4.3417
-1.83567
-0.809238
-2.72809
-2.57177
0
-3.31363
-2.1923
0
-2.86735
-6.3828
0
0
-0.762364
-5.10926
0
-6.56274
0
-4.74278
-1.65566
0
0
-0.924005
-2.3705
-4.30404
0
0
-3.21103
-0.481067
-1.03751
0
0
-4.35161
0
0
-0.146057
-2.21709
-0.52815
0
-4.8593
-0.0337686
0
-7.91629
0
0
-10.1446
-4.55916
-4.37396
-3.81634
0
0
0
-4.76223
-1.97534
-4.50129
-0.0122793
0
-1.63025
-4.45994
-0.0808219
-2.39503
-0.737541
-2.19986
-1.04557
-0.948341
-3.56129
0
-1.56497
0
-4.96967
0
0
-4.2621
-0.105669
0
-0.35102
-2.36222
-1.3695
-7.58848
-0.423809
-7.95222
-1.38386
-5.51108
0
-4.20058
-4.20629
-0.550807
-6.78239
-0.769281
-1.51796
0
-4.45234
-0.72463
-2.28663
-3.42732
-1.67737
-4.74913
0
0
-1.20534
0
-7.34975
-0.865149
0
0
0
-1.31311
-1.44553
-4.29672
0
-6.39415
0
-10.5163
0
0
-6.79267
-1.85088
0
-8.42428
-1.99885
-5.06984
-4.95172
-3.84727
-3.25534
-1.58943
-1.88636
-1.45302
-3.30322
-0.632921
-1.59333
-3.45384
-0.660007
0
-2.53847
-3.47419
-2.79411
-2.11659
0
-0.279817
0
-7.62636
-4.46554
-9.07205
-4.00004
-5.35876
-1.63492
-1.68683
-1.62311
-1.48654
-0.584469
-1.09377
-4.62838
0
-7.04703
0
-7.55052
-0.865507
0
-2.94343
-0.130527
0
-2.19914
-3.43012
-2.65682
-4.05717
-0.850233
-11.882
0
-4.11092
-2.08453
-8.53469
0
-7.95125
-0.107476
0
0
-0.605662
-6.41843
0
-3.84918
0
0
0
0
0
0
0
0
0
0
0
0
0
0
0
0
0
0
0
0
0
0
0
0
0
0
0
0
0
0
0
0
0
0
0
0
0
0
0
0
0
0
0
0
0
0
0
0