<?xml version="1.0"?>
<VTKFile type="RectilinearGrid">
<RectilinearGrid WholeExtent="0 32 0 32 0 32" Origin="0 0 0" Spacing="1 1 1">
<Piece Extent="0 32 0 32 0 32">
<PointData>
</PointData>
<Coordinates>
<DataArray type="Float32" format="ascii">
0 0.524874 1.04975 1.57462 2.0995 2.62437 3.14924 3.67412 4.19899 4.72386 5.24874 5.77361 6.29849 6.82336 7.34823 7.87311 8.39798 8.92285 9.44773 9.9726 10.4975 11.0224 11.5472 12.0721 12.597 13.1218 13.6467 14.1716 14.6965 15.2213 15.7462 16.2711 16.796 
</DataArray>
<DataArray type="Float32" format="ascii">
-5.03879 -3.62163 -2.20447 -0.787311 0.629849 2.04701 3.46417 4.88133 6.29849 7.71565 9.1328 10.55 11.9671 13.3843 14.8014 16.2186 17.6358 19.0529 20.4701 21.8872 23.3044 24.7216 26.1387 27.5559 28.973 30.3902 31.8074 33.2245 34.6417 36.0588 37.476 38.8931 40.3103 
</DataArray>
<DataArray type="Float32" format="ascii">
0 0.524874 1.04975 1.57462 2.0995 2.62437 3.14924 3.67412 4.19899 4.72386 5.24874 5.77361 6.29849 6.82336 7.34823 7.87311 8.39798 8.92285 9.44773 9.9726 10.4975 11.0224 11.5472 12.0721 12.597 13.1218 13.6467 14.1716 14.6965 15.2213 15.7462 16.2711 16.796 
</DataArray>
</Coordinates>
<CellData>
<DataArray type="Float32" Name="Scalar" format="ascii">
0
0
0
0
0
0
0
0
0
0
0
0
0
0
0
0
0
0
0
0
0
0
0
0
0
0
0
0
0
0
0
0
0
0
0
0
0
0
0
0
0
0
0
0
0
0
0
0
0
0
0
0
0
0
0
0
0
0
0
0
0
0
0
0
0.111978
-0.438461
-0.172739
-0.0120158
-0.276486
0.0218457
-0.806312
-0.429811
-0.305395
-0.393431
0
-1.22167
-0.120849
0
-0.935391
-0.699482
-0.13237
-0.488593
0
-0.902557
-0.982503
-0.385091
-0.782665
-1.03145
0.131035
-0.548528
0
-0.454699
0.194184
-0.0116204
-0.333094
-0.65678
0.492684
-0.0270618
0
-0.471132
-0.35476
0
-0.747351
-0.0785687
-0.00723672
-0.137215
0
-0.00666634
-0.0660657
0
-0.00703234
-0.450374
-0.582492
-0.150772
0
-0.628073
-0.375254
0
-1.08758
-0.265237
0
-0.82029
0
-0.822191
-1.53294
0
-0.199472
-0.208466
-1.32461
0
-2.55628
-0.255088
-1.99523
-2.17383
-2.94952
-5.78832
-0.856168
-0.517602
-3.43154
-0.65171
-6.11375
0
-1.74849
-3.2891
-2.05581
-3.34163
-1.33477
-0.255366
-1.28209
-2.62463
-1.32712
0
-2.50032
-4.19835
0
-1.88013
0
-3.99538
-5.23568
-3.54307
-2.44935
-1.84796
-0.95105
0
-5.68527
-2.41553
-2.38076
0
-9.14039
0
-5.38273
0
-1.16673
-1.53869
-1.58696
0
0
-7.2901
-0.290117
-3.19987
0
0
-1.43118
-7.21541
-8.51216
0
-4.35121
0
-0.458127
0
0
-0.613089
-1.4834
-0.609747
-1.31115
-7.11478
-4.61808
-0.743922
-8.57703
-1.88255
-6.13975
0
-2.42274
0
-1.63083
-0.908335
-8.04446
-0.700217
-0.0676265
-4.95787
-5.17688
-2.70847
0
-2.37192
0
-0.973827
0
-4.28807
0
-0.888743
-4.18724
-2.52649
-3.37752
-5.58115
-0.0125788
-0.381245
0
-7.12795
0
-1.63563
0
-5.41557
-1.38704
-3.40405
0
-10.4054
-3.98374
-7.46281
-2.85133
-9.68509
-0.0433792
-3.13415
-3.22128
-3.7548
0
-8.07388
-2.03179
-1.11822
-2.17836
-7.01642
-4.77247
-1.46597
-1.35432
-0.144528
-0.988145
-1.63453
-1.85078
0
-1.55988
-2.45411
0
0
0
0
0
0
-6.04041
0
-2.87621
-0.414969
-2.35573
-1.17794
0
-2.09059
0
-0.891773
-5.07046
0
-5.89599
0
-0.512379
-2.03491
-6.33619
0
-1.71526
-3.21688
-0.265414
-0.450146
0
-3.87366
-2.70332
-3.2502
-1.55347
-4.03684
-2.94425
0
-1.92398
-1.0547
-5.5343
0
0
-2.57546
-3.04158
-7.39293
-0.517042
-5.53019
0
0
-9.12264
0
-4.26785
0
-1.88067
0
-1.57692
-2.56048
0
-1.493
-2.7349
-0.198068
-0.841893
-3.9113
-6.62451
-7.21724
-4.97836
-0.243975
0
-0.0558809
-1.09798
0
-2.86629
-3.66654
-1.31417
-3.438
0
-1.37107
0
-2.76264
0
-0.0735474
-1.43924
-2.71485
-0.202466
-2.99533
0
-6.38137
-2.53376
-5.58107
-2.89948
0
0
0
-0.186631
-1.07159
-3.65778
-0.284881
-2.63779
-2.55388
0
0
-7.40891
0
-1.85153
0
0
-2.69912
-4.49862
-0.93175
-5.66104
-1.99809
-3.13819
-1.88185
-5.65293
-4.90065
0
0
0
-0.732242
-4.11519
-5.4972
-0.848635
-5.88861
0
-4.68602
0
-0.633549
0
0
0
0
-1.41678
-8.60781
-0.210741
-4.64881
-0.0673817
-2.08383
-3.39865
-2.37412
-2.50105
0
-3.96848
-3.19201
-0.37547
-0.813706
-0.672658
-1.66239
-1.94148
-2.73903
-0.0955656
-3.36322
-1.57386
0
-3.47554
-1.53077
-3.33674
-1.60842
-0.0888394
-5.95574
0
-1.2231
-8.13748
0
-7.09393
0
-6.53981
0
-2.89548
-1.54295
-5.62066
-1.05675
0
0
-1.19562
-3.37541
-1.5195
-1.18497
-1.02013
-0.695409
-3.84944
-1.48845
-3.5207
-2.43998
-1.34375
-2.03323
-0.772184
-0.0498147
0
-2.81469
-0.901048
-9.7001
-3.577
-0.332717
-1.56021
-0.0249078
-1.28998
-2.59307
-3.11584
-0.82823
-4.75191
0
-4.01435
-1.05324
-3.6601
-3.21324
-1.40511
-5.76066
-0.105633
-6.02351
-1.43679
-6.88464
-1.77097
0
0
-1.09643
-1.57842
-1.916
-2.05193
-3.0502
-2.47819
-2.5238
0
-4.24879
-0.571298
-0.181067
-1.67872
-2.06214
0
-5.41704
-0.101934
-1.81542
0
0
-0.472597
-1.1027
0
-5.51186
-0.581749
-8.25616
0
-1.76772
0
-2.58711
-0.99352
0
-5.74776
0
-0.0152911
-1.82492
-0.558612
0
-4.82566
-0.454175
-0.623862
-0.600925
-8.71824
0
-10.2173
-0.702686
-1.23022
-2.01345
0
-2.94599
0
-5.77747
0
0
-6.60731
0
-1.58529
-5.45448
-1.6316
-3.09386
-0.363619
-1.28221
-7.72027
0
-6.29672
0
-14.2595
-2.89027
-5.60141
0
0
-10.3121
0
-0.270248
-3.2581
0
-1.6916
-0.85243
0
-8.16011
-1.02027
-3.8989
-0.199351
-1.42302
-2.10307
0
-0.231804
-9.01516
0
-0.413205
-3.48862
0
0
0
-0.674152
-5.01913
-0.247801
0
-0.158477
-4.34627
0
0
0
-1.49353
0
-1.61312
-0.59022
0
-1.3423
0
-4.51752
0
-5.23416
0
-3.03544
0
0
0
-4.47817
-3.46706
-0.566307
-6.79979
0
-5.17191
-2.48547
-2.27674
-2.62395
-4.40498
-2.56562
-3.70281
0
-2.11725
-2.81976
-3.9213
0
-1.13197
-1.09879
-3.73076
-2.24408
-3.70122
-1.22889
-1.51927
0
-4.45278
-1.25011
-5.16275
-0.238712
0
-2.62876
-1.34974
-5.42302
-0.512675
-5.06421
-0.172538
-0.344143
0
-3.10251
-0.565671
-2.01286
-6.63613
0
-4.59601
-1.89477
-5.30089
-0.434829
-0.0488519
-3.52661
0
0
-1.54837
-0.0334764
-1.03255
-1.65738
-0.790406
0
-4.80583
0
-1.67714
-3.48767
-0.0994491
0
-1.86511
-5.27647
-1.88292
-1.20355
-4.1661
-4.09369
-2.32421
-2.95896
0
-0.305246
-2.83727
0
-3.3297
0
-3.9053
-0.0497278
0
0
0
-2.70714
-1.54144
-11.1644
-0.280699
-2.96728
-1.55231
-0.0117726
-6.05166
-2.1853
-4.19777
-1.58258
-3.32565
-7.92352
0
-0.696283
0
-5.82476
-2.19494
-0.681805
0
-0.00390501
-5.09374
-0.171989
-2.11631
-4.09084
0
-0.584576
-1.33904
-1.23584
-2.16938
-1.49044
-5.15271
0
-6.50179
0
-5.92152
-5.47172
0
-3.44945
-0.0681983
-0.973783
-4.36945
0
-1.17737
-0.111077
0
-9.80027
0
0
-2.04825
-2.09526
-0.934778
-1.14712
-0.17164
-0.897905
-4.00294
-1.99989
-0.704496
0
-4.85535
0
-4.23633
-0.38527
-4.06735
-3.33738
0
-4.44931
0
-1.09551
0
-2.62406
-0.855878
-1.19421
-0.203745
0
-1.3872
-1.0736
-0.1143
-0.726871
0
-5.95381
-3.83199
0
-2.06737
-2.62823
-3.46802
-0.847107
-6.46623
0
-0.539302
-0.637992
0
0
-1.85526
0
-0.602692
-2.74687
-1.07679
-3.27948
0
-1.07291
-1.97227
-1.58293
0
-4.90628
0
-0.254612
0
-1.1323
-2.73315
-5.45208
-2.50884
-2.86184
-0.52259
-2.58374
-2.77936
-3.38212
0
-4.72688
0
-1.83437
0
-2.29807
-2.60297
0
-3.97546
-4.04279
-4.60802
-1.08883
-4.59644
0
-4.05586
-1.4965
-6.65084
-1.74037
0
-3.33008
0
-4.74642
0
-3.83903
-0.350364
0
-1.68221
-3.3224
-0.322974
-3.15351
-4.7825
0
-10.2672
0
0
-4.77036
-1.34679
-1.94288
-2.40666
-0.867175
-4.50881
-2.21767
-2.14768
-1.36003
-6.8742
0
-8.39755
0
-0.763063
-7.00133
0
0
0
-0.69638
0
-5.83662
-3.52439
-0.0438111
-0.597771
-5.31599
0
-2.4705
-6.15493
-2.56362
0
-4.73053
-0.521722
0
0
0
-1.04604
-0.508067
0
-1.29668
-1.89623
-2.62418
-3.38568
-2.31892
-5.1233
-6.5801
0
0
-0.661763
-1.71123
-3.58618
-0.925
-5.18822
0
-0.0234375
-1.08326
0
-0.051088
-4.16437
-0.251892
-1.52202
-2.64176
-0.942673
-0.818875
-0.688774
-0.0654299
-3.42737
-3.80698
0
-0.226973
-3.1657
-0.0838097
-8.444
-6.21391
-1.91521
-10.0421
0
-7.4235
-0.948033
-1.23144
0
-7.00468
0
-6.71595
-2.54187
-2.15105
-2.61989
-1.14133
-2.41778
-4.04197
-1.87913
-0.518943
-5.95943
-5.28859
-1.61113
-0.103545
-4.58823
0
-5.09075
0
-6.51678
-1.40558
0
-3.89522
0
0
-0.307051
-2.37248
-3.77488
-2.62973
-4.00232
-4.61883
-1.63442
0
-4.97345
-1.30865
-0.779209
0
-1.8649
-1.73222
-1.43087
-0.684468
-7.21927
-6.73174
0
-6.14967
-0.313426
-0.306403
-7.72961
0
-4.61344
-0.46959
-2.76215
-7.15115
-0.383073
-3.87842
0
-1.87204
-1.77156
-4.52351
-0.681928
-5.16167
-1.01205
0
-1.94184
-1.54971
0
0
-2.14145
0
0
-7.03526
0
0
-2.30286
-2.17843
-1.4259
0
-4.31957
0
-5.07113
0
-4.11595
0
0
-5.16457
0
0
0
-0.206241
-2.36515
-5.70989
-3.42779
-6.45954
-6.56121
-5.47358
-1.04392
-2.67176
-5.20665
-1.18209
-3.42787
-4.08851
-4.48608
-6.33529
0
-7.43668
-3.80425
-0.239779
-7.3329
-5.21373
-1.75405
-4.19001
-2.09227
-1.03926
-6.37401
-1.51956
-8.7816
-0.545599
-2.24584
0
-1.84115
0
0
0
0
0
0
0
0
0
0
0
0
0
0
0
0
0
0
0
0
0
0
0
0
0
0
0
0
0
0
0
0
0
0
0
0
0
0
0
0
0
0
0
0
0
0
0
0
0
0
0
0
0
0
0
0
0
0
0
0
0
0
0
0
-0.327581
-1.1447
0
-0.744111
-1.13275
0
-1.56912
-1.10536
-0.0758799
-2.08092
0
-1.64497
-1.55571
-0.207568
-0.883599
-0.658802
-0.30427
-1.28743
0
-1.50396
-1.42476
0
-1.92089
-0.534602
-0.213173
-0.727222
0
-0.819716
-1.33361
0
-0.995647
-1.04384
-0.564191
-2.04382
0
-0.550705
-1.60998
0
0
-0.647372
-0.271152
0
0
-1.72162
-1.29823
0
-0.892856
-0.270886
-0.29042
-1.63946
0
-1.1322
-3.02957
-0.807037
-0.70475
-1.19197
-0.582669
-0.491909
0
-2.26971
-0.305672
0
-2.55394
-0.0491484
-1.54269
-4.97608
-0.0922793
-4.88494
-5.78238
0
-6.51816
0
0
-1.91441
-4.0857
0
-5.75231
-1.90589
-4.2382
-3.55307
-2.46378
0
-1.32822
-5.60621
-1.37096
-1.28909
-6.5181
-1.0785
-1.92959
-1.45449
-0.179805
-3.77289
-3.54261
-2.1806
-0.697776
-5.54039
-0.267232
0
-4.24133
-1.43547
0
-0.224721
-1.25324
-2.20028
-2.09032
0
-1.80548
-0.151114
-6.7768
-0.750566
-3.75392
-4.82989
-4.79883
0
-0.311285
-2.01496
-1.50092
-4.92091
-5.20503
-0.104475
-0.26678
-1.31113
-1.88075
-1.0221
-5.94588
0
-4.97546
-6.48724
-0.092765
-5.83525
0
-0.88314
-1.35824
-0.755961
-4.76903
-0.342999
-0.831665
-6.77234
-0.905486
-4.44509
-0.328684
-4.38678
0
-2.34084
-5.59918
-0.839805
0
-5.87563
-1.09233
-0.550777
-3.78177
-0.444153
-8.84445
-0.949916
-7.2221
-3.74024
0
-0.500457
-0.67481
-3.6354
-0.164034
-4.62901
0
-1.60049
0
-3.31404
-0.942415
-3.21761
-2.51274
-0.297313
-0.194269
-0.335884
0
-3.77053
0
0
-4.45247
0
-1.02312
0
-2.02813
-2.28082
-0.947257
-5.03745
-0.552613
-2.46807
-1.3281
0
-5.3539
-1.83085
-1.77051
-2.74406
-0.434693
-2.78226
-0.173377
0
-1.36764
-9.26415
0
-4.08073
-3.21064
-4.57636
-0.11888
-4.17109
-1.61921
-3.42682
-0.416155
-3.60729
-0.972888
-3.41228
-0.580551
-7.65971
0
-6.73951
-1.51739
-3.05273
-8.52147
0
0
-2.45059
-0.807554
-4.99905
-0.952828
-4.78142
-4.01829
-1.88511
-0.294194
0
0
-3.91908
-0.405289
-0.909366
-4.17716
-0.0856371
-1.26801
-0.739656
-9.1676
-0.309546
-3.95618
-0.555123
0
0
-1.5375
0
-1.15512
-2.2687
-4.49728
-1.37282
-1.95753
-3.37739
-2.70278
-0.0990388
-3.95462
-0.926451
0
-1.46126
-3.8783
-3.98347
-0.507571
-1.01289
0
-7.91145
-1.86343
-5.65416
-1.298
-2.78795
-0.889335
0
-3.95808
-4.44766
-0.501185
-5.98397
-1.81514
-0.487767
-1.64017
-5.5928
0
0
-1.16431
-2.55263
0
-0.912339
0
0
-1.28334
0
-2.46041
-3.6139
-1.27362
-2.46251
-0.504154
0
-1.92136
-1.55532
-2.03674
-2.7281
-1.05427
-1.59403
-3.06059
-4.80283
-1.74471
-1.38206
-1.20194
0
-0.143851
-0.62462
-5.21562
-1.32492
0
0
-5.20719
-6.09497
-2.07361
-1.2768
0
-0.199445
-3.91493
0
-1.36335
-1.64344
0
-2.2912
-0.544032
-4.76649
-4.15775
-0.55183
-5.78045
-0.575721
-3.06371
0
-1.56155
-3.97026
0
-5.66972
0
-8.62181
0
0
-2.03447
-0.497105
-0.259798
-3.44042
0
-5.68754
0
-4.56561
-2.39302
-2.19777
-0.59229
0
-2.06629
-0.267722
0
-0.718227
-4.92064
-1.64205
-0.0554397
0
0
0
0
0
-6.09894
-0.0107756
-4.98812
-0.901458
-5.71661
-2.19363
-1.03342
-1.49714
0
-8.21464
0
-2.06132
0
-4.60256
-2.32869
0
-1.92581
-3.73664
-2.97839
-2.93818
-1.26355
-4.03346
-2.06192
0
-4.32267
-2.83642
-6.88028
0
-3.08075
0
-2.67839
-4.16524
0
-2.33752
-2.15587
0
-5.84189
-0.149422
-5.25506
0
0
-4.35707
-0.118443
-4.70655
-6.65061
-0.33351
-10.1466
-2.22874
-5.05436
-1.07308
-0.507805
-6.4551
-3.89367
-6.72988
-4.16947
0
-3.48128
-4.28595
-4.522
-1.07438
-2.00411
0
0
-1.18514
-2.39747
-1.54978
0
-2.26011
0
-3.87662
0
0
0
-0.819739
-1.57364
-1.19926
-2.39705
-4.19678
-0.0849706
-6.0419
-1.43486
-1.45862
-4.59098
0
-0.815329
-1.31823
0
0
-3.76953
0
-2.03301
-0.237968
-3.44149
0
-6.21299
0
-0.151625
-1.51851
-1.5306
-6.3727
0
-1.10231
-1.00452
-1.82093
0
-5.31798
-1.63523
-6.26246
-0.61748
0
-1.31842
-6.26721
0
-2.6117
-6.54141
-5.61935
-0.209342
-0.0414012
-3.03383
-7.63539
0
-6.31284
-3.13327
0
-7.98674
0
-0.28666
0
-1.00066
-0.352329
-0.729494
-3.98048
0
0
0
-5.0944
-3.13261
-7.80058
0
-10.7586
0
-13.4283
-1.61803
-11.7843
-0.195075
-2.65632
-1.05299
-8.16793
0
-1.03229
-6.15954
-1.67919
-7.73868
-0.669773
-3.7957
-2.17089
0
0
-1.63346
0
-6.16226
-0.0821334
-5.42418
-0.937281
-1.7489
-2.31589
-1.60833
-2.49973
-7.126
-0.205698
-2.16408
-5.65352
0
-4.86522
-0.232946
-5.09763
-5.28054
0
0
-3.98027
-5.15012
-4.65405
-2.77013
-1.92229
-2.67736
0
-0.486638
-4.06499
-1.12322
-1.17497
-0.0953671
0
-7.44229
-1.71588
-3.12513
-0.371373
-1.36204
-0.481338
-0.848266
0
-4.57387
-0.16446
-1.43896
-0.0742516
-5.6558
0
0
0
0
-1.07357
-4.61784
-0.551873
-1.5435
-1.07295
-3.98974
-5.10813
-2.75477
-1.65401
-3.1788
-4.90525
-2.55385
0
-5.33922
0
-0.263321
0
-6.79
-3.639
0
-2.87787
-4.40885
0
-1.55085
-1.6297
-2.91596
0
-2.85055
-1.22504
-0.0648723
0
0
-2.73974
-1.12278
-4.71713
-0.716098
-2.57705
-0.987982
-3.56357
0
-0.493334
-0.824967
-4.912
-0.499408
0
-3.84097
0
-1.55335
-2.56267
-0.663088
0
-5.27197
0
-0.899954
0
-1.96029
-3.45271
-9.41046
-2.10799
-0.12022
0
-1.28586
-1.86726
-7.13973
0
-1.23618
0
0
-2.96083
-0.0746762
-0.362068
0
-3.41827
0
-6.6912
0
-3.13045
0
-2.81709
-3.35967
-0.266847
-2.76373
-1.41339
0
-0.894288
-3.0091
-1.71206
-2.43606
-2.13678
-3.57489
-2.54573
-0.493938
-0.893874
-0.682625
-1.05568
0
0
-0.0198528
-1.75786
-0.841701
-6.17265
0
-9.3455
0
-1.15682
-4.34494
-0.237314
-2.2145
-2.18724
-5.62294
-1.66921
-8.25692
0
-2.20987
-1.98834
-4.02045
-0.418118
-0.0352812
0
0
-1.79267
-0.65485
-8.69258
-1.11191
-3.02905
0
-10.0674
-0.00352964
-7.8542
-1.04429
-4.43529
-0.962387
-8.69631
-1.42938
-0.0419469
-1.72854
-4.52233
-0.496393
-2.19257
0
0
0
-0.624257
-5.29738
-1.45967
-6.515
0
0
0
-6.67052
0
-2.1396
-1.35253
0
-7.01307
0
-0.11401
-3.66109
0
-1.81017
-0.955712
-5.10908
0
-1.5412
-0.931734
-3.2723
-4.73352
-5.13312
-4.68082
-0.221481
-3.48248
-2.40385
-7.37333
-2.29541
-0.407619
-6.10703
-0.0285549
-3.44798
-0.230548
-6.56874
0
-2.37694
-5.35132
-1.98141
-4.17126
0
0
-4.2691
-1.18881
-0.0813188
0
-0.573695
0
-0.433271
-1.93081
-0.3227
-1.69994
-1.62607
-0.68081
0
0
-3.14263
-0.52032
-4.51268
0
-7.43591
-0.134072
-6.87091
0
-0.480032
-0.0239726
-7.50362
0
0
-4.20885
-0.944723
0
0
-4.93069
-0.386474
-1.92323
0
-6.05888
-4.06299
-3.64734
-1.6018
-5.92286
-0.419656
0
0
-0.725216
0
0
0
-2.81598
-2.26115
-1.97975
-4.62546
0
-0.539178
-1.48878
-1.0331
-3.88078
-0.7253
-3.73565
-1.7794
-0.419334
0
-4.52076
-4.99155
-0.481733
-7.82527
-2.85733
-0.301683
-2.43883
-0.246254
-0.805161
0
-3.47751
0
0
0
-0.109844
-0.0857549
-2.55576
-0.222598
-2.8555
-2.10597
0
-0.043767
0
-2.82299
-4.02603
-2.24335
-2.15352
-0.616149
-3.26936
-7.44608
0
-7.44843
-2.33468
0
-7.24508
-0.91485
-0.305515
0
-2.95515
-0.0449366
-3.4262
0
0
-3.13733
0
-3.74488
-0.365834
-3.70005
-0.49531
-4.8093
-2.07229
-6.01396
-0.936532
-8.14156
-5.58794
0
-2.11369
-1.87936
-3.23029
-1.0018
-0.0308013
-6.28909
0
-3.86655
-6.37289
0
-5.31826
-5.02366
0
-1.48412
-2.46658
-3.41602
-2.78407
0
0
-3.81965
-1.50159
-8.23075
-1.44316
-2.13219
0
-1.78791
0
0
-3.06499
0
0
-7.02402
-1.24572
0
-4.19736
0
-0.980218
-4.68704
-0.031639
-0.627544
-0.742132
0
-2.88031
-0.927986
-5.1222
0
0
-1.06436
-0.568959
-3.04786
0
-6.22012
-0.847203
-1.26935
0
-2.09069
-0.226734
0
-0.669741
0
-4.81333
-0.268018
-2.81767
-1.71365
-6.16421
0
-2.65404
-0.227583
-4.36993
-1.4694
0
-8.37057
-2.2654
-2.54316
-8.82244
0
0
-3.41047
-4.16233
-0.501434
-1.22114
-3.96192
-2.98911
-2.16219
-3.06481
0
0
0
0
0
0
0
0
0
0
0
0
0
0
0
0
0
0
0
0
0
0
0
0
0
0
0
0
0
0
0
0
0
0
0
0
0
0
0
0
0
0
0
0
0
0
0
0
0
0
0
0
0
0
0
0
0
0
0
0
0
0
0
0
0
0
0
0
-0.992511
0
0
-0.31376
-0.027573
0
0
0
-0.109427
0
-0.400701
0
-0.152358
0
0
0
0
0
0
0
0
0
0
-0.0974437
-0.0125933
0
-0.220929
0
0
0
0
0
0
0
0
0
0
-0.0775982
0
0
-0.843091
0
0
-0.0515561
-0.0875324
0
0
-0.134329
-0.182064
0
-0.0311384
0
0
0
0
0
0
0
-0.0553709
0
-2.91802
-1.41969
-4.17319
0
-1.62309
-1.8295
-1.74652
-1.05732
0
-6.09321
-2.39793
-1.34708
0
0
-0.0962369
0
-0.776418
-1.49546
-2.08097
0
-1.56186
-1.13779
0
-0.767361
-4.66434
-0.871076
-2.34998
0
0
-1.43417
-2.89018
-0.632793
-6.17708
-3.9455
-4.73571
0
-4.25809
0
-8.19831
-3.56853
-3.63126
-4.79777
-0.982271
-1.48328
-2.85239
-0.657974
-0.118215
-0.277195
0
-4.00593
-1.05917
-6.26692
-3.26902
-2.6971
0
-1.04856
-2.94352
-0.0712609
-1.60443
-1.05094
-1.42408
-2.44443
0
-0.0518816
-0.235169
-1.57937
-5.57524
-3.30429
-3.29618
-1.09696
-1.75697
-0.204725
-0.795533
0
0
-3.84442
-2.64759
-4.97833
0
-7.52195
-1.95211
-5.30217
-5.29524
-4.68042
-2.01089
-1.72645
-0.298371
-0.365653
0
-0.0289133
-0.67921
-1.66483
-4.92482
-2.03282
-5.17691
0
-1.23032
0
-2.26036
-0.441852
-0.626609
0
0
0
-1.54101
0
-5.64299
-1.0903
0
-0.360571
0
-2.31402
0
-1.22932
-0.749229
-3.90016
-1.97478
-3.62077
-4.64456
-2.75945
-1.91986
0
-4.05424
-2.45203
0
-1.66459
-0.67937
-1.44889
-1.27886
-4.00355
-0.36609
-4.68552
-0.0764177
0
-2.09175
-1.21621
0
0
0
0
-0.827284
-1.73885
-2.20142
-2.34794
-1.31229
-5.21047
0
-0.477971
0
-2.44658
0
-0.72984
0
-4.82636
-0.553645
-0.392133
-8.21826
-0.0149102
-0.0533551
-1.09473
0
-0.602948
-4.73233
-2.36288
-5.00314
-2.80617
-5.53169
-2.59726
-1.88266
0
-4.58486
-0.421923
-0.22007
-1.41755
-1.66794
-1.79626
-6.09622
0
-7.24767
-0.0698658
-8.49648
-4.85672
-2.20837
-2.68714
0
0
-1.15322
0
0
-2.94094
-3.7271
-0.582271
-6.00747
0
-7.04831
-1.55367
-6.23982
-1.93331
-11.5039
-1.30744
-2.30281
-8.45719
-0.508386
-10.8042
-0.405449
-1.19588
-1.32587
-0.0355655
-1.14469
-9.14166
0
-0.0524536
-0.640808
-2.69981
-2.11763
0
0
-5.52472
-3.44611
-3.67392
-4.24001
-7.54301
-4.34224
0
-5.4034
0
-2.00698
-1.036
0
-3.36717
0
0
-5.61609
-1.17231
-3.02905
0
-0.37285
-5.55599
-0.191384
-1.51471
-2.09669
-1.3321
-0.394559
-2.14978
-4.80299
-0.350788
0
0
0
-0.978715
-5.81469
-2.32896
-3.31839
0
-2.39013
0
-2.15801
-0.233729
-4.78316
0
-2.41046
-1.08287
-1.47616
-3.05238
-9.35686
-5.4965
-3.04631
-3.7433
-4.33012
-0.727136
0
-0.846987
0
-4.7004
0
-0.0157057
-8.65551
0
-1.76162
-0.257335
0
-7.265
0
0
-2.15925
-0.147305
0
-3.38761
-2.83162
-2.5492
0
0
-7.10344
-1.30966
-9.97637
0
-2.28906
0
-1.13962
-1.65219
-2.39941
-2.88745
0
0
0
-4.47961
-1.85037
-4.47154
0
-0.386096
-1.65992
0
-4.25995
0
-6.26716
0
-2.49032
-4.65393
-1.7115
-1.52134
-2.47916
-5.1594
-1.31443
-1.45435
-2.40068
-3.52654
-1.47554
-3.27659
-0.586649
0
-1.62559
-2.95914
-4.07373
-0.720805
-2.96583
-0.720198
0
-10.9376
-0.956229
0
-2.82701
-3.27414
-0.536521
-0.745761
0
-0.137339
-0.788754
-1.16784
-0.62014
-4.83383
0
-4.64377
-1.86061
-1.82084
-1.39067
0
0
-0.118787
-3.60831
-7.26785
-4.52186
-5.81292
0
-4.26516
-2.43368
-2.31807
-0.493081
-4.95537
0
-7.48428
0
-5.07062
0
-1.94805
0
-1.27462
-3.01915
0
-0.599692
-5.1814
-0.187299
-1.65809
-0.835233
-1.15418
-0.964002
-6.51374
0
-1.59027
-3.24608
0
0
-4.16504
0
0
-5.75264
-0.621474
-2.76872
-0.465183
-1.19692
-0.869398
-4.04183
-1.21504
-6.10386
-3.08475
-1.43614
-3.15576
-0.488926
-5.06686
0
-1.67409
0
-3.23851
0
0
-7.8886
-3.1425
-1.85852
-2.3293
0
-4.4196
-0.759467
-2.2022
-1.29259
0
-5.25569
-2.22099
-2.68939
-1.15481
-0.538057
-1.55971
-2.47364
-5.41923
0
-3.26419
-0.353142
-0.894201
-1.3344
-1.26551
-1.28342
-3.54086
0
0
-0.40887
0
-4.75389
-0.342045
-0.302327
-1.22653
0
-0.200395
0
-0.119983
-0.946095
-1.2851
-3.63398
-10.8081
-2.23484
-5.82674
0
-5.92892
0
0
-6.42001
0
-9.02516
-0.128947
-4.28152
-3.24545
-0.690846
-0.304222
-0.744592
-0.284614
-1.02113
-2.7386
-2.24119
-2.44275
-1.53048
-0.375328
-0.356293
-1.79534
-1.81973
-0.650582
-6.02232
0
-4.18254
-4.15298
-3.52317
-0.134729
0
-5.67673
0
0
0
-4.91572
-8.2579
-6.20301
-2.80194
-1.93616
-0.390727
0
-6.85756
-2.14273
-0.508256
0
-6.86896
-0.779037
-9.17823
-1.70104
-9.10694
0
-6.02681
-0.354
0
-0.680138
0
-10.2449
0
-0.745558
-2.4353
-2.74648
-2.44826
-3.61798
-3.47471
-1.44358
0
-2.49467
-2.71534
-5.73197
-0.212157
-11.8206
-9.03474
-2.09632
-2.43989
-0.437953
-8.31381
0
-6.19086
0
-6.37373
-3.24887
-0.101205
0
-6.18231
0
-1.23601
-0.883393
0
-0.825949
-1.56049
-1.92307
-0.92228
-2.63663
-4.07182
-3.21261
-4.42987
-1.91226
-2.56885
-2.16491
-4.48634
-0.332118
-2.28445
-2.34723
-2.99511
0
-4.65074
-2.35388
-2.40733
-3.2072
-9.72594
-3.60702
0
-2.14372
-0.832844
-3.62189
-2.82102
-4.36872
-0.330423
-4.14328
-0.653973
-5.60541
0
0
0
-3.51893
0
-3.2238
-1.10436
-5.40642
-3.79963
-0.161427
-6.62878
0
0
-6.04484
-0.478857
-4.36677
0
-1.2961
-0.712679
-0.588689
-2.29597
-1.55559
0
-4.47504
0
-4.22872
0
-2.64236
0
-1.23883
-0.907233
-0.958382
0
-1.51002
0
-0.103895
-2.60912
-0.715493
0
-4.75736
-1.19428
-0.397566
-1.58038
-4.21816
-1.75312
-1.82932
-2.62461
-0.490797
-3.38138
0
-2.73477
-3.83812
-3.67122
-0.186355
-4.39362
-1.01608
-1.84796
-1.36789
0
0
-2.16933
-1.12203
-1.86094
-3.55573
-1.25009
-0.608219
-1.91134
-0.077778
-2.92524
-0.800334
-1.65278
-4.72375
0
-2.8036
-1.35465
-2.2376
-5.6397
0
-2.78473
-2.63654
-3.63304
-5.74166
-6.0524
-1.81427
-0.925425
-4.23909
-2.47864
-4.22471
0
-2.96123
-4.50223
-1.18286
-3.6027
0
-3.32083
-3.91957
-1.1822
-3.91625
-0.101814
-0.949399
-3.35329
-6.33669
0
0
-2.73889
0
-2.61103
-5.09476
-3.20285
-1.71031
-2.07984
0
0
-1.13207
-0.927252
0
-5.34937
-2.59964
-3.69225
0
-4.53953
0
-0.982007
-1.08057
-1.26866
-2.0941
-3.53602
-1.28322
-2.32863
0
-5.14492
-0.866509
-0.406443
0
-0.0933376
0
-7.13314
0
-3.59668
-0.644317
-5.85767
-0.200839
-0.854383
-8.26472
0
-3.34808
-2.37998
-4.18695
-4.75688
0
0
-4.55852
-3.45548
-0.218785
-2.58137
-3.20021
0
-0.154712
-5.27899
0
-5.61066
-0.687957
-4.1795
0
-1.47853
-0.575635
-4.56956
-1.38198
-2.32001
0
-0.0673423
-0.934045
-0.413604
-1.36508
-1.31426
-1.4607
-0.857484
0
-2.32335
0
-3.8741
0
-2.29193
-1.7781
0
-0.489104
-1.89282
-4.24346
-8.98525
-2.69767
-1.26332
-4.70203
-0.240588
-1.91611
0
-7.00077
0
-9.76331
0
-4.84695
0
-4.7642
-4.85839
-0.194192
-0.249677
0
0
-0.773044
0
0
0
-8.00744
-0.0326499
-3.50218
-0.956962
-0.385448
-5.48082
-5.29628
-0.0687189
-1.82069
-3.76309
-3.18541
-2.89537
-0.0417835
0
0
-0.0933649
-1.54108
0
-5.00935
-1.83597
-6.86218
-5.02989
0
-7.22191
-2.11935
0
-4.59343
-0.253243
0
-3.50753
0
0
-0.128629
-1.0428
0
-4.33752
0
-4.68421
-0.821084
-0.302914
0
-2.22869
-4.42625
-0.78493
0
-6.55794
-2.07517
-3.98579
-3.80115
-4.61209
0
0
0
-3.04108
-0.655087
0
-0.653505
-5.25579
0
-1.27592
-0.666242
-2.72735
-2.51939
-1.2999
-0.949235
-3.66251
-5.65653
-2.80249
-4.21368
-1.62921
0
-3.74603
-0.71016
-2.23607
-5.47759
-3.28005
-3.89466
-2.71449
-3.88036
0
-4.41503
0
-7.64723
-0.0108657
-3.97251
-1.25702
-3.81606
0
-6.77155
0
-2.90287
-2.07899
-2.07052
0
-2.70139
-7.1743
-8.10666
-4.92752
0
-6.69793
-0.857407
-3.99213
0
-5.82149
-0.973334
0
0
0
0
0
0
0
0
0
0
0
0
0
0
0
0
0
0
0
0
0
0
0
0
0
0
0
0
0
0
0
0
0
0
0
0
0
0
0
0
0
0
0
0
0
0
0
0
0
0
0
0
0
0
0
0
0
0
0
0
0
0
0
0
-0.200021
-1.2597
-0.0124765
-0.87428
-0.75457
0
-1.14104
-0.28482
-0.661856
-0.765125
0
-0.999598
-1.56275
-0.14955
-1.31935
-0.0487659
-0.43919
-1.4764
-0.192333
-1.41755
-0.39751
-0.0415856
-1.44295
-1.05467
-0.244801
-1.0516
-0.126174
-1.19681
-1.34562
0
-0.81129
-1.13367
-1.3183
-0.674743
0
-2.21492
-1.20945
0
-0.769082
-0.179214
-0.0939119
-1.53394
0
-0.614669
-0.84742
0
-0.247713
-0.903237
-1.8774
-1.92473
0
-2.06125
-0.428829
-0.112117
-0.937605
-0.032773
-0.633989
-1.62672
0
-0.046904
-2.28267
0
-0.955719
-0.641927
-2.04952
-4.16875
-3.41349
-0.12934
-4.0532
-4.81484
0
-7.08647
0
-0.503498
-1.97171
-3.56502
-6.0239
-1.68212
-5.07263
-1.30096
-0.467996
-2.82301
-1.98747
0
-4.59728
-1.30158
-1.26004
-2.02579
-1.42202
-2.21466
0
0
-6.22593
0
-6.20959
0
-1.07253
-1.56451
-1.15416
0
-2.77341
0
-0.138561
-0.541292
-2.77428
-1.48488
-1.49662
-1.57746
-0.413926
-0.558035
-2.89378
-2.21488
-2.71215
-1.57448
0
-2.50907
-0.301333
-0.263433
-5.65989
-1.22368
0
-5.55608
0
-3.63395
-3.78889
-0.17357
-2.89252
-2.78911
-3.13209
-1.6452
-0.115604
-2.23776
-5.30356
-4.95421
-1.652
-2.93138
-2.29352
-4.67202
0
-6.02879
-0.47028
-8.1796
-2.107
0
-0.286844
-1.72374
0
-0.177139
-2.32403
-0.638009
-4.80369
-4.77602
-2.6379
-4.13414
0
-3.54235
0
0
-3.56674
-4.79114
-1.74842
-1.97244
-0.302945
-0.112919
-1.81983
-3.31076
-1.96643
-3.62995
-3.66703
-7.17407
0
-0.458489
0
-4.52232
-1.45539
-1.26518
-1.06432
-0.758402
-0.916401
-0.102469
-4.16139
0
0
-5.72323
-4.98719
-3.90912
-1.50969
-4.07254
0
-2.99144
-0.714392
-1.69726
-4.4785
0
0
-2.10408
0
-6.82306
-6.69668
-3.89034
-5.08893
-0.530904
-3.54206
-3.95333
-3.33137
-3.69598
0
-5.43366
-2.44672
-1.54251
-7.45501
-3.50652
-2.2818
-4.46808
0
-5.54715
-2.02074
0
-3.48146
-0.0325847
-5.29497
-0.106
-12.616
0
-7.58854
-1.2079
-2.14898
-4.68399
0
0
-0.0705532
-0.198879
-9.27244
-0.371272
-0.5689
-0.527231
-5.45023
-3.03774
-1.17554
-3.92345
0
0
-0.107162
-0.309083
-0.314787
-3.12346
0
-5.13671
-2.23527
-9.49745
-0.24553
-4.3525
-0.337749
-0.0576168
0
-0.42862
-1.22921
0
-1.30533
-0.816584
-1.0362
-1.01213
-3.57395
-0.940532
0
0
-0.690941
-2.15315
-1.82715
0
-6.911
-1.56103
-5.32165
-0.322937
-1.82904
-3.96902
-8.24652
-2.00504
0
-8.256
0
-4.25131
0
-0.901808
-3.30488
0
0
-3.08446
-4.20525
-0.914106
-4.41611
0
-6.50399
0
-6.11506
0
-1.17003
0
0
-6.7353
-1.21062
-3.74393
-3.87957
-3.22875
-0.0363574
-0.137103
-1.99791
-1.17557
0
-6.22815
-0.0881336
-7.66459
0
-6.86678
-0.904333
-4.21412
0
-4.66054
-4.55626
-7.00065
0
-5.98932
0
-1.53996
-9.17828
0
-5.80879
0
0
-0.856423
-0.347708
-0.442585
0
-5.10876
0
-3.39445
0
0
-3.5763
-2.8429
-5.22327
0
-13.3339
-1.14708
-6.81191
0
-3.49676
-2.16869
-2.03778
-1.63784
-6.1132
-5.81306
-1.31586
-0.969444
-4.71229
-0.171319
-0.0897521
0
0
-0.0254974
-1.5169
-1.10262
-6.96912
-0.981642
0
-3.2026
-5.52167
-4.59688
-4.24846
-1.44642
-5.52946
-0.660037
-8.63437
0
-8.28888
-0.0988746
-1.1408
-1.30425
-1.7924
0
-4.79641
0
-2.22045
0
-1.62966
-4.36923
0
-6.8126
0
-1.51448
-0.753665
-4.72155
0
-6.06164
-0.875391
-1.59147
-4.01923
-3.65087
-1.42105
-2.10018
-4.7432
0
-3.75955
-5.91367
-2.32244
-2.55565
-2.89104
-1.97284
-0.16741
-5.39185
-1.01506
-1.37673
-0.0790332
-2.90684
-1.36723
0
0
-5.05101
-0.153135
-4.64458
-2.12661
0
-1.48788
-0.243594
0
0
-6.88649
0
0
-1.95464
-2.60746
0
-2.90638
0
-0.548749
0
-8.40958
0
-9.41002
-2.21037
-8.15189
-0.754604
-4.09185
-2.21732
-1.93318
-1.63638
0
-4.20225
0
-0.474931
-4.30454
-1.00305
-0.785854
-10.7131
-1.39265
-3.31954
-2.74649
-1.33481
-1.99331
0
-4.68396
0
-5.88832
0
-1.90932
-1.23789
0
-3.62328
-1.09809
-4.16094
0
0
0
-2.80816
0
-1.0437
-3.77388
-4.32808
0
-0.593119
-2.54292
-3.23485
-4.13996
-2.3174
-3.03414
-5.27164
-3.54701
-0.640783
-8.07517
-0.461421
-2.97776
0
-4.848
-2.362
-1.07435
-0.474391
-3.05711
-2.88088
-0.612937
-1.52848
-0.508204
-7.26188
-5.31852
-2.37882
-4.80216
-1.08309
-5.5668
-1.84529
-2.26892
-2.61665
-2.70033
-1.82469
-1.2123
-1.60786
-2.29975
-2.1723
-5.76716
-3.82878
-2.85054
0
0
-0.823473
-0.660529
-8.57209
-0.127892
-6.6249
0
0
-1.45907
0
-1.69513
-5.77162
-1.78565
0
-3.97854
-2.23395
-0.577267
-3.18283
-2.04048
-1.86122
-4.20527
-0.904452
0
-3.06514
-6.1447
-7.54823
-0.334506
-1.52142
-8.15803
-0.658852
0
-3.88705
0
0
0
-6.60857
0
-8.53404
0
-0.847756
0
-0.619714
-0.944041
-2.4774
0
-8.57763
-0.606618
-6.65702
0
0
-0.0772016
0
-3.20049
0
-2.67963
-4.88272
-3.38208
-1.51352
-2.94462
-1.36776
-1.07384
-4.33035
-0.909937
-1.71501
-3.36763
-0.666684
0
-3.77678
-1.34614
-2.45495
-2.30796
0
-4.37766
0
-9.81729
-0.888087
-9.78047
0
-3.87036
0
0
-1.35672
0
-1.55309
-5.22186
-4.51606
-2.98045
-2.56797
0
-4.73061
0
0
-2.99575
-3.72458
-0.523574
-5.68056
0
-0.263778
-5.02699
-3.40041
0
0
-1.51969
-2.9829
-0.921613
-0.651084
0
-0.190351
0
-2.01936
-0.604813
-0.667759
0
-4.91428
0
0
-1.6954
-0.483812
-0.829068
-2.57594
-1.91733
-0.282459
-5.51901
-0.862317
-1.45531
-5.56496
-0.970342
-2.79084
-0.35949
-2.45126
-1.19351
0
-7.10496
-0.329077
0
-6.21658
-7.01368
-1.56604
-1.02906
-1.29728
0
-1.65811
-2.07802
0
-2.10846
-0.706663
0
0
-2.02189
0
-0.952198
-1.25175
-5.51115
0
-2.85267
-4.73485
0
-3.01562
-2.08687
-5.90186
-0.730031
-2.63244
-2.15604
-0.488355
0
-2.26961
-2.24222
0
-1.21967
-0.901819
-0.086818
-3.83424
-0.913366
-0.754573
-1.13194
0
-5.61824
0
-4.0849
-0.927172
-7.70242
0
-8.46584
0
-7.33772
-1.2995
-2.08468
-2.31156
-1.58095
-1.1114
0
-2.3686
-1.00245
-0.0495779
-1.72326
-0.668774
-4.60602
-3.6801
-2.2575
-0.315007
-1.13412
-2.98916
-5.60939
-3.51837
-0.857085
-1.18431
-0.672081
-3.46074
0
-1.99039
-3.69625
-4.89794
-3.76627
-1.15088
-3.21695
0
0
-0.332952
-2.67935
-3.24117
-1.72795
-11.6428
-0.105593
-17.0703
-1.58729
-7.38249
0
-5.47522
-0.545681
-1.59781
-1.9393
0
-0.394872
-8.3055
-0.125079
-0.747312
-5.48442
-0.42281
-1.41833
-2.96926
0
0
-1.12093
0
-1.56869
-1.06044
-2.57927
-0.286918
-1.9832
-3.0861
-5.07981
-5.30862
-2.56778
0
0
0
-7.42455
0
-6.59901
-1.75571
-2.32557
-1.64373
-3.71624
0
-0.12111
-5.94424
-3.35417
0
-1.65603
0
0
-0.192094
-2.9936
-3.44108
-2.74618
-6.68294
0
-7.28869
-2.31653
0
-3.8296
-4.33182
-0.843899
-0.644472
-0.179218
-0.478587
-1.84304
-0.0514636
-2.34838
-0.336741
-5.78694
0
-3.65987
-5.98542
-5.50624
-5.2202
-3.15068
-0.931201
-0.518688
0
-7.20572
0
-6.40598
-2.83856
-0.467923
-5.46393
-3.16858
-1.76917
-2.36439
-5.82783
-1.01962
-1.82274
-0.105066
0
-6.20114
0
-0.457358
-3.95623
-0.369914
0
0
-2.32979
-1.22774
-5.84376
0
-0.425737
0
-2.97668
-2.82849
-3.44041
-2.27336
-3.26289
-1.40744
-2.97381
-3.40268
0
0
-4.22194
0
-4.62364
0
0
-4.98013
-3.6548
-0.00992079
0
0
-7.8458
0
-6.87035
-1.77099
-5.51934
-1.44553
-4.17952
0
-1.0853
-1.24666
-1.97402
-0.7568
0
-0.824189
-1.63296
-3.40719
0
-0.491059
-0.451093
-4.75995
-0.953261
-3.4237
0
-5.90074
0
0
-1.60927
-3.20384
0
-2.38105
-2.83155
-1.55966
-4.74502
0
-0.450373
-4.02136
0
-1.1306
-0.0863001
-2.23063
-2.46473
-1.94322
0
-1.93042
0
-0.902265
0
-2.23196
0
-3.65834
-0.153015
0
-5.82774
0
-0.334935
0
0
-1.08074
-1.86529
-1.72452
-1.1261
-4.12384
-2.01847
0
-1.52104
-1.75355
-2.55495