<?xml version="1.0"?>
<VTKFile type="RectilinearGrid">
<RectilinearGrid WholeExtent="0 32 0 32 0 32" Origin="0 0 0" Spacing="1 1 1">
<Piece Extent="0 32 0 32 0 32">
<PointData>
</PointData>
<Coordinates>
<DataArray type="Float32" format="ascii">
0 0.524874 1.04975 1.57462 2.0995 2.62437 3.14924 3.67412 4.19899 4.72386 5.24874 5.77361 6.29849 6.82336 7.34823 7.87311 8.39798 8.92285 9.44773 9.9726 10.4975 11.0224 11.5472 12.0721 12.597 13.1218 13.6467 14.1716 14.6965 15.2213 15.7462 16.2711 16.796 
</DataArray>
<DataArray type="Float32" format="ascii">
-5.03879 -3.62163 -2.20447 -0.787311 0.629849 2.04701 3.46417 4.88133 6.29849 7.71565 9.1328 10.55 11.9671 13.3843 14.8014 16.2186 17.6358 19.0529 20.4701 21.8872 23.3044 24.7216 26.1387 27.5559 28.973 30.3902 31.8074 33.2245 34.6417 36.0588 37.476 38.8931 40.3103 
</DataArray>
<DataArray type="Float32" format="ascii">
0 0.524874 1.04975 1.57462 2.0995 2.62437 3.14924 3.67412 4.19899 4.72386 5.24874 5.77361 6.29849 6.82336 7.34823 7.87311 8.39798 8.92285 9.44773 9.9726 10.4975 11.0224 11.5472 12.0721 12.597 13.1218 13.6467 14.1716 14.6965 15.2213 15.7462 16.2711 16.796 
</DataArray>
</Coordinates>
<CellData>
<DataArray type="Float32" Name="Scalar" format="ascii">
0
0
0
0
0
0
0
0
0
0
0
0
0
0
0
0
0
0
0
0
0
0
0
0
0
0
0
0
0
0
0
0
0
0
0
0
0
0
0
0
0
0
0
0
0
0
0
0
0
0
0
0
0
0
0
0
0
0
0
0
0
0
0
0
-0.0817224
-0.256706
0
-0.710225
-0.313068
0
-0.697826
-0.615833
0.128062
-0.777836
0
-0.77837
-0.520963
-0.00249198
-0.14132
-0.305943
0.297314
0.0817123
0.100956
-1.20332
-0.442699
0
-0.159604
-0.305466
-0.444027
-0.632759
-0.116567
-0.521063
-0.419342
-0.0151134
-0.735404
-0.456036
-1.30086
-1.22581
0
-2.16694
-0.26224
-0.314401
-1.50163
0
0
-0.978078
0
-0.0201044
-0.136271
0
-0.710036
-0.581423
-0.212629
-0.774485
0
-1.91503
-0.457726
0
-0.866816
0
-0.0804931
-1.51922
0
-0.350701
-0.823817
0
-0.744107
-0.850986
-1.33539
-2.80902
0
0
-2.77632
-0.290569
0
-1.14983
-1.71941
-0.236606
-1.03965
0
-0.352774
-0.761631
-7.4873
0
-3.50828
-4.9608
-2.0454
-0.00531853
-4.9928
0
-1.37319
0
-0.789373
-2.69214
-1.55124
-1.74658
-2.4431
-5.9401
-2.21703
-2.8716
-3.66407
-0.525576
-0.186141
-9.14693
-0.779883
0
-7.41177
-0.389689
0
-3.47163
0
0
-1.88932
-0.222427
0
-5.59111
-0.0781558
0
0
-0.569128
-0.434934
-2.50081
0
-2.18672
0
-2.03651
0
-3.43955
-2.51182
0
0
-1.68218
0
-3.28917
-2.73963
-2.70852
0
-3.9305
-0.725089
0
0
0
-2.13908
-1.71385
-1.3473
-8.22825
-0.212369
0
-3.6208
-2.66485
-2.17231
-2.51416
-1.76396
0
-0.711006
-3.31312
0
-6.51274
-1.65642
-6.95422
0
0
-3.0035
-0.0882145
0
-0.108178
-10.1707
0
-1.47103
-2.25165
0
-1.12718
-0.0807908
-8.77404
-0.945603
-6.13601
-0.703924
0
-3.33324
0
-2.0519
0
-4.23553
-0.616665
-0.640419
-3.96598
-2.59242
-2.12748
0
-6.96229
-0.834676
-1.1889
0
-3.52111
0
-4.55634
0
-6.892
0
-7.19596
0
-6.61815
0
-4.71013
0
-6.64223
0
0
-1.82814
-4.20483
-1.40872
-3.96642
0
0
-0.184542
-2.72462
-0.262592
-0.508162
-1.88353
-0.394027
-7.15733
0
-6.18461
0
0
-3.58369
-1.10895
-5.04932
-2.74132
-1.99623
-0.0977362
-0.630692
-2.79302
-4.97704
-1.07845
-3.8782
-1.30856
-4.55425
-1.73069
-1.97575
-2.28626
-0.804147
0
-0.409261
-2.88419
0
-0.560488
-5.51736
-2.67499
0
-3.36488
0
-3.54239
-1.07025
0
-3.529
-7.18681
-3.01308
-5.35502
-0.80207
0
-1.05662
0
-3.00125
-1.09347
-0.571184
-2.7707
-4.97141
-2.30589
0
-0.884557
-2.23584
-1.42225
-6.07242
0
-7.43162
0
-4.56701
0
-1.97784
-3.75701
-3.32503
-4.10581
0
-1.80943
-6.86813
-1.47018
-8.37867
-0.854955
-1.79179
-4.07313
-0.479508
-2.75143
-6.06376
0
-2.5263
0
-5.57879
0
-5.16854
-1.48
-6.5169
-0.59747
-0.986395
0
-2.60768
-1.73961
0
-4.44331
-1.20329
0
-0.201436
-4.37507
-1.08695
-2.31497
-2.47702
0
-6.11324
0
0
0
-2.80173
-5.33675
-0.447016
-3.86715
-0.118633
-4.1746
-8.63012
0
-0.199858
-8.66492
0
-3.63184
-2.14668
-4.37832
-0.424052
-0.55099
-5.636
0
-6.03237
-0.877216
0
-4.22464
-0.499794
-0.374574
0
-3.53782
0
-6.38058
0
-0.723692
-5.18025
-2.70579
-0.479173
-0.025555
-1.72698
-4.56478
-0.230997
-1.37484
0
-0.693303
0
-1.11908
-3.28943
-0.384476
0
-1.17282
-1.04848
-7.77276
-3.73199
-2.49894
-7.24079
-4.1007
-0.815219
-4.3588
-2.70101
-0.0964309
-1.15323
0
-1.88606
0
-0.413683
-0.734762
-2.17987
-3.42803
0
-3.95175
0
-4.1273
-1.15881
-6.79758
-0.102331
-1.21527
0
-1.97844
-0.0393531
-3.52312
0
-4.96863
-0.609632
0
-0.196093
-1.66105
-1.34886
-0.805738
-5.82958
-3.05857
0
-1.15567
0
-3.86722
-1.94115
-3.20868
-0.805892
-2.13725
-3.21948
0
-1.19526
0
-6.23736
-1.02536
-1.53055
-3.46962
0
-6.36705
-0.732457
-6.426
0
-0.0511251
-3.8108
-1.25319
-5.89825
-0.797708
-7.90164
-1.53063
-0.403282
-0.327979
-3.60496
0
-3.83578
-0.467326
-3.37949
-6.31984
-4.27082
-4.55286
-1.6134
-3.79549
-0.534353
-4.90582
-3.80632
-2.19937
0
-2.67406
0
-6.41376
0
-4.60981
0
-0.122934
0
-6.57403
-1.85195
-5.93374
-0.567058
-0.0728957
0
-2.53478
-0.876461
-0.291361
-7.65226
-0.324465
-1.87531
-2.23374
-2.18182
-2.4098
0
-1.75511
-2.56862
0
0
-6.41493
0
-3.7043
0
-4.48846
-0.961627
-1.60513
0
-2.08624
-2.87829
-0.422429
0
-4.27318
-8.03145
0
-9.54804
-0.93753
-3.27315
-6.53843
-2.43201
-0.0759317
-1.1082
0
-0.996147
-0.0859189
-3.52853
-1.32626
-5.74179
0
-9.304
0
-9.64095
-0.751742
0
-6.86623
-1.15008
-2.69778
-3.22156
0
-4.93759
-0.930735
0
-1.08358
-2.56871
-0.817365
-1.66894
-3.65029
-5.26863
-0.405936
-1.0239
-2.22539
-0.361976
-1.70675
-1.87313
-0.243787
-3.15063
-1.97544
-2.67698
0
-3.16213
0
-3.20991
-1.61342
-7.07177
0
0
-0.337556
-7.03284
-3.38725
0
-6.34399
-1.58798
-7.80096
-0.169482
-0.410429
-5.18851
-5.94996
-1.07266
-1.93367
-1.92756
-0.820063
-0.26702
0
0
-0.288616
-3.58728
-0.194365
0
-9.50403
-11.6732
-2.23012
-8.95567
-2.26487
-1.22021
-3.0373
-1.72142
0
-0.504925
-4.23972
-0.270843
-0.961301
0
0
-5.09473
-2.03802
-2.43982
-1.62282
-0.79584
-3.10763
0
-4.1656
0
-3.89526
-0.705536
-2.84011
0
-1.8791
-6.9936
0
-3.52949
-4.68391
-0.95061
0
-2.87402
-0.0161915
-1.25748
-0.272518
-0.800831
-5.0402
0
-5.88732
-0.71524
-1.50975
-1.24948
-4.35336
-0.580526
0
-1.17434
0
-1.08095
0
0
-0.743052
-3.00752
0
-0.0606114
-2.1557
-1.20187
-2.28605
-2.20648
-0.547836
-2.45608
0
-5.45102
-2.2292
-1.35705
-2.58765
0
-1.88576
-2.23276
-3.02964
-0.699977
-4.95799
0
0
-6.7929
0
-1.81035
0
-0.148893
-2.65747
-2.97501
-0.782879
-5.06328
-2.00731
-1.82289
-0.435001
-0.943887
-1.98034
-1.40666
0
-4.24882
-2.76602
-0.186883
-2.79678
0
-2.60372
-0.439344
-1.90267
-3.15704
-1.91698
-0.568445
-2.52803
-0.459709
-0.722571
-0.0362188
0
-2.98551
-2.77857
0
-3.00305
-2.24194
-4.82095
-0.655569
-1.34642
-4.76047
-1.50813
-2.16623
-0.0368486
-6.94507
-4.16285
-7.86488
0
-9.17439
-1.47716
-4.31171
-2.11907
-3.14358
-1.33903
-7.73076
-3.22498
-5.2407
0
-1.09667
0
-0.408154
-1.58117
-2.38533
-1.63482
-5.6597
-1.54213
-2.23261
0
-0.638631
-1.33986
-3.17148
-5.81241
-0.791315
-3.39081
-3.59583
0
-1.64268
0
-0.278856
-0.571313
-3.42813
0
-2.41386
0
-6.63769
-0.0891532
0
-4.37173
-3.08498
-7.96932
-0.0283362
-0.0153836
-3.42317
-3.11368
-3.2773
0
-1.0498
-2.26248
-1.69972
0
-2.77069
-0.902708
-1.37271
-2.24649
0
0
-1.76263
-7.68748
0
-1.38447
-4.83751
0
0
-1.65425
-0.740861
0
0
-0.140439
-2.9617
-3.51399
0
0
-5.68657
0
-5.06249
0
-4.78849
0
-8.65323
0
-3.14139
-1.87425
-4.1999
-8.22306
-3.67115
-1.2075
-5.79847
0
-3.36515
-8.14176
-0.730338
-4.45935
0
-6.01083
0
-2.03889
-9.49879
0
-8.77936
0
-5.17745
-1.75492
-4.73528
-3.80667
0
-6.61109
0
-8.08821
-0.741445
-2.52348
-1.08039
-3.58014
-5.33337
0
-3.39052
-2.59394
-4.63896
-2.56357
-0.543548
0
-5.64962
-0.224898
-6.08271
-0.443815
0
-0.674829
-3.37915
-1.75588
-4.55944
-0.942544
0
-0.553553
0
-2.0011
-1.48486
0
-3.34568
-1.14399
-0.952453
0
-1.27157
0
-3.74391
0
-5.7344
0
-3.56417
0
-1.4925
-0.0566386
-0.21596
-3.66887
-0.270196
-4.23724
-1.78514
-1.74409
-2.46438
-4.39329
-6.1203
-0.35126
-1.48248
-2.7896
0
-1.70639
-0.561071
-0.240252
-0.424662
-1.00086
-4.04211
-3.92204
-5.7024
-3.28875
0
0
-2.13838
-0.242024
0
-0.993076
-1.23015
-4.1811
0
-0.935546
-0.296212
-6.94028
-3.35353
-3.12467
-0.660728
-3.51989
-6.54371
-4.12002
-3.34511
0
0
-3.74242
-4.62353
-3.54586
-1.50912
-0.0897558
-2.80358
-0.918262
0
0
0
-3.39222
0
0
-1.399
0
-5.20574
-1.39685
0
-4.15138
-1.03232
-5.36866
-3.40284
0
-0.620599
-1.39056
-0.821288
-1.11092
0
-5.75616
0
-2.36351
-0.115571
-0.956122
-5.10779
-3.39132
-7.84701
-0.74646
0
-2.90005
0
-7.68881
-0.285193
0
-0.744101
-4.85944
-0.505185
-4.30257
-1.40344
-4.62756
0
-1.06844
0
-5.64608
-0.230856
-0.337866
0
-6.67813
-0.0602604
-1.30721
-2.92552
-6.20473
-2.47322
0
-0.53916
-3.94641
-0.919332
-1.37095
-5.63347
-1.10252
-7.58846
0
0
-2.72267
-3.72454
-6.62094
-4.42353
0
0
0
0
0
0
0
0
0
0
0
0
0
0
0
0
0
0
0
0
0
0
0
0
0
0
0
0
0
0
0
0
0
0
0
0
0
0
0
0
0
0
0
0
0
0
0
0
0
0
0
0
0
0
0
0
0
0
0
0
0
0
0
0
-0.0659712
-1.59268
-0.182825
-1.1015
-1.56977
0
-0.821956
-1.33548
-0.267695
-1.76946
0
-0.634931
-1.40341
0
-1.24478
-1.17033
-1.85963
-2.14932
0
-0.778185
-1.39384
0
-1.0708
-0.846567
-0.804795
-1.28164
-0.0065904
-1.73527
-1.31479
0
-0.721855
-1.72556
-1.12227
-1.95156
0
-0.0830168
-1.90555
0
-1.52923
-1.432
-0.505453
-0.582178
0
-1.71761
-0.313245
0
-1.98688
-0.0935188
-0.112109
-2.29582
0
-0.149242
-1.43725
0
-0.798161
-2.16989
-2.60478
-0.644089
0
-3.90606
-1.68377
0
-2.50976
-0.115205
-1.58718
-8.20196
0
-6.90224
0
-8.80125
-4.69796
-5.95617
-1.4434
-3.81482
-1.63274
-10.3254
-0.348576
-7.17285
0
-6.81386
-3.03039
-3.45833
-1.97276
-5.3636
0
-7.16776
-7.77549
-3.51808
-3.2267
-3.12194
-3.54403
-3.03017
-4.28712
-1.87767
-0.218395
-3.13717
0
-5.42212
-3.7132
-1.43312
-5.60961
-3.28646
-5.00481
0
-7.33821
-4.2191
-2.0947
-1.34128
0
-2.26728
0
-0.623309
-0.951343
-3.93858
-7.42166
-6.21149
-6.0629
-0.204414
-1.47798
-1.31626
0
-2.34805
-0.827216
-0.967141
0
-5.79835
-1.74049
-4.57008
-0.737178
-1.10598
0
-1.99915
-0.552596
-1.43009
-2.71094
-0.523684
-3.28247
-2.38202
-3.81958
-0.768958
-6.00339
-1.08879
-0.730918
-4.26578
0
0
-0.450711
-6.07517
-0.295694
-9.35864
-1.62649
-7.28205
-0.630032
-2.34158
0
-1.25627
0
-4.93697
-0.116232
-7.6862
-5.96999
-3.93022
0
-3.2742
-5.54122
-2.78095
0
-3.2333
-0.925577
-2.62914
0
-4.51634
-8.72633
0
-4.34948
0
-2.05632
-1.1741
0
-3.35763
0
-2.01781
-0.238823
-2.89008
-1.05007
-0.172681
-1.49345
-11.5708
0
-1.68483
-9.0686
0
-2.00146
-2.31305
-0.509239
0
-2.77868
0
-0.993978
-0.359011
-5.71053
-0.236013
-2.65048
-0.457047
-3.24341
-1.57776
-0.228489
-3.65566
-0.918784
-7.70029
-0.916228
-1.04138
-1.31861
-6.3181
-3.75627
-0.834358
-0.830789
0
0
-0.156219
-3.29925
-0.403985
-1.2224
-2.68465
-4.04837
-0.627887
-3.89324
-6.65963
-1.10285
-1.75297
0
-0.472078
-1.83194
0
-5.65829
-3.97495
-2.78022
0
-4.38783
-0.466875
-0.152452
-2.59626
-4.27027
-2.35658
-1.6249
-1.55551
-4.24406
-1.45785
0
-6.29122
0
-5.42188
0
0
-2.0015
0
-0.719587
-4.26376
-3.30124
-4.72949
0
-3.14354
-1.38539
0
-2.48881
-0.433857
-1.26971
0
-2.84478
-0.146014
0
-3.5988
0
-0.302966
-11.172
-0.399232
-4.32142
-2.15614
0
-7.09195
0
-6.70312
0
0
-7.21154
-2.26544
0
-2.55362
-2.32338
0
0
-1.08492
-2.70683
-0.641279
-0.77401
0
-1.22365
-1.5375
-2.00151
-4.46898
0
0
-1.76845
0
-1.80722
-4.62981
-0.977596
-1.64492
-0.849113
-1.47633
-7.11451
0
-7.48282
-0.518216
-0.0955736
0
-7.69393
0
0
-3.9952
0
-6.90945
-0.187561
0
-3.16961
-1.6322
0
-5.37155
-0.520858
0
-5.99264
-2.08751
-4.90422
0
-0.181908
-1.78277
0
-7.97347
0
-3.53983
-5.63114
-0.222291
0
0
-0.247254
-1.58453
-3.76397
-1.59612
-0.593334
-5.38349
-1.18783
-2.50685
0
0
-3.3097
0
-4.67967
-9.22907
0
-5.08224
-3.06746
0
-3.37975
0
-5.24123
-1.46581
-1.11873
-0.573755
-0.894792
-2.29795
-1.12599
-2.10453
0
-4.46348
-0.954934
-3.33222
-0.630447
-4.17624
-4.52582
-1.04699
-1.11959
-3.03183
0
-3.24544
-1.57172
-0.528612
-1.71716
-1.5973
-2.32319
-0.432407
-0.765164
-1.27276
-0.402082
-1.64012
-2.37292
0
-4.49459
-0.514208
-6.38482
0
-4.64408
-2.29579
-0.125814
-6.7896
-8.1087
-5.66147
-3.48219
-3.46003
-2.95304
0
-3.80164
0
0
-6.12847
0
0
-4.86844
-0.858867
-0.65584
0
-2.07632
0
0
0
-4.51146
0
-2.25579
0
-1.92581
0
-7.97422
0
-8.4227
0
0
-0.0598522
0
-0.506588
-0.675582
-2.45265
-7.38303
0
-7.72494
0
-3.10869
-0.837264
-1.01168
-7.41426
0
-1.33727
0
0
-4.30544
-0.306843
-10.304
0
0
0
-0.197293
0
-4.68754
0
-2.13241
0
-6.88929
-1.44354
-7.37594
-0.128608
-3.92229
-2.12626
-0.573104
-1.15685
-0.431377
-6.24205
0
0
-0.710071
0
-3.37866
-4.15687
0
-0.214745
-5.13341
-2.96084
0
0
-1.44468
-1.93916
-2.02872
-1.83627
-2.6781
-0.553542
-2.45979
-6.05684
-0.278974
-1.65833
-0.813194
-2.57241
-0.449186
-5.37366
0
-4.96014
0
-5.22679
0
-2.7954
-0.103077
-4.4626
-2.04563
-3.18551
0
-0.717229
0
-5.28158
-0.906587
-0.690264
-0.252858
-8.582
0
-8.73736
0
-6.15841
0
0
-6.22905
-3.02445
-3.89876
-5.14252
-4.75619
0
-4.58752
-1.33485
0
-2.62439
0
-4.79322
0
-3.0106
-1.7646
-2.24291
0
-14.6837
-0.592052
0
0
-3.56531
-4.00331
-0.675136
-1.38125
-4.0299
-2.87615
-1.56873
0
-5.35818
0
-1.51169
0
-4.98325
0
-6.98959
-0.255336
0
-6.23935
-1.88431
-5.18563
0
-2.59132
0
-0.0922174
-10.1485
0
-2.86035
-0.039605
-0.544913
-0.925277
-5.37629
-0.0460887
-6.66047
0
-3.67921
-1.23438
-1.88329
-0.811563
-0.927432
-2.443
-0.329721
-2.46355
-0.213747
-0.460187
-2.4228
-1.68333
-7.66471
-6.06219
0
-10.5331
-4.81799
0
-4.54704
0
-5.85942
-3.83764
-0.47959
-4.33048
-0.65962
0
0
-2.66984
-2.91392
-4.31555
-1.31949
0
0
-2.26768
-1.86757
-2.72519
-1.67617
-4.19129
-0.983314
-1.50028
-0.252438
-3.03467
-1.46773
0
0
0
-1.74414
-1.27197
-1.54411
0
0
0
-6.30963
0
-4.48195
0
-1.56062
-1.07892
0
-2.40509
0
-2.19626
-1.70288
-0.469961
-7.23937
0
-4.89468
0
-3.50492
0
-3.18254
-2.51864
0
-3.4315
-3.65737
-0.993565
-4.67312
-0.599125
-1.50545
-0.960232
-2.82524
-0.355464
-1.7542
-0.752268
0
-4.96849
-0.607132
-0.687581
-3.83806
-2.77875
-0.818832
-4.0909
-3.14263
-0.949114
-0.119024
0
-3.1041
-1.0374
-2.70749
-2.24744
0
-5.61532
0
-3.00018
0
-5.56559
0
0
-3.49484
-2.62827
0
0
-3.64442
-1.66153
-1.26761
-1.22327
0
-4.12638
0
-3.96231
0
-7.23038
-1.68678
-1.36448
-1.69594
-2.81552
-0.538909
0
-7.35763
0
-7.28387
0
-3.79999
0
-0.205403
-2.57179
-1.1025
-0.80577
-2.5525
-2.54464
-3.63788
0
-2.38299
-0.791622
-6.34426
0
0
0
-6.94654
0
-4.82023
-3.6256
-1.85938
-7.53426
-3.55231
-5.25938
-1.32136
-1.62404
-3.41034
0
-1.88163
-5.17999
0
-1.39954
-3.06266
0
-1.47147
-4.32976
0
0
-6.92729
-0.805218
0
-5.32848
-1.33205
0
-4.03542
-4.12368
0
-6.64161
-0.217344
-5.30948
-1.608
-3.44332
0
-1.40124
-0.291811
0
0
-3.64015
0
0
-5.12008
0
-2.26641
-1.08085
-1.25564
-5.99474
-2.2257
-1.90257
-0.61807
0
0
-4.45183
-1.92371
-7.70055
-3.28216
-5.53826
-2.52093
-3.29756
-6.05386
0
-1.7971
-6.27479
-1.07478
0
-4.40022
0
-3.29719
0
-0.787678
-3.54853
-5.88813
0
-0.953907
-2.93898
0
0
0
0
-0.708724
-7.34518
0
-7.79966
-0.269227
-3.00661
-2.27921
0
0
-0.843256
-0.573367
0
-1.89432
-0.843325
-5.12293
0
-0.405927
-0.0913312
-3.11524
0
-2.5153
-0.980314
-4.36391
0
-2.79072
0
-0.910899
-1.5272
-0.577475
-1.13155
-2.11946
-1.73773
-1.36919
0
-0.0365666
-0.0349085
0
-1.31495
-1.36357
-1.39705
0
0
0
-3.36312
-2.05785
0
-2.27776
-1.68677
-0.686059
-8.58235
-1.52143
0
0
0
-10.0279
-3.49245
0
-3.88715
-0.0248439
-6.41274
0
-0.274612
-4.20714
-1.90513
-0.553859
0
-0.24622
-2.60671
-6.07997
-1.24155
-0.404902
0
-1.25301
-3.04355
-4.62487
-2.68111
0
0
-5.54552
0
-3.23271
-0.380693
-2.37991
-1.49302
0
-4.28071
-1.61539
0
-6.66876
-2.38412
-3.76086
0
-4.79092
0
-2.84367
0
-2.67624
0
-4.58517
-2.22188
-0.914221
-4.72625
0
0
-4.45027
-0.665387
-1.41767
-1.47373
0
0
0
-5.41237
0
-5.04286
0
0
-0.14437
-2.26218
-3.79042
-4.65222
-2.38597
0
-1.30027
-1.52116
-5.72706
-2.71507
-4.25574
-0.718752
-2.65301
-6.32706
0
0
0
-5.08538
-0.0851495
0
-1.50533
-9.50013
-4.53314
0
-2.77546
0
-0.933708
-3.94872
-1.28566
-7.79835
-0.992477
-7.77481
0
-1.52263
-2.97888
0
0
0
0
0
0
0
0
0
0
0
0
0
0
0
0
0
0
0
0
0
0
0
0
0
0
0
0
0
0
0
0
0
0
0
0
0
0
0
0
0
0
0
0
0
0
0
0
0
0
0
0
0
0
0
0
0
0
0
0
0
0
0
0
-0.352882
0.0279617
0
-0.012064
0
0
0
-0.234695
-0.0366524
0
0
0
-0.191495
0
-0.848671
0
0
0
0
0
-0.134898
0
-0.0197546
0
0
0
-0.468665
-0.472768
-0.260637
0
0
-0.305694
0
0
0
0
0
0
-0.0593313
0
0
0
0
0
0
0
0
0
0
0
0
-0.146974
0
0
0
0
0
0
0
0
-0.417154
0
0
0
0
-1.09533
-1.69486
-1.16574
-0.577517
-0.414353
-1.33934
-0.401333
-1.09644
-4.44678
-0.69103
-0.842474
-1.37356
0
-1.6354
-2.7925
0
-3.18035
-0.119676
-3.07499
-3.60738
-2.99256
0
-2.70159
0
-2.36313
0
-0.294733
-3.63075
-0.0759413
-4.55382
-2.47498
-1.16943
-5.75642
-2.71594
-5.93694
-4.64367
-2.3656
-1.07375
0
-7.12211
0
-0.277142
-3.63816
0
-4.9101
-4.93618
-1.61174
-8.29194
0
-1.38136
-0.119487
-2.49138
-1.9387
-0.0542867
0
-0.39552
-2.98975
-0.941327
-3.20941
-2.63176
0
0
-4.4904
0
-3.00146
-0.836952
-0.401988
-0.62127
0
-4.41797
0
-3.30954
-0.70765
0
-4.16615
-7.42886
-4.01505
-1.09108
-2.59414
-1.0094
-5.08825
0
-1.41936
-6.83715
-0.1337
-6.17732
0
0
-8.58981
-3.98802
-3.28226
-5.02114
-1.14105
-1.70297
0
-2.39647
-1.992
-0.400658
-5.18609
0
-3.38606
0
-0.15605
-0.77675
-5.3205
0
-5.53248
-0.413355
-0.377427
-2.75305
0
-4.25
0
-5.33939
-4.46354
0
-10.1076
-2.58158
-10.7631
-6.71729
-1.41853
-1.98522
0
-20.3922
-0.550806
-10.4885
0
-0.876551
-0.0497479
-3.20629
-2.20058
-3.30276
-1.2596
-4.37819
-3.6904
0
-4.26317
0
0
0
-1.60237
-9.27272
-0.249209
0
0
0
-4.7828
-3.63734
-0.28354
-0.446463
-1.42523
-4.23728
0
-4.35576
-1.29679
-2.10321
-1.09405
-0.440498
0
-1.00399
-5.30894
-0.57745
0
0
-5.63595
-1.78561
-3.31584
-4.36166
-0.403062
-1.31048
-0.0343648
-6.63787
-3.77044
0
0
-2.91628
0
-3.55439
-4.73809
-8.87377
-2.78436
-0.55473
-5.64288
-6.33316
-2.94833
-0.905098
-1.6047
0
-5.96286
-0.299473
-5.8482
-0.280183
-2.2395
-1.20081
0
-4.96656
-0.180891
-5.95841
-2.66751
-0.774518
-13.9053
-0.440703
-8.43058
-4.3951
-3.56427
-3.18677
0
-9.1777
0
-1.13218
-0.327276
-0.879921
-7.65953
0
0
-4.18112
-0.705372
-6.77005
0
0
-4.12371
-3.74768
-0.133088
0
-8.4864
-0.699795
-3.32058
-3.26614
0
-5.12034
0
-4.24828
0
-3.04522
-2.0015
-2.12177
-5.57991
-2.81128
-3.29963
-1.68398
-0.722037
-2.56113
-2.03305
-2.47616
-1.16258
-6.54851
-2.29642
-1.65238
-0.830156
-8.68203
-0.501338
0
-6.4416
-2.84227
-6.39873
-0.123603
0
-5.42913
-3.18007
-0.736081
-4.17022
-3.37731
-1.75503
-0.50212
-5.78393
-0.462042
0
0
-4.42205
-0.985131
-6.1204
0
-2.44131
-6.58447
-1.75258
0
0
-2.04974
-5.77921
0
-1.67478
-1.62926
-3.22798
-1.4091
-0.52901
-0.405487
-3.52105
-1.14142
-4.30644
-0.276155
-10.6965
0
0
-8.67617
0
-1.53227
-5.88329
-4.2165
0
-0.925203
-0.176597
-1.82214
-2.48551
0
0
0
-6.8524
-1.96691
-1.99848
-3.84463
-0.0280701
-7.75952
0
-1.3966
-3.6768
0
-11.1167
0
-2.60602
0
-3.0657
-5.48648
-0.906695
0
-0.257545
-0.809144
-5.25867
-4.44467
-3.68235
-0.485
-5.18503
0
-1.26621
0
0
-1.91583
-0.395941
-2.21816
0
0
-0.0948984
0
-2.47204
0
-5.3659
-1.54998
-7.12785
-1.63283
0
-4.81486
-6.64764
0
-4.54313
-1.24569
-3.75464
-1.34693
-0.929065
-3.89847
-4.81733
-4.15256
-1.71234
-5.78968
0
-7.93737
0
-0.775781
-0.881719
-2.75202
-4.8027
-1.42172
-7.73189
-0.468382
-1.78602
-3.25946
0
-0.192873
-1.77491
0
-4.76142
-3.42147
-6.02519
-1.14487
0
0
-6.40737
-3.19065
-2.12073
-0.113163
0
-0.83138
-0.410465
-6.42379
-4.23024
-1.14911
-2.55087
-0.477493
-3.65863
-5.73325
-0.790433
-0.531011
0
-3.26679
-0.27091
-2.07839
-0.0267039
-6.5881
-0.754254
-1.20211
-1.84086
-3.38962
-4.47992
0
-6.31542
0
-9.45276
0
-5.31833
-2.87126
-0.831556
-9.28323
-1.5702
-1.43291
-4.00194
-0.723462
-0.660929
-0.333451
-3.6142
-1.58564
-3.65678
-2.68967
-4.64697
-2.18932
0
-6.97352
0
-4.9475
-2.70468
-5.87839
0
-0.96033
-7.75882
-1.74162
-2.10701
-1.32594
-1.70518
-3.30804
-2.70431
-3.14783
0
-6.36883
0
-0.115167
0
0
-2.04861
0
-0.995782
-3.30886
-3.33053
-4.11973
0
-1.2625
0
-1.48649
-9.41691
-0.0371604
-5.2592
-0.941422
-1.96011
-0.310246
0
0
-3.63886
-0.514311
0
-4.93006
0
-3.00355
-3.40656
-3.45961
-3.8622
0
-0.999561
-4.83134
0
-4.30944
-0.837932
-1.4536
-3.2585
0
-3.24244
-2.60051
-0.922914
-8.80778
0
-0.881667
-2.04102
0
-0.0592186
-7.30769
0
-2.67682
-3.23881
-3.8599
-2.21329
-1.53937
-1.95346
-1.03652
-2.5804
-3.33859
-1.10619
-0.210783
0
0
-3.83016
0
-1.58201
-1.20554
-3.91794
-1.91074
-1.9665
-1.42751
-2.45524
-2.66993
-0.16678
-1.63326
-1.36601
-1.13027
-3.96855
0
0
-0.129499
0
-0.143013
-1.63999
-1.26325
0
-0.807145
-2.46135
-7.73617
-4.19957
-2.35236
-4.6259
-4.20613
-1.09945
-3.75023
0
-0.813886
-3.94656
-5.13819
0
-1.23737
-0.350952
-1.08293
-0.42337
-1.41226
-1.15124
-4.14824
-2.10563
-0.381813
-1.19324
0
-1.66853
-1.68768
-3.04815
-0.852494
0
-0.794956
-4.1426
-1.28666
-3.3579
-0.0952783
-3.73501
-1.67863
-2.01998
-0.732321
-0.290248
-0.0333083
-2.97265
-0.417864
-0.362699
0
-3.10194
-1.06399
-4.94991
-6.59923
-2.41498
-1.99743
-0.0071992
-3.44483
-1.77966
-0.033113
-2.38108
0
-0.280418
-0.294906
0
-5.75928
-3.29428
0
-0.700726
-5.2245
0
-1.49187
-1.31053
0
0
0
-7.50437
-2.06606
-0.617922
-1.09436
-4.78729
0
-0.817646
-2.00497
-0.537127
-3.21779
-0.949984
-0.293111
-2.88123
-2.89362
-1.02132
-3.18718
-0.200001
-5.98771
-0.973449
-7.15556
-4.47862
-0.805502
-3.76661
-0.617402
0
-2.64752
-0.344721
0
0
-3.74448
-0.644488
-4.14386
-4.03996
-0.910416
-2.37502
0
0
0
-4.93921
-6.77546
-3.03034
-0.438595
-2.41194
-2.92024
-0.739409
-0.31938
-0.30014
-0.527279
-0.601547
-8.33007
-2.07392
-0.88461
-7.64574
-2.24166
-2.65996
-0.688732
-5.6777
-0.384591
-4.58459
-0.809489
-5.03352
-0.26201
-5.61985
-1.03687
-0.100604
-6.14667
0
-1.52414
-0.488463
-8.90465
0
-4.11529
0
-0.282028
-2.36717
-1.5067
0
-4.14342
-1.21024
0
0
-5.35165
0
-3.19478
0
0
-0.916669
-1.15298
0
0
-0.587237
-4.47768
0
-6.06266
0
-2.13663
-5.42097
-1.69003
0
0
-9.34237
0
-5.50294
0
0
-1.96547
-0.18225
-6.33054
-1.25194
-1.09698
-0.861505
-0.184872
-1.88925
-1.12717
-1.09714
-2.39831
-1.68284
0
-3.68601
0
0
0
-4.13671
0
-1.22686
-3.50399
-2.68973
-0.232622
0
-0.897477
-3.32967
-8.0824
-0.411728
-5.55726
-0.679532
-6.49879
-1.31384
0
-4.32598
-1.41503
0
-6.46571
-0.0179056
-7.48315
0
-5.86523
0
-0.42651
-3.79055
-0.924895
-4.48601
-2.44681
-2.85209
-4.21535
0
-4.99737
0
0
0
0
-4.70666
-4.92916
-0.290981
-3.54867
-2.51878
-2.32223
-5.5684
-2.72081
-2.0208
-1.15928
-6.52458
-0.125705
-5.18085
-0.720141
-2.63324
-2.53381
-2.10559
-5.22746
-0.925697
-0.86756
0
-2.63604
-0.510309
-0.613895
-2.43714
-0.672986
-0.126596
-5.68788
-6.09571
-2.96605
0
0
0
-0.785692
0
0
-1.6787
-4.95713
0
0
-3.35225
-1.97778
-1.40993
0
-7.7574
-2.46319
-2.98741
-3.11832
0
-3.57375
-0.269889
-1.59281
-9.73429
-2.47679
-1.05039
-3.37717
-1.94094
-0.561384
0
-5.20787
0
-6.09874
-4.58762
-5.06049
-3.32215
-0.343321
-2.33398
0
0
0
-1.83131
-0.856384
-7.57476
0
-1.69854
-4.98725
0
-5.67388
0
-1.10489
0
-2.59769
0
0
-3.99014
0
-3.16677
-0.0412706
-3.28165
-4.86085
-2.64876
-4.73067
-4.97007
-4.59022
-0.641388
-0.262392
-4.45691
-4.92507
-5.59718
-4.54758
-0.138884
0
0
-3.93751
-1.06644
-0.286059
-5.69873
-5.34116
-2.50345
-0.0145372
-2.51107
-10.1183
-1.31776
-1.45975
-3.89118
-1.22779
-2.25806
0
-4.14308
0
-8.56193
-0.697968
-2.54803
0
-4.98449
-0.182047
-5.01842
0
0
0
0
0
0
0
0
0
0
0
0
0
0
0
0
0
0
0
0
0
0
0
0
0
0
0
0
0
0
0
0
0
0
0
0
0
0
0
0
0
0
0
0
0
0
0
0
0
0
0
0
0
0
0
0
0
0
0
0
0
0
0
0
-0.401528
-0.428958
0
-0.937663
-1.42952
0
-1.85796
-0.99859
-0.588916
-0.936249
-0.112652
-1.18374
-1.34278
0.0263132
-1.79903
-0.391099
-0.587502
-1.62191
0
-0.919137
-0.82843
0
-0.573826
-1.02814
-0.191793
-1.82325
0
-0.990937
-0.99332
0.106072
-1.64006
-0.964851
-1.20013
-0.622259
0.0243359
-1.35571
-0.19164
0
-0.967046
0
-0.3291
-2.79173
0
-0.259425
-1.31936
0
-0.223436
-1.24284
-0.401116
-0.347686
0
-1.32815
-0.421676
0
-2.4531
-0.437898
-0.43018
-4.521
0
-0.343569
-2.12906
0
-0.216178
-1.40605
-0.623806
-4.298
-0.260594
-2.61142
-2.21145
-0.239877
-3.09201
-1.14664
-2.69744
-2.92215
-5.46335
-0.940572
-6.77121
0
-7.86667
-2.14012
-2.65969
-1.43855
-0.976135
-1.67778
-1.3621
-0.557619
-2.79377
-1.24671
-0.356656
-7.5679
0
-4.27099
-0.852405
-5.89798
-3.27897
-2.80307
-2.26381
-1.73401
-0.16197
-0.588137
0
0
-3.47147
-1.24257
-0.475603
0
-6.34995
-0.349442
-2.43804
0
0
-2.47585
-0.843534
-5.01555
-3.94885
-0.676761
-2.23682
0
-3.49203
-6.57986
-5.79887
-1.09791
-5.52321
0
0
-5.03284
-5.2978
-6.16263
0
-0.501174
-0.360389
-0.635246
-8.17635
-6.98177
-1.44729
-5.77143
-2.91839
-4.98066
0
-3.8161
-0.478718
-1.63103
-1.81249
0
-5.88005
-0.644934
0
-1.43347
-2.06112
-0.156058
-1.68918
-6.80412
0
-1.16565
0
-1.51973
0
-1.93917
0
-6.83487
-0.729313
-5.06376
-2.42603
-3.83357
0
0
-1.57967
-4.81002
-1.47608
0
-0.151668
-5.80348
0
-0.115132
-7.01243
-1.51102
-0.885102
-0.17909
-3.40416
-1.2025
-3.8905
0
0
-0.230512
0
-1.61125
-3.08197
-3.98198
-0.289849
0
-2.81126
-7.50933
0
-5.27388
-2.81932
0
-1.31363
-0.311086
0
-2.84986
-3.26049
-8.98834
-4.1041
-7.73029
0
0
-7.79026
-1.88285
-17.0843
-4.88958
-3.47273
0
0
-2.06044
-0.382576
0
-0.813251
-2.01855
0
0
-0.122574
0
-1.55208
-0.350978
-0.381828
-2.23843
0
-4.49764
0
0
0
-2.0996
-1.78986
-0.153063
-2.57529
-2.98049
-2.35713
-2.35325
-2.12494
-5.01557
-0.102068
-4.23786
-1.48534
0
-4.23132
-1.40074
-3.41432
0
-0.379228
-1.72535
-3.86962
-3.21352
-5.47967
-0.0433759
-0.0470355
-1.20582
-5.45498
-3.09448
-3.45134
-2.55085
-3.24918
-0.34804
0
-1.366
-4.07551
-3.74774
0
-2.05674
0
-0.477878
-6.99046
0
-2.40877
-2.1435
-2.83749
-7.46695
0
0
-2.401
-5.90961
-0.996891
-1.02074
0
-1.76382
-3.78353
0
-1.96587
-0.374597
0
0
-1.31137
-0.587817
0
-2.51037
-1.14512
-3.03088
-3.79173
-4.29984
-1.04693
-7.75658
0
-1.82101
-6.63465
0
0
-3.82466
-0.022959
0
-3.37762
-0.220908
-6.70953
0
-0.924859
-0.953138
-1.8423
-5.14854
-4.22675
-2.1567
0
-0.93561
-10.6443
-1.20832
-6.11382
-2.30877
-3.74126
-1.4274
-0.80943
-2.39144
-0.165292
-0.68203
-1.1536
-2.76663
-2.97108
0
0
-1.11509
-1.1601
-3.43256
-0.554156
-2.66068
-3.84782
-3.12445
-0.703354
0
-0.861075
-3.57643
-6.49518
-0.34227
-3.55042
0
-6.35413
-0.497724
-3.844
-3.80428
-0.852046
-0.170673
-2.24962
-6.28742
0
0
-8.17277
0
-0.0431151
0
-3.64055
-3.14857
-4.39659
-2.00858
0
-6.04079
0
-0.587849
-3.68767
-2.83393
-3.82617
0
-3.6441
-0.467403
0
-1.92187
0
0
-8.92133
-1.23871
-2.71336
-2.20357
0
-0.437064
-4.90953
-2.24351
-5.30592
0
0
-5.37911
-0.414535
-1.71398
-2.41171
-4.73244
-2.82573
-9.3472
-5.20085
-6.35416
-0.158217
-0.718837
-0.0132687
-4.89716
0
-4.4883
0
-2.24985
-0.0427459
-1.41263
0
-3.1746
0
-0.179234
-2.65353
-3.16853
0
0
-1.17972
-8.13158
-1.9456
0
-2.96351
-2.19051
-0.938675
-2.84371
-1.58941
-5.54538
-0.976595
-8.95373
-0.52016
-5.73965
0
-3.79685
-0.961229
-2.56389
-1.42585
-8.76108
-1.07261
-3.72551
-0.085728
-0.700834
0
-1.82476
-1.84664
-3.92778
0
-1.75641
-6.82208
-0.225228
-5.44496
0
-3.75758
0
0
-0.534395
0
-5.04794
-0.252851
-1.22067
0
-3.35787
0
-4.76187
-0.0270332
-3.45042
0
0
-3.66766
0
-1.83034
-1.5898
-0.28812
0
0
0
0
-0.702028
-2.03468
-1.70876
-3.76311
-5.19592
0
0
-1.60345
0
-0.732582
-6.0924
-1.43796
-3.54183
0
-0.391467
-1.34561
-0.265169
-6.5039
-0.598195
-1.22518
0
-4.89347
0
-1.19349
-7.76935
-3.90238
0
-0.714536
-3.4809
-3.21235
-8.23353
0
-6.9553
0
-4.87438
-0.623462
-0.626901
-7.60604
-0.231293
-8.98811
-2.55412
0
-1.55038
-0.717881
-0.571101
-1.18904
-3.50639
-5.02891
0
-4.18903
-2.15454
-2.48908
0
-0.753306
-3.2855
-1.30917
-5.10669
-0.580871
-1.00945
-4.47569
-3.77076
0
-2.49364
-1.77316
-0.344098
-0.37198
-0.939462
-10.4665
0
0
0
-7.96792
-2.06351
-9.40738
0
-6.67688
-0.354302
-5.45577
-1.44028
-5.77404
-0.544935
-9.07394
-4.32163
-2.31758
-3.44414
0
-3.19232
-0.0458636
-3.13964
-0.112874
-0.258249
-1.70273
-2.89048
-1.79926
-3.1449
-0.283015
-2.65243
-2.71491
-7.44457
-2.61726
0
0
-4.75149
-0.137791
-4.02718
-0.136264
-5.62677
-0.461517
-3.14933
-0.0169615
-2.48428
-2.11891
-1.69698
-1.12204
-2.70805
-1.06887
-2.82186
-2.78619
-3.40646
-3.11253
-1.5407
-3.38716
-3.84481
-1.66875
-3.10003
-0.754612
-0.311262
-3.04947
0
0
0
-0.931482
-3.26571
-5.21431
-0.273032
-0.35975
-2.83234
-0.894503
0
-2.02866
-0.308545
-5.37978
-1.78031
0
-1.66912
0
-0.450979
-1.20464
-4.99859
0
0
0
0
-2.99016
-1.1229
0
-1.47024
-1.96243
-1.3858
-0.739219
0
-3.11596
-1.85
-3.5314
-0.584039
-0.286675
-1.54922
-1.75969
0
-4.9183
-0.107124
-5.46634
-6.34266
-2.4429
-1.13499
-0.943327
-0.367556
-2.28215
-0.364296
-0.589917
-2.724
0
-2.60619
0
-3.26887
-4.34478
-3.09111
-1.41559
0
-1.93024
-0.0476293
-4.77337
-0.700028
-5.4629
-0.0353248
-1.54658
-1.34374
-6.13575
-2.39644
0
-1.9746
0
-3.30105
0
-0.826852
-4.35359
0
0
0
-3.36376
0
-0.477732
-1.25114
0
-0.130418
-0.563859
0
-3.0605
-0.481621
-1.9474
-1.69306
-4.5863
0
-4.31705
-0.995527
0
0
-1.68442
-2.47255
-6.13183
-1.28787
-1.02647
-1.20098
0
0
-2.37408
-5.16714
-2.47749
-1.99958
-6.57896
0
-9.03109
0
-0.132853
-1.76168
-1.23111
0
0
-0.612228
-3.69127
-0.605634
0
-5.94464
0
-0.94897
-1.60992
-2.85686
-0.0590384
-0.827711
-4.00781
-1.0705
-3.48159
-0.299609
-4.4893
0
-4.58589
-3.01782
-7.02357
-1.91099
-0.885487
0
-7.41874
0
-8.49538
-0.776501
-3.04112
-1.15836
-1.10372
-3.68553
-5.1789
-0.00347966
-3.56037
0
-2.47856
-2.22131
0
-1.54922
-0.911053
-0.0967096
-0.715379
-1.93531
-0.740016
0
-10.2196
-2.62339
0
-1.73066
0
-7.67411
-1.17252
-8.44328
0
-3.51255
0
0
-3.1689
-4.068
-5.80595
-1.07945
0
-5.81929
-3.03075
-2.31535
-2.84602
-8.27639
-4.93909
-0.19978
-4.24419
-1.00715
-4.7888
-2.17485
-6.3539
-0.275923
-4.50751
-1.25265
0
0
0
-0.470203
0
-0.986509
0
-1.95098
-3.78131
-0.289539
-1.04395
-3.61442
-0.222892
-0.283383
0
-7.91104
-0.27275
0
-2.67675
-0.833852
0
0
-0.835815
0
-3.56192
-3.92125
-4.97737
0
-1.1702
-1.25108
-1.56403
-4.44853
0
-5.94749
-2.06394
-2.21104
-0.530716
-3.29937
-0.345572
-0.443083
-1.52332
-0.148515
-3.24606
-6.22655
0
-1.99165
-0.663417
0
-3.23696
0
-5.25789
-0.00866666
-1.30221
-2.09489
-0.845892
-2.03111
-0.0799171
-0.712536
-0.166221
-1.11031
-3.84673
-5.21001
-1.82226
-0.0422424
-4.33016
0
-0.473496
0
-0.318691
0
0
-3.73449
-0.888555
-0.757353
0
0
-0.242632
-3.66639
-3.05007
-1.1731
0
-0.241713
-0.975846
-1.12963
-0.163737
-1.31835
-2.05697
-2.64429
-1.3563
0
0
-4.39485
-1.33883
0
-6.37331
-0.0995527
-7.56194
-0.476229
-5.70418
-1.44136
0
-1.04659
0
-3.7881
-0.269152
-3.01428
-0.442853
0
-4.05118
0
-1.94969
-1.44505
-6.29662
0
-0.3133
-1.95274
-6.04217
-1.09285
-2.91809
0
-1.11162
-2.48528
-0.781211
-2.84145
-2.83411
-3.16818
-0.257235
-2.16583
0
-5.73675
-5.50732
-5.52067
0
0
-1.41061
-1.87981