<?xml version="1.0"?>
<VTKFile type="RectilinearGrid">
<RectilinearGrid WholeExtent="0 32 0 32 0 32" Origin="0 0 0" Spacing="1 1 1">
<Piece Extent="0 32 0 32 0 32">
<PointData>
</PointData>
<Coordinates>
<DataArray type="Float32" format="ascii">
0 0.524874 1.04975 1.57462 2.0995 2.62437 3.14924 3.67412 4.19899 4.72386 5.24874 5.77361 6.29849 6.82336 7.34823 7.87311 8.39798 8.92285 9.44773 9.9726 10.4975 11.0224 11.5472 12.0721 12.597 13.1218 13.6467 14.1716 14.6965 15.2213 15.7462 16.2711 16.796 
</DataArray>
<DataArray type="Float32" format="ascii">
-5.03879 -3.62163 -2.20447 -0.787311 0.629849 2.04701 3.46417 4.88133 6.29849 7.71565 9.1328 10.55 11.9671 13.3843 14.8014 16.2186 17.6358 19.0529 20.4701 21.8872 23.3044 24.7216 26.1387 27.5559 28.973 30.3902 31.8074 33.2245 34.6417 36.0588 37.476 38.8931 40.3103 
</DataArray>
<DataArray type="Float32" format="ascii">
0 0.524874 1.04975 1.57462 2.0995 2.62437 3.14924 3.67412 4.19899 4.72386 5.24874 5.77361 6.29849 6.82336 7.34823 7.87311 8.39798 8.92285 9.44773 9.9726 10.4975 11.0224 11.5472 12.0721 12.597 13.1218 13.6467 14.1716 14.6965 15.2213 15.7462 16.2711 16.796 
</DataArray>
</Coordinates>
<CellData>
<DataArray type="Float32" Name="Scalar" format="ascii">
0
0
0
0
0
0
0
0
0
0
0
0
0
0
0
0
0
0
0
0
0
0
0
0
0
0
0
0
0
0
0
0
0
0
0
0
0
0
0
0
0
0
0
0
0
0
0
0
0
0
0
0
0
0
0
0
0
0
0
0
0
0
0
0
-0.430798
-0.28525
-0.0459007
-0.109116
-0.00220982
0
0.206822
-0.231987
0.283841
-0.789073
0
-1.08269
-0.615063
0
-0.493214
-0.67385
0.0122765
-0.797811
-0.249092
0.163886
-0.563529
0
-0.130794
-0.175793
-0.288617
-0.70803
0
-0.173928
0.15357
0
-0.831067
-0.434018
-0.756561
-0.32284
0
-1.06223
-0.00929059
0
-0.141496
-0.0727397
-0.0283133
-0.468234
0
-0.869594
-0.495057
0.00919477
-0.780123
-1.56643
-0.0560629
-0.581794
0
-1.86626
-0.31732
0
-1.6089
-0.8322
-0.780897
-1.5208
0
-0.0765492
-1.321
0
-2.12827
-1.24301
-2.19456
-1.35656
-3.99034
-1.7277
-0.831936
0
0
0
-2.96665
-2.00094
-2.97229
-1.2134
-1.85982
0
-2.2062
0
-2.35602
-0.307501
-0.479126
-3.59933
-1.81185
-0.940657
-2.36779
-1.12575
-1.91594
-4.0915
0
-1.75325
-7.05646
-1.76857
-5.14866
-1.63256
-2.11531
-6.68046
-2.68714
-3.07176
0
-10.3487
-0.257522
-1.45054
-0.495615
0
-2.08821
-1.02464
-2.03696
-0.200268
-1.08416
0
0
-3.65079
0
-3.67735
0
0
-4.87293
-1.5232
-0.817688
-0.0945657
-2.37155
-1.84753
-2.38066
0
-2.43393
-0.592745
-0.179881
-6.25206
0
-1.99193
-4.1419
-1.28153
-3.84286
0
-3.80274
-3.25111
0
0
-4.07957
-0.21093
-0.513173
-4.91447
-0.881814
0
0
-6.44516
-2.04572
-3.03408
-6.2174
0
-2.3768
0
-1.57071
-3.79261
-0.947944
-5.41541
0
0
-1.65322
-0.537947
-2.74724
-1.83053
-0.801892
0
0
-6.61721
-0.0700414
-0.920372
-0.994701
-3.39839
-4.02683
-7.2492
-3.26287
0
-2.19077
-1.17975
0
-3.45236
0
-0.942261
-5.02109
-1.24963
-4.52467
0
0
-0.966232
-6.10186
-2.2809
-3.18728
0
-4.52181
-4.62149
0
-3.43479
-2.02139
-3.36437
0
-1.28719
-2.09155
-3.28993
-1.02495
-5.04325
-1.68982
-5.28728
-0.834318
-9.08928
-0.94513
-6.3133
-4.84069
-5.10382
-1.13446
-2.33082
0
-0.098493
0
-0.481658
0
-5.47097
0
-5.63331
-0.619142
0
-0.293053
-5.70295
-1.22271
-1.34421
-0.405139
-5.95495
-9.39555
0
-5.14482
0
-0.854248
0
-1.11389
-0.0777281
0
-1.81336
0
-3.55594
0
-3.05771
-4.63962
-3.08509
-3.28051
-0.0801111
-0.663671
-3.75396
-3.29935
-5.33027
-1.07
-3.42851
-2.58689
-5.17665
-0.681693
0
0
-0.192561
0
-2.36764
-5.39264
-2.04528
-0.0948006
-5.8593
-1.75533
-3.22642
0
-5.77372
0
-1.57345
-5.16066
-1.7881
-3.39074
-0.229989
-1.81404
-0.127507
-5.66225
-1.56212
-5.78713
-5.15288
-0.686111
0
-3.41735
-0.919237
-0.54123
-6.41925
-1.36224
-2.94221
-0.315907
-1.5334
0
0
0
0
0
-0.677165
-3.2186
-0.691255
0
-2.80762
-0.18143
-4.31136
-1.91255
-3.61747
-3.21753
-4.61958
-0.540261
-0.61684
0
-4.22828
-1.76217
-3.29686
-3.79572
0
0
-2.31973
-5.41751
0
-0.407855
-3.04894
-0.072362
-5.73447
0
0
0
-4.33811
0
-6.59334
-2.22731
-1.13154
-3.95373
-0.211207
-5.62201
-3.22508
0
-3.86363
-1.32864
-2.11085
-2.537
-3.32283
-0.113907
0
-2.97854
-3.80026
-7.66238
0
-4.86128
0
-1.57378
-0.0142395
-0.0185284
-1.65522
-5.23556
-0.925889
-0.715544
0
-1.63176
0
0
-4.89303
-5.84838
-6.30653
-5.6544
-0.718351
-5.66441
-0.715527
-1.10142
-0.333995
-7.23229
-0.273342
-2.01956
-3.05662
-0.867565
0
-3.50507
-2.29437
-0.541856
-1.09349
0
-1.28532
-0.36278
-0.0310481
0
-7.45959
-0.61193
-1.18767
-1.84301
0
-2.47562
-5.23441
0
-3.50903
0
0
-2.76626
-1.98302
-2.33778
-3.28289
-4.66503
0
0
-2.68789
0
-7.23928
-1.13813
0
-3.14729
-1.47172
-2.46987
-2.62394
-3.15028
-4.03021
-2.5856
-5.09493
-0.147263
-4.9565
0
-0.126466
-1.6807
-6.47492
-1.18629
-0.167888
-0.473099
-0.050867
-3.31756
-3.79639
-2.28018
-5.28408
0
0
-1.17184
-0.374301
-5.08889
-2.20512
-1.09717
-1.60067
0
0
-4.20505
0
-3.39321
-1.64115
-0.249771
0
-4.45001
-0.0655302
-5.41829
-0.131642
-0.345231
0
-3.12937
0
-0.789642
0
-3.87715
0
-1.92083
0
-0.0789959
-6.13765
-1.46888
-5.41275
0
-3.44663
-0.314092
-3.98901
0
-0.88597
-1.99285
0
-1.06702
0
-1.59018
-3.28779
-4.00405
-0.516518
0
0
0
-10.2035
-3.41633
-0.506109
-3.33436
0
-0.7805
-0.652886
-2.04051
-1.04604
-4.98602
-1.33926
-6.90315
0
0
0
-0.547823
-1.9424
-0.409402
-6.71673
-0.204483
-1.21671
-2.35007
-4.46324
-3.39392
-6.16509
-1.72763
-6.60464
0
0
-4.20457
-0.0945118
-1.98474
-8.70886
0
0
-0.446658
0
0
-6.9109
0
-2.12171
-0.573658
-7.92946
0
-0.653161
-6.4311
-1.05601
-1.66363
0
0
-4.61917
-0.126718
-2.94541
0
-0.583343
-0.494447
0
-2.65194
0
-3.89569
0
-2.28562
-1.11802
0
-4.69628
0
0
-2.60351
0
-1.9519
-5.74856
-4.29313
0
0
-0.799359
-0.0849001
0
-2.98382
-0.96574
-2.49084
-5.95578
0
-9.04338
0
0
-0.0964124
-7.25416
0
-4.34839
-1.60662
0
0
-0.937853
-0.269419
-5.51501
-2.04249
-1.25583
-1.55178
0
-1.13849
-0.976996
0
-3.18084
-1.94306
-3.48949
0
-4.98713
-2.78402
0
-2.34237
-4.18203
-0.245112
0
-0.785549
0
-0.182053
-5.58478
-1.00902
-4.27228
-2.1197
-3.38981
-6.44681
0
-4.98145
-1.74868
-1.92208
-1.31033
-3.47569
0
0
-0.226167
-2.8856
-0.335153
0
-0.623203
-7.90884
-1.16319
-6.15522
-2.10841
0
-0.724735
0
-7.72944
-1.5429
-5.86387
-0.0725664
-5.41882
-0.598841
-1.27023
-0.0486566
0
-4.10448
-0.729794
0
0
0
0
-5.61288
-0.382557
-2.03659
-1.10044
-0.355338
-3.9514
0
-4.52191
-1.18545
-1.03964
-0.448034
-2.83863
-1.72297
-1.25181
-2.07636
-7.54304
-4.61111
0
-5.76949
0
-0.617541
0
0
0
-2.30268
-2.03919
-0.752088
-0.307883
0
-0.00762949
-3.04947
-3.34366
-0.696315
-3.28269
0
-4.53052
-3.88961
-1.15834
0
0
-5.97159
-0.267784
-3.09252
-0.0302533
-0.585128
-1.96254
0
-3.46368
-6.33372
-0.59373
-5.63326
0
-5.87463
0
-2.65067
-2.59068
-2.96489
-2.89245
-3.68635
-1.01824
-2.57598
-2.43548
-0.382246
-2.28658
-3.16152
-3.14977
0
-1.33323
-1.54305
-1.44872
-2.16245
-2.83899
-4.71095
-3.61266
-3.24075
-0.316117
-3.02332
-4.93902
-0.286315
-7.49448
0
-2.81211
0
-0.0190308
0
-0.891875
-0.676496
-2.66381
-0.624003
0
0
0
-2.87178
-2.76875
-4.35098
-3.08498
-2.76818
-9.75633
0
-4.40823
-5.85958
0
-3.14395
-3.97599
-5.57476
-0.0488461
-4.28611
-0.331315
-3.34576
-2.58147
-4.15067
0
-2.8886
-3.43128
-0.617314
-5.22439
0
-2.43652
0
-0.803274
-1.70308
-2.62708
-1.61177
-1.85316
-0.909911
-2.66951
-3.77604
-6.72039
0
-5.98672
-2.68253
0
-6.15221
-4.60581
-8.13442
-1.02848
0
-0.727744
-3.9643
-0.882172
-0.606395
0
-0.176785
0
-10.3853
0
0
0
-3.49966
-4.15309
-0.0439986
-3.17186
-2.36566
-1.27154
-0.968512
-2.68758
-6.34362
-0.477217
0
-2.10157
-0.842593
-0.928613
-1.55885
-0.293131
-4.69135
-1.56204
0
0
-0.316706
-2.75475
-2.81883
-3.21953
0
0
-10.7982
0
-6.18658
0
-1.73535
-1.12401
0
-4.93861
-0.988153
-3.89623
0
-6.83273
-7.52809
-2.11737
-3.63052
0
-1.07581
-3.48831
-0.985859
-5.25716
-0.639881
-5.52546
-2.70099
0
-6.82878
-0.35989
-5.53233
0
-0.876633
-5.45317
-0.143567
-1.84481
0
-0.7438
-8.06369
-4.74048
-1.11174
0
-0.559092
-0.171657
0
0
-1.55271
-0.522559
-1.5235
-0.174526
-5.57031
-0.879107
-1.87009
-2.69044
-1.40239
0
-4.88641
0
-4.28746
-4.24734
0
0
-1.91993
-0.361785
-7.90759
0
-5.73975
-0.932253
-0.606339
-3.65657
-2.83937
-0.130733
0
-2.57948
-1.32541
-5.02238
0
0
-8.98961
-0.0537642
0
-6.43527
-0.17178
-5.08092
0
-8.37417
-2.59373
0
-0.618747
-2.65575
-2.82241
-3.24148
-1.8348
-1.00577
-1.61812
-4.70779
0
-2.10591
-2.38762
-0.712111
-5.10238
-0.113529
-0.347886
-4.30996
-0.291021
-1.6625
-0.404568
-2.47908
-2.7019
-0.408628
-1.36937
-0.347657
-6.26256
0
-6.25977
-2.03496
-1.32703
0
0
-4.36055
-2.86558
-7.09608
-7.485
-0.542495
-12.0694
-3.93468
-6.86684
-1.90833
-8.21348
0
-3.80126
-3.99395
0
-2.43494
-5.96388
-5.01561
-6.11677
-0.680167
0
0
-6.63415
-2.42615
-5.37536
-5.20356
-2.37616
-6.3366
-0.545712
-2.63382
-3.32617
-6.13513
-0.953152
-1.49564
0
0
0
0
0
0
0
0
0
0
0
0
0
0
0
0
0
0
0
0
0
0
0
0
0
0
0
0
0
0
0
0
0
0
0
0
0
0
0
0
0
0
0
0
0
0
0
0
0
0
0
0
0
0
0
0
0
0
0
0
0
0
0
0
-0.437574
-1.82516
-0.344596
-2.10247
-1.32091
0
-1.28414
-1.29503
-0.773438
-1.56788
0
-1.22782
-2.08222
-0.0481532
-1.5646
-1.26685
-0.934708
-1.31716
0
-0.865458
-1.657
0
-1.13316
-1.09739
-0.794629
-1.65259
-0.0100727
-0.934921
-1.59873
-0.0515915
-1.83592
-1.26482
-1.23759
-3.48442
0
-1.69067
-2.07165
-0.0251722
-0.059159
-1.56389
-0.663498
0
0
-0.907827
-0.28114
-0.0896705
-1.05744
0
-0.0905008
-1.62999
0
-0.360834
-1.50501
0
-0.410211
-2.25212
-1.40846
-2.01994
0
-1.5592
-0.717058
0
-3.34176
-1.00108
-2.43111
0
-3.74503
-0.854343
-6.62237
-0.0983792
-7.48679
-3.54245
-0.890416
-1.41354
-2.24372
0
-3.60903
0
-6.71414
-1.99472
-3.19443
-2.40512
-4.11476
-2.01717
-6.62274
0
-5.22653
-1.02894
-4.61888
-5.06956
0
-8.54991
-2.53942
-1.6248
-4.74153
-1.86692
0
-2.09079
0
-1.00142
0
-1.05308
0
-5.18395
-2.37932
-4.63687
-1.92412
-6.10048
-5.4248
-5.60036
-1.86376
-8.14089
0
-1.03656
0
-3.86767
0
-3.86494
-0.486948
0
-5.17657
-7.56159
-1.53954
-4.30394
0
-4.94369
-0.408774
-5.20927
0
-0.0946115
-4.57429
-2.9756
-0.467144
0
0
0
0
0
-6.32128
-0.980522
0
-0.76715
-4.27108
-2.67997
0
-8.65145
-1.21442
0
-0.214122
-1.14649
0
-0.0504691
-6.96985
0
-0.54913
-2.36631
-0.444749
0
0
-8.34417
0
0
-5.44598
0
-5.71889
-3.47979
-8.60826
0
-0.844093
-2.02577
-2.94352
0
-0.40571
-2.90237
-1.70809
-2.18982
-0.378182
-2.35984
-0.8725
-3.34006
-3.31037
-6.41223
-0.519585
-0.98367
-7.19207
-0.400823
-9.79101
0
-1.56226
0
-1.18837
-9.93469
0
-1.64279
-1.96778
0
-0.112794
-0.0573392
0
-4.44548
-0.0270849
-2.99485
0
-4.77138
-1.25676
-1.55301
-1.8333
-0.810696
0
0
-1.9083
0
0
-7.51894
-2.53425
-4.40197
-0.717359
-5.38084
-0.709249
-2.64858
-1.17143
-2.39027
-2.42753
-4.81014
-1.42959
0
-1.81833
-7.21845
-0.595766
-0.596185
0
0
-2.77192
0
-9.00761
-0.978882
-3.81315
0
-3.37095
0
0
-1.36417
0
0
0
0
-1.80192
-7.59985
-1.60707
-2.02243
0
-0.846229
0
0
-1.33303
-0.0139522
-3.1333
-3.43423
-1.24204
-3.61816
-4.01094
0
0
-5.39578
0
0
-1.01222
-0.479216
-6.34883
-1.4533
0
-5.21327
0
-0.468053
-1.36562
-0.441262
-1.7266
0
0
-4.51238
0
-1.60312
-3.09325
-0.648148
-0.495558
-0.775458
0
0
-3.11035
-0.15874
-2.54682
-1.13793
0
-6.61118
0
-5.30039
0
-3.40263
0
-1.4799
-3.1772
-0.176415
-3.1474
-3.33937
0
-4.32728
-2.2076
-6.54543
0
-5.49038
0
-0.18746
-0.0945763
-0.194861
0
-1.22592
-6.63829
0
-4.71926
-2.99757
-2.17288
-1.31048
-0.296995
-1.89667
0
-8.18211
-2.97387
0
-6.68936
0
-9.4029
-3.44906
-1.61625
-1.92757
-2.82759
-0.480128
-5.67185
-0.129609
-1.32577
-0.181024
-0.148622
-3.4344
-3.02483
-4.08226
-2.84413
0
-2.0084
-1.95291
0
0
-1.39208
-2.13594
-7.63963
0
-1.50082
-1.02908
-3.78184
0
-5.49551
0
-2.85805
0
-3.84519
0
-5.9649
-0.439982
-0.0346765
-0.555829
-5.08417
0
-0.791301
-1.60608
-1.37629
0
-0.93347
-7.56656
0
0
-8.96058
-0.0290256
-5.67273
-0.675512
-7.11119
-1.77538
-1.12895
-0.684864
-0.480913
-1.16396
-2.16365
-0.540019
-1.71124
0
-3.49542
0
0
-5.83535
0
0
-11.2909
-1.00511
-0.634137
0
-5.27769
0
-7.24735
-1.02183
-2.55184
-2.60912
0
0
-0.876015
0
0
-3.58598
-0.32376
0
-2.28655
0
-1.21393
-5.75086
-0.0341499
-9.24243
-0.871994
-1.59825
-2.36087
-5.69418
-0.505599
-3.98454
0
-0.984175
0
-3.33809
-0.741702
0
-1.07113
-3.20398
-1.12842
-2.76391
-3.67248
-3.84619
-2.83747
-1.36165
-4.15494
-0.863289
-3.84205
-0.714802
-1.45202
-0.833597
-0.773408
0
-8.48258
-0.968784
-2.28159
0
-5.22313
0
-12.3436
0
-4.8352
0
-0.860397
-0.0763765
-4.99036
-5.47962
0
-3.14024
0
0
-8.15828
-2.11694
-6.29051
-0.2622
-5.58461
0
-0.452014
-0.513886
-2.53237
0
-4.07939
0
-0.661114
-1.32838
-2.48971
-4.33161
-1.24978
-2.22205
-8.68905
-1.02168
-3.60191
-0.107601
-3.84943
-0.400804
0
0
-8.93717
-1.54226
-5.10428
-1.91529
-4.54474
-2.16155
0
-0.337589
-1.55354
-0.101002
-2.68502
-5.59341
-0.897068
-1.15572
-8.49395
-4.8157
0
-15.2368
-3.38288
-0.440492
-2.58716
-2.21454
-5.36572
-3.34009
0
0
0
-7.42351
-1.14412
0
-5.73707
-0.967366
-4.66775
0
-5.89229
-5.49222
-2.30456
0
-1.4015
-0.802596
-4.40463
-3.28784
-2.3166
-2.06548
-4.72507
-2.16962
-3.22191
-0.203603
-3.31956
0
-3.22738
0
-6.4775
-0.164047
-8.21673
0
-5.52639
0
-0.259329
-4.16202
-6.19165
-0.370213
-10.919
-4.66695
0
-0.44868
-3.24455
-0.0628067
-4.01626
-0.849444
-0.407877
-7.59996
0
0
-1.68451
0
-8.73204
0
-2.62914
-3.50398
-1.84141
0
-1.21293
-4.9116
-4.70588
-3.54989
-2.86964
-4.73552
-0.944735
-4.27522
0
-3.56463
-2.62563
-2.15782
0
-1.58148
-2.0329
0
-7.28824
0
-3.83199
-0.0158239
-2.74811
-1.64951
-0.818576
-3.23797
-2.58098
-0.387325
0
0
-8.43452
0
-5.05447
-4.39345
-1.0301
-2.60877
-3.22104
-0.797613
0
-3.57477
-5.68863
-3.33972
-2.02866
-1.31217
-0.138255
-3.40589
-8.30368
0
-1.22084
0
-2.28955
-2.60606
0
-2.07622
-4.46016
-0.44335
-2.62408
0
-3.29728
-2.456
-4.31996
-1.28879
-5.39261
0
-1.21954
-3.73631
0
-0.746233
-2.31897
-2.79658
0
-1.37189
0
-4.51633
0
-3.89882
-3.09853
-5.2779
-0.310914
-0.473234
-0.876567
-9.14939
-1.42806
0
-4.76504
0
-6.28118
-2.52771
-4.45149
-5.51095
-5.43689
-2.48163
-4.29657
-5.55938
-2.55902
-1.42377
0
0
-5.43394
-1.39532
0
0
-7.37443
-2.11192
-0.949273
-1.58142
-0.210163
0
0
-2.02005
-1.69021
-1.13472
0
0
0
-4.78015
-0.83356
0
-1.83708
-1.23374
-0.811485
-0.48787
0
-6.48407
0
-1.91613
0
-2.95402
-0.348054
-0.203799
-1.53168
-2.05892
0
-0.999588
-4.23385
0
-4.54224
-1.17323
-2.50019
-5.06417
-1.21248
-1.48003
-2.65448
-0.262457
-0.499905
-1.34097
-1.72485
-1.58201
-3.25524
-3.01376
-3.44681
-0.528184
-0.208541
-3.9784
-2.13072
-6.62607
-1.00017
-0.566818
0
0
-0.369828
0
-3.34898
0
-2.3121
-2.68699
-5.07313
0
0
0
-0.79144
-5.0619
0
-1.73033
-9.7171
0
-3.46075
0
-5.48699
-3.03039
-4.97915
-4.50504
-2.30005
-7.20524
-5.39743
-3.22138
-3.5847
-2.05623
-5.55675
0
-6.14146
-2.39289
-6.80677
-4.79997
0
-12.4261
0
-5.55878
0
-0.180748
-9.02999
-1.14886
-1.327
-3.03215
-1.51488
-2.05419
-0.972103
-6.53617
0
-8.07614
-0.855533
-4.48234
0
-1.10452
-5.79609
-2.94132
-0.133579
-0.812962
-1.71882
-3.7068
0
-1.52568
-1.34732
-5.14316
0
-0.824093
0
-3.65665
-2.37376
-3.61809
-4.33772
-2.79075
-1.88447
-4.39756
-1.52365
-1.9492
0
-8.48168
-0.475955
0
-1.93386
-4.36719
-1.89705
-3.22296
-0.0811565
-0.587783
-4.32777
-0.25297
-4.72664
-3.93528
-1.65929
-0.593173
-1.64759
-3.97012
-3.48457
-0.840184
-1.92146
-2.56996
-7.44018
0
-2.34255
0
-3.64281
-1.21157
-1.5324
-9.95127
-0.453949
-1.32868
-2.12371
-4.05457
-5.65539
0
0
0
-5.63847
-3.99133
-5.64782
-4.35342
-2.44246
-3.57933
0
-2.26153
-1.30707
0
-5.06261
-0.0537181
-3.03311
-0.747826
-9.96609
0
-5.08871
-5.83834
-4.11022
-1.58043
-8.00065
-2.77031
-7.30853
-0.578739
-3.931
-2.86056
-4.38361
0
-1.70711
-0.383654
-2.07448
0
-1.38335
-2.39023
0
-1.9904
-6.17591
-2.84408
-1.01858
-1.06389
-1.99228
-2.37669
0
-5.06376
-1.35121
-5.26002
0
-8.48678
-7.24558
-1.3126
0
-2.70711
-1.24349
0
-2.37982
0
-2.24127
-0.406564
-1.4312
0
-2.5512
-1.51448
-3.78046
0
-3.37067
-2.92635
-0.963252
0
-1.28795
-1.18869
-3.02496
-2.61907
-2.86821
0
-3.56574
-1.41911
-0.419515
-4.1138
-3.29319
-0.236756
-1.14998
0
-5.1011
-2.77206
-1.06218
0
0
-4.29013
-0.662809
0
-0.468893
-6.57436
-5.03232
-1.98386
-0.445268
-0.221808
-0.864833
-3.61082
-7.16235
-4.44079
-0.400941
-0.505979
-2.83027
0
-4.33947
0
-4.10426
0
-0.10319
0
-0.26025
-6.85555
0
0
0
0
0
0
0
0
0
0
0
0
0
0
0
0
0
0
0
0
0
0
0
0
0
0
0
0
0
0
0
0
0
0
0
0
0
0
0
0
0
0
0
0
0
0
0
0
0
0
0
0
0
0
0
0
0
0
0
0
0
0
0
0
0
-0.0632936
0
0
0
0
-0.344887
-0.0358268
0
0
0
0
0
0
-0.0266812
-0.204371
-0.181187
-0.564887
0
0
0
0
0
0
0
-0.0953188
0
-0.49077
0
-0.018218
-0.122815
0
0
-2.41817
0
-0.0310279
0
0
0
-0.0411687
-0.0498579
0
0
0
0
0
0
0
0
0
0
-0.168129
0
0
-0.0310983
0
0
0
0
-0.0403816
0
0
0
0
-3.15103
-0.0723702
0
-1.61335
0
0
-1.79434
-0.494229
-2.31875
-3.0106
-6.52775
-2.56615
-2.9229
0
-1.2511
-0.736534
0
-5.97923
0
0
0
0
0
-1.54142
-0.747987
-2.12553
0
-0.438021
-3.8288
-0.489117
-0.578052
-2.11911
-0.334536
-4.60757
-1.16386
-9.21859
0
-3.41376
0
0
0
-1.10932
-0.0899603
-2.15588
0
-5.93087
0
-1.09538
-0.242046
-4.07271
-1.04194
-3.85972
-4.96305
0
-6.95672
-2.12482
-3.40419
-0.283946
-2.88126
-1.18369
0
-1.79112
-0.694038
0
-4.38806
0
-0.990963
0
-5.36747
-4.44203
-1.24051
-4.46503
-5.04734
-2.88904
0
0
-1.24636
0
-5.29274
0
-6.00325
0
0
-6.23089
-0.789256
-5.51862
-2.62169
0
0
-2.11875
-6.40539
-5.77413
-1.39798
-6.11502
-1.13312
0
-4.24196
-5.49911
0
-2.41665
-1.00393
0
-1.65302
-3.97618
-1.01656
-9.53694
-1.3144
-1.93747
-7.35121
-1.90864
-3.66513
-2.78425
-3.84164
0
-0.295087
-2.69215
-0.630998
-1.36609
-0.0142835
-5.58698
0
0
0
-2.49752
-0.653625
-1.23069
0
0
-2.79385
-0.227307
-5.52999
-1.50709
-5.55217
-3.45956
0
-0.973886
-2.9282
-6.61592
0
-1.1506
-2.19092
-4.16608
-3.15525
-4.85797
-1.86634
-4.56129
-1.3707
-10.3784
-0.28506
-0.456501
0
-0.450236
-0.52007
0
-2.07597
0
-2.59334
0
-0.0844064
0
0
-1.23412
0
0
-5.63039
-1.66284
-6.70549
0
-7.81379
0
-0.296072
-2.92845
-3.7897
-0.812498
-1.8457
-1.35691
-7.83729
-4.61165
-8.43843
-4.30697
0
-5.66418
-1.99914
0
0
-4.24301
-0.565371
-7.06406
-2.40788
-2.20203
-2.47646
-2.21877
-3.78264
0
-1.34925
0
0
-2.55506
-2.40539
-1.03996
-3.69587
-1.08477
-2.75767
-0.512437
0
-2.03198
-1.13566
-1.39694
0
-0.739678
-1.21043
-2.55904
-3.22826
-3.41431
-3.14236
-2.0724
-2.60551
-2.33233
-2.36949
-0.412262
-0.544242
-4.29704
-1.69318
-2.31395
-0.0508559
-1.21709
-1.93339
-6.00732
0
-3.23979
-0.114528
-0.0339154
-1.47059
-6.2844
0
-3.85055
0
0
-4.73584
-0.536094
-3.26089
-3.50405
-3.46919
-2.03278
-0.763732
-0.497706
-1.36546
-5.68559
0
-9.60889
-2.01704
-1.36605
-1.21503
-2.55711
-0.657473
-0.771839
-0.617237
0
-3.75305
0
-2.62085
-0.829543
-4.94098
-1.02261
-7.62537
0
-0.617858
-1.6906
-8.70619
0
-4.72308
0
-2.09588
-2.39979
-4.95247
-1.09701
-4.45545
-0.899969
-0.70879
-0.759636
0
-2.83285
-1.68152
-5.26197
-3.82238
0
-5.07148
0
-1.94819
-5.85801
-0.916898
-4.80327
0
0
0
-1.44502
-2.89591
-0.269309
-1.66484
-0.145147
0
-0.117627
-8.13161
-3.3012
-7.21084
-4.62545
-9.01515
0
-1.45433
-3.73754
0
-1.8008
-5.51134
-5.8719
-0.778662
-0.856442
-2.25302
-0.177824
-1.49416
-2.23988
-0.297047
-2.12336
-7.04812
-0.522001
0
-0.856987
-7.4799
-2.55288
-0.34015
-9.53233
-0.761874
0
-4.18384
-3.17177
-2.21244
-1.57435
-7.79469
-0.495775
-3.5917
0
-1.52039
-4.14048
-0.278931
-0.514552
-0.890085
-1.18691
-3.7613
0
-4.62012
-1.61423
-1.21039
-5.18057
-0.969424
0
-0.774632
0
-12.2998
-0.572404
-0.257436
-7.38159
-1.18369
-1.40192
0
-7.43086
0
-5.95482
-0.659799
-1.8535
0
-2.27372
-2.96605
-1.05912
-2.42746
0
0
-0.707862
0
-4.41408
-4.28142
-1.79846
-3.03603
-2.4532
-3.40746
0
-6.37941
-0.982182
-1.20662
0
-3.50298
-1.02918
-0.465944
-0.670269
0
-5.40238
0
-6.5707
-5.56827
-1.44927
-4.92393
0
-1.81932
-8.42976
-3.03669
-5.0651
-0.906877
-2.56961
-4.09043
0
0
-8.35645
0
-4.51522
0
-4.06595
-4.96248
-1.16085
0
-4.348
-0.954163
-4.8294
-5.02387
0
-6.13972
-1.03682
-1.24084
-1.89862
-7.27478
0
-5.84714
0
-1.55186
0
0
-0.00919872
-1.12861
-1.7089
-3.84155
-2.40815
0
-4.66898
-2.27462
-1.61315
-1.93651
-6.24873
0
0
-5.87956
0
-0.000757471
-4.05309
0
0
0
-0.0693898
0
-4.97533
0
0
-0.604965
-3.30464
-0.787846
0
-4.61869
-5.96538
-2.42277
0
-3.89439
-0.557317
-6.4979
-0.411827
-1.63421
-0.459475
-0.412986
-4.43563
0
0
-4.6928
0
0
0
-2.38273
0
0
0
-1.56076
-5.82625
-1.94666
0
-4.44706
-1.76296
0
0
-0.197142
0
-0.940109
-2.63595
-0.591469
-0.884062
-6.18318
-1.76667
-0.250735
0
-1.88927
-1.12076
-1.27378
0
-0.154001
-0.981347
0
0
-4.61523
-0.688187
-4.94492
0
-4.00608
-0.882816
0
0
0
-6.34594
-3.90268
0
-2.02725
-3.92806
-4.70356
-3.25896
-5.6102
-1.66027
-1.15782
0
-3.1095
-1.76133
-2.26168
-1.97346
-5.09705
-0.00903133
-2.00009
0
-6.73684
0
-6.52768
-0.664318
-3.45459
-1.33117
-2.1256
0
0
-2.90622
-2.87519
-1.93264
0
-1.60776
0
-2.32234
-2.63597
-4.26558
-0.846545
-0.732672
-3.5228
0
-0.926376
0
-3.85376
0
0
-1.45934
0
-0.99628
-0.397824
-1.35021
-0.694291
0
-0.548505
0
-1.19269
-1.60806
-4.63145
-3.87776
0
0
-0.660959
-2.33033
0
-1.40374
0
-5.68695
0
-0.615375
-1.54303
-5.73941
-3.7115
-2.78042
-5.42799
0
-2.06431
-4.10696
-0.143992
-1.37243
-0.413292
-0.493137
-3.92602
-1.21849
0
0
-7.90146
0
-14.136
-2.6406
-5.07708
-2.09044
-5.95589
-7.60331
0
0
-5.30958
-0.246638
-5.88456
-0.0938635
0
-4.84853
-1.14765
-2.06198
-0.560789
-3.88358
-4.04002
-1.39057
-0.832299
-2.89031
-1.69684
-1.87088
-2.78811
-1.93152
-2.5041
0
-0.674703
-6.96314
0
-5.31975
0
-4.8508
0
-1.83456
-0.651785
0
-3.379
0
-4.48816
-0.600443
-1.93123
-0.618496
-2.92754
-0.508639
0
-1.92914
-2.90911
-1.2776
-2.42757
-0.815478
-3.41303
-0.887465
-0.309076
-5.47249
-0.4027
-3.23442
0
-1.567
-0.961176
-8.55324
0
-6.99365
0
-5.50341
-5.39007
-0.881801
-5.81394
-0.984115
-0.182136
-2.91721
-0.427454
-4.15444
-0.792852
-2.9306
-7.21225
-2.0415
-2.91449
0
-1.04324
-0.0104578
-3.89609
-0.0796903
0
-0.41658
-0.974497
0
-3.53605
-1.97309
-0.936698
0
0
-0.886313
-1.40941
-0.923976
0
0
0
-1.20372
-4.27147
-2.29127
0
-10.2681
-0.0363012
-5.44619
-1.01539
-5.20851
0
-4.74958
0
0
-5.39749
0
-0.5045
-0.180588
-3.89943
0
-3.32096
-3.79525
-2.64072
-4.93769
0
0
-2.29468
-7.68155
0
-3.04155
0
-7.61013
-0.065232
-4.48434
0
-0.423905
0
-1.50093
0
-2.53172
-2.68459
-0.38425
0
0
-3.1695
-0.285673
-3.84805
-2.32532
-7.26293
-3.3309
-7.40537
-4.20273
-2.99839
-0.855144
-4.63606
-0.894741
-6.05238
-1.96278
-2.50756
-2.15116
-1.38089
-6.22236
-4.33733
-5.50947
0
-1.05749
-1.53809
0
-2.43489
-4.90851
0
-0.203393
0
-8.11392
-1.97985
-6.04244
-1.6846
-0.453868
-5.30162
0
-1.76034
0
-2.15564
-1.86214
-0.249904
-4.73609
-2.10461
0
-2.95224
-1.13409
-0.607394
-0.466105
-3.68094
-0.746444
0
-2.49586
-0.201399
-5.52293
-1.16859
-12.1008
0
-2.53835
0
-2.92711
-0.701507
0
-4.5531
0
-5.32705
0
-4.30399
-7.93586
-1.23554
-4.68381
-0.39457
-4.01219
-1.32723
0
-1.15979
-3.698
-0.790209
-0.966471
-3.17726
-1.80295
-1.66794
-1.14538
0
0
-1.91132
-1.86187
-7.19839
0
-1.1977
-4.56136
-4.17942
-0.745892
-0.645631
0
-2.52405
-2.40883
-7.49725
-0.634002
0
-1.77427
-3.56876
-0.0381974
-3.50688
-3.31532
-5.43597
-4.04126
-3.21388
-0.928272
0
0
-0.366859
-0.898128
-2.67478
-0.788166
-5.05786
-3.22434
-5.10067
-0.753867
-3.74712
0
-3.78192
-4.35191
-0.64778
-0.739344
-8.30644
-3.89584
-3.35367
-2.52391
-0.0570799
0
-4.16776
-4.13481
-3.28752
-4.8264
0
-3.67793
-6.86098
-1.58627
-1.84872
-2.55813
-0.156977
-0.141366
-2.99027
0
-3.93022
-0.732652
-2.58797
-1.07836
0
0
0
0
0
0
0
0
0
0
0
0
0
0
0
0
0
0
0
0
0
0
0
0
0
0
0
0
0
0
0
0
0
0
0
0
0
0
0
0
0
0
0
0
0
0
0
0
0
0
0
0
0
0
0
0
0
0
0
0
0
0
0
0
-0.95809
-2.00217
0
-2.01428
-1.28084
0
-1.85697
-0.941014
-0.182959
-1.1852
-0.106351
-1.42809
-1.05809
-0.837499
-0.931897
-0.722865
-0.248887
-0.763577
0.0191208
-3.83406
-2.10833
0
-1.67768
-0.933595
-0.379816
-1.37386
0
-2.48421
-2.09375
-0.458365
-1.6611
-1.04343
-0.575558
-2.62449
0
-2.6197
-1.19067
0
-3.39257
-1.04844
-0.124042
-3.19523
-0.408839
-0.437532
-2.35382
-0.0116806
-0.894373
-0.875973
-1.05428
-2.58512
0
-1.40221
-0.543909
0
-2.65129
-0.0885664
-0.0565025
-5.11686
0
-0.799252
-2.77817
0
-0.323096
-3.64993
0
-8.45032
-2.51013
0
-3.60189
-6.01473
-2.63667
-3.28147
-2.91707
-3.3427
-0.67803
-2.1198
-6.74816
0
-6.43322
-5.0518
-0.509081
-3.45671
-2.27248
-6.06347
-3.55924
-3.47836
-1.86169
-2.26526
-1.14193
-2.81297
-2.47285
-3.45601
-4.41797
0
-5.10541
-0.0334071
-4.5197
-1.61623
0
0
-2.17017
0
-0.380607
-5.49367
-1.01681
-4.70863
0
-5.29659
0
-1.09243
-0.196608
-8.61856
-2.85306
-1.4918
-7.53362
0
-4.01065
-5.11856
-0.580481
-1.92173
-1.53787
0
-2.25896
0
-4.60917
0
-5.28098
-2.47635
-2.57706
0
-6.07391
0
-1.37335
-0.300441
-3.01149
-3.36337
0
-3.15673
-6.25977
-1.15554
-7.35629
-0.591492
-5.86181
-0.944573
-1.37167
0
-7.11225
0
0
0
-0.338689
-1.97819
-2.61257
0
0
-2.49902
-2.22506
0
-3.73751
0
0
0
-1.01756
-2.67014
-0.348272
-5.82264
0
-5.77197
-3.08287
-0.891966
-1.98303
-10.7843
0
-5.21827
-1.83128
-2.81997
-1.82384
-5.04162
-3.10821
-2.05305
-2.43647
-1.13811
-5.60492
-2.03223
-3.49704
-5.75033
-5.93576
-2.33762
-3.12759
-5.82863
-2.49803
-5.17518
-8.76443
-0.369754
0
-0.261621
-1.34989
-2.19498
-9.49049
-5.90459
0
-1.78643
-3.46806
-5.95907
-1.92255
0
-0.441905
0
-0.961231
-2.43973
-2.56544
0
-1.29689
-2.8953
-0.127643
-0.146278
-9.58962
0
-0.653164
-1.14994
0
0
-7.27623
0
-4.09852
-4.204
0
-5.54543
0
-3.2675
-0.595245
-0.380276
-2.05742
-2.89881
-4.82015
-3.10763
-2.97745
-1.48132
-3.70455
-1.5673
0
-1.11245
-0.544454
-1.47976
-3.67302
0
-2.3764
-4.74799
0
-3.10574
-0.325644
0
-0.546377
-4.04164
-0.407395
-2.96935
-1.18928
-2.23912
-2.84246
-1.13608
-7.72265
-0.344674
0
0
-0.398825
0
0
-1.12222
-2.47079
-4.02732
-3.60436
-1.86293
-2.8852
-0.298973
-1.23517
0
-7.34817
0
-1.74217
-2.18853
0
-1.48272
-0.611221
-9.08145
-2.04715
0
0
-1.14648
-0.00469948
-2.83232
-0.529582
-1.52992
0
0
-0.130661
-5.72731
-1.31718
0
-3.53481
-2.72491
-2.69797
-1.68384
-1.32506
-2.20711
-3.41135
0
-0.893166
-2.71905
-2.22402
-2.14093
-0.673884
-2.65378
-1.64606
-0.696188
-0.0575712
-5.5321
0
-8.36919
-0.594791
-1.97435
-3.6216
0
0
0
-3.45338
-0.888578
0
-2.28998
-1.263
0
-5.21547
0
-3.11864
0
-3.10852
0
-5.22482
0
-0.885082
-4.60093
-5.46011
0
-5.02794
-1.71739
-1.37833
-0.394716
0
0
-0.0603592
-6.74103
-0.298256
-0.483065
-1.35303
-1.56611
-1.14733
-4.89602
-8.91188
-0.776237
-8.70463
-2.12859
-1.4749
-5.11021
0
-1.9451
-5.81784
-1.31668
-1.10589
0
-0.939861
-0.207774
0
-4.52322
-0.918796
0
-4.52041
-2.44772
-0.134193
-1.75424
0
-6.2795
-0.331335
-5.0978
0
-3.65221
-1.77091
-4.95973
-1.8807
-0.254662
-5.83943
0
-3.5936
-2.50222
-5.88444
-2.94471
0
-5.7591
0
-1.16441
-2.55492
0
0
0
-0.502764
-4.16003
-0.365141
-3.97369
-2.06973
-4.0901
-5.26606
-0.93621
0
-2.21917
-0.158963
-4.89684
0
0
0
-1.02727
-1.47004
-0.701551
-2.58379
-0.538723
-4.71787
-3.66849
-6.26628
0
-3.84221
0
0
-0.745874
0
-1.05645
-4.99215
0
-0.61158
-2.49137
0
-1.71965
-2.49248
-1.51523
-3.63371
-1.83343
-1.52976
-2.70918
-1.26884
0
-0.0474891
-5.8796
-1.23456
-2.18053
-3.32384
-0.952648
0
-0.299146
-1.4424
-2.66189
-0.792741
-1.82998
-1.0279
-1.93862
0
-8.63376
-1.15749
-0.267527
-3.13733
0
-0.412369
-2.61713
-0.0533487
-1.21399
-2.48762
-2.12883
-4.67628
-1.24018
-1.12077
-0.572405
-2.02458
-4.0229
0
-4.67193
0
0
0
-1.85596
-0.318431
-9.05518
-0.577645
-5.19368
-6.56253
-0.0330699
-4.27132
-1.88257
0
0
-0.594253
-3.33113
-2.16861
-1.4807
-1.68921
-3.44011
-1.26409
-2.1061
-1.24549
0
0
-2.24631
0
-1.64609
-6.48828
-0.695457
0
-3.27035
-1.94701
-1.1378
-0.766862
-4.69985
-6.34866
-7.50574
0
0
-0.492057
-3.2166
-0.236011
0
-0.217949
-3.48748
-0.172475
0
-6.49039
-0.437177
-5.15771
0
0
-3.21702
0
-7.57307
-0.0727467
-2.71051
-4.25903
-2.62747
-0.975237
-5.99972
-2.2454
-8.38253
-0.13217
-0.00861341
-2.33565
-4.47248
-1.68219
0
-6.16495
-1.53515
0
-2.60711
-0.497487
-0.958845
-1.60736
-3.16109
0
-0.863969
0
-0.803266
0
-7.23349
-1.34503
-6.88884
-2.60413
-3.03755
-0.572753
-3.71765
-2.4127
0
-4.22708
-0.0120987
-1.75403
-0.587852
-0.617772
0
-1.32813
-4.75376
-3.44929
-1.81942
-6.1612
-1.0807
-1.51502
-1.8848
-1.96706
-1.87335
-0.0855046
-3.23622
0
0
-3.86515
-1.33786
-3.7702
-3.95036
-1.7701
-1.12828
0
-0.717415
-3.73819
0
0
-1.94789
-3.12019
-0.015517
0
-0.262271
-2.06947
-8.57857
-2.71653
-1.08309
0
0
-4.26233
-2.40774
-4.15229
-0.951314
-0.121689
0
-0.0750123
-1.47158
-0.832104
-7.78301
-2.15016
-4.6736
-0.0790361
-2.3644
-3.70697
-0.292908
-1.14975
-5.96567
-0.72703
-3.23178
-6.24906
-1.97177
-2.19041
-1.79449
-1.87209
-0.518108
0
-1.82675
0
-3.37016
0
0
-0.507692
-0.908654
-6.47646
0
0
-7.70293
0
-0.931817
-2.90182
-0.57878
-4.50204
-0.423577
-10.4683
-4.02579
-8.87317
0
-6.16456
-1.18696
-1.10736
-4.40332
-3.86547
0
0
0
0
0
0
0
-1.67459
0
-4.93644
-0.216665
-0.318883
-2.81175
0
0
-4.96678
0
-8.03273
-0.671344
-6.31707
0
-1.52513
-0.62814
-5.29688
0
0
-5.14405
-3.71644
-0.420418
-0.448973
-7.19573
-2.76595
-2.93525
0
-2.13571
-0.846496
-1.2404
-4.28026
-0.812254
-5.71105
0
-7.30176
-0.187582
0
-3.66612
-0.856146
-10.5157
-1.35702
0
-1.70822
0
-2.88297
-5.0521
-3.06084
-2.10959
-1.34556
-3.57677
-2.04432
0
-2.7499
-1.78533
-5.0831
-8.42505
-1.18369
-1.09526
0
-0.303631
0
-0.820928
-6.50851
0
-0.0524968
-1.60529
0
-3.06359
0
-2.55163
-2.08701
-4.42046
0
0
-2.76368
-2.49182
-4.91002
-5.60287
0
-6.45352
-3.3948
-1.59708
-1.69644
-5.52526
-3.99514
-2.27579
-2.32364
-2.89732
-3.30385
-0.189963
-2.60889
0
-7.0021
0
-3.07986
-4.00572
-5.33312
-1.3243
-3.87279
-0.303184
0
-2.80544
-0.319465
-7.96667
0
-4.94743
-9.46804
0
0
0
-5.78008
0
-5.71042
-2.27877
-6.58572
0
0
-7.27917
0
-6.2848
-4.13332
0
-1.78513
-3.06036
-2.00746
0
0
-4.65925
0
-6.71375
-1.10327
0
-3.23122
-4.43387
0
-3.14359
-2.57939
-2.88766
-0.413605
-5.52299
-1.24826
-2.5598
-4.93952
0
-0.962382
-5.51362
0
-0.583173
0
0
0
-2.56682
-1.46562
-4.00895
0
0
-0.312516
-8.83925
-0.635378
0
-0.234948
-3.39213
-2.23927
-2.96877
-2.04015
-3.3181
-1.94072
-0.27947
-2.41397
-1.9339
-8.15404
0
-1.26208
-2.20816
-0.987734
0
-1.81377
-3.26959
-3.73334
0
-1.39667
-5.92478
-4.79162
0
-1.54219
-1.51793
-0.605041
-2.27317
-0.0150121
-2.11795
-6.47329
-2.05242
-1.91844
-1.26605
-1.53456
-1.97234
-4.35119
-3.04722
-4.61229
-2.60723
0
-3.92362
-2.31482
-7.13951
-1.25934
0
-0.115607
-0.389332
-2.69658
-1.33099
-3.22833
-4.50865
-2.83529
-1.67843
-2.56327
-1.06659
-0.935694
-1.93633
-1.49291
-3.89504
-2.01083
-1.95563
-7.40067
-1.13968
0
-4.61529
0
-0.110764
0
-3.14379
-5.20903
0
-3.07881
0
-3.0323
-5.95694
-6.55322
-0.107001
-1.33747
-4.11431
0
-1.32465
0
-1.58831
-1.69824
-2.7268
-0.724735
-3.15697
-1.10039
-0.557275
-2.23484
-0.274588
-3.24442
0
-1.62336
0
-1.57261
-3.16832
-1.73665