<?xml version="1.0"?>
<VTKFile type="RectilinearGrid">
<RectilinearGrid WholeExtent="0 32 0 32 0 32" Origin="0 0 0" Spacing="1 1 1">
<Piece Extent="0 32 0 32 0 32">
<PointData>
</PointData>
<Coordinates>
<DataArray type="Float32" format="ascii">
0 0.524874 1.04975 1.57462 2.0995 2.62437 3.14924 3.67412 4.19899 4.72386 5.24874 5.77361 6.29849 6.82336 7.34823 7.87311 8.39798 8.92285 9.44773 9.9726 10.4975 11.0224 11.5472 12.0721 12.597 13.1218 13.6467 14.1716 14.6965 15.2213 15.7462 16.2711 16.796 
</DataArray>
<DataArray type="Float32" format="ascii">
-5.03879 -3.62163 -2.20447 -0.787311 0.629849 2.04701 3.46417 4.88133 6.29849 7.71565 9.1328 10.55 11.9671 13.3843 14.8014 16.2186 17.6358 19.0529 20.4701 21.8872 23.3044 24.7216 26.1387 27.5559 28.973 30.3902 31.8074 33.2245 34.6417 36.0588 37.476 38.8931 40.3103 
</DataArray>
<DataArray type="Float32" format="ascii">
0 0.524874 1.04975 1.57462 2.0995 2.62437 3.14924 3.67412 4.19899 4.72386 5.24874 5.77361 6.29849 6.82336 7.34823 7.87311 8.39798 8.92285 9.44773 9.9726 10.4975 11.0224 11.5472 12.0721 12.597 13.1218 13.6467 14.1716 14.6965 15.2213 15.7462 16.2711 16.796 
</DataArray>
</Coordinates>
<CellData>
<DataArray type="Float32" Name="Scalar" format="ascii">
0
0
0
0
0
0
0
0
0
0
0
0
0
0
0
0
0
0
0
0
0
0
0
0
0
0
0
0
0
0
0
0
0
0
0
0
0
0
0
0
0
0
0
0
0
0
0
0
0
0
0
0
0
0
0
0
0
0
0
0
0
0
0
0
-0.0333475
-0.340304
0
0.494696
-0.698162
0
0.0301766
-0.508374
0.0482158
-0.302024
0
0.245564
-0.668756
0
-0.169856
-0.590617
0.545554
-0.883741
0
-0.606021
-0.112059
0
-0.60463
-0.303789
0.183734
-0.271678
0
-0.339521
-1.59887
0.0660359
-0.0704829
-0.55974
-0.437768
-0.587317
0
-0.735544
-0.399324
0
-1.57763
0
0
-0.131325
0
-1.09583
-1.12864
0
-0.512374
-0.756101
-0.478568
-0.165597
0
-1.16161
-0.506312
0
-1.5223
-0.249603
-0.467133
-1.01951
0
-0.085429
-1.23772
0
-0.719583
-1.69093
-4.12082
0
-10.7871
-2.95899
-2.40657
-2.89653
-5.42439
-1.51147
-2.31365
0
-4.3546
-1.45419
-3.20994
0
-5.72618
-2.39031
-1.65764
-5.00637
0
0
-0.47754
-0.264128
-1.15411
0
-0.376477
-5.02943
-0.883304
-3.60822
0
0
-2.41612
0
-6.93113
0
-6.73292
0
-8.39412
0
-1.78137
-1.12166
-5.77232
0
0
-2.85069
-4.59656
-0.275873
-6.56148
0
-1.71159
-1.32117
-3.33976
-0.173036
-2.17972
-3.49975
0
-5.33334
0
-3.5152
-1.15498
-0.327609
0
0
-4.11686
0
0
-0.838297
-3.73122
0
0
-7.11856
0
-7.07075
-1.46946
0
-6.06593
-1.2599
0
0
0
-2.48095
-0.501484
-0.36762
-2.96901
-5.4813
-4.12533
-1.77077
-0.713807
-0.389197
-5.52803
-1.84035
-3.97565
0
-5.94236
0
-4.25147
-0.103569
-0.784337
-0.891313
-2.57547
-0.596848
0
-4.92727
-0.712407
-4.85784
0
-8.62274
0
-2.68389
-5.52267
0
-1.46687
-2.63928
-2.62105
-2.03027
-1.19986
0
-0.139345
-7.41761
0
0
-1.87316
0
-1.30088
-0.44842
-7.54512
-5.32276
-2.15343
0
0
-1.92958
0
-0.644285
-2.82428
-0.82173
-1.83114
-1.13629
-2.19927
-0.513816
0
-0.428793
0
-0.0201401
-1.7004
-1.51336
0
0
-3.94917
-3.69657
-2.1969
0
-1.88644
-4.30211
-0.881478
-1.22551
-6.76786
-2.28974
0
-6.33659
-2.70244
-0.415646
-2.67512
-2.05345
0
-5.88322
-1.13519
-1.88962
0
-0.0432565
-4.65176
-2.44601
-2.46998
-0.0841766
-3.7877
-0.0176825
-0.178535
-0.844583
-1.31131
-5.30324
-3.93948
-1.80726
0
0
-1.19253
-2.63848
-1.04649
-1.03008
-5.39978
-4.93731
0
-0.292305
-3.86766
0
-0.0456949
-0.133875
-1.12022
-2.20453
-0.818181
-0.858984
-4.49945
-3.03796
-4.25286
0
-4.77496
0
-0.31028
0
-4.95059
-4.85873
-4.56934
-0.660268
-3.8471
-0.0769196
-4.42642
0
-4.71296
-0.817666
0
-4.30621
0
-0.542222
-0.0964044
-5.14104
0
-0.963349
-6.03561
-1.64664
-2.4955
0
0
-1.90942
-4.52166
-0.145808
-0.113221
0
0
0
-0.610137
-4.42311
-1.17874
-3.72287
0
-2.93381
0
-0.181828
0
0
0
0
-1.853
0
-1.34058
-6.0604
-0.373791
0
-4.97124
-2.74058
0
-8.90328
-2.29705
-2.7915
-0.763262
-4.1535
-2.0438
0
-6.57684
-3.19918
0
-6.29977
-0.110151
-2.94785
-0.0340868
-2.78906
-0.80919
0
-0.738431
-2.15334
0
-3.45138
-7.47869
0
-1.52041
0
-0.275365
0
-6.05504
-0.582264
0
-2.21669
-4.55212
-1.87954
-5.7474
0
-0.930519
0
0
-0.406636
-5.41961
-3.03
-2.27608
-8.00478
-1.25223
-2.63963
0
-1.8905
-4.90937
-0.487881
-7.69251
0
-7.35799
0
-4.29742
-2.06587
-0.71419
-2.70925
-0.253583
-2.4578
-8.16336
-4.2826
0
-4.71371
0
0
-1.04396
0
-3.00052
-7.87832
-0.46119
-0.326676
-0.559525
-0.820479
-1.86148
-0.407148
-6.37882
0
-9.52979
-3.53124
-5.01322
0
-1.68662
0
-2.91089
-1.92757
-5.01522
-0.816557
-2.2579
-2.00955
-4.99075
0
-4.35728
-1.2705
-1.34786
-2.74849
-3.12944
-0.846746
-1.63178
0
-3.73559
-1.33942
0
-0.509575
-4.33728
-2.14596
-4.89334
-3.35871
0
-2.1018
-1.61022
-2.21665
-1.00967
-0.752538
-0.789298
-2.48882
0
-4.02987
-2.58592
-2.60939
-4.83383
-3.54882
0
-0.506147
-5.59281
-0.825736
-4.53672
-1.68718
-2.9384
-5.04491
-7.01456
-0.131145
-5.56284
-2.96385
-0.218422
0
0
0
-8.01204
0
-10.2532
-1.46637
-4.1442
-5.1525
-4.43638
-0.524826
-4.04854
0
0
0
-7.58295
0
-1.72488
-1.34322
-4.1878
-1.17489
-3.67192
-1.44821
0
-5.21624
-4.03434
-3.04927
-5.00109
0
-1.46127
0
-5.19685
-0.828185
-7.28971
-1.56673
-1.80727
-6.69546
-7.53968
-1.44342
0
-3.07414
-2.21933
-0.727042
-0.496659
0
-6.11218
-0.709069
-0.699203
-1.62083
-3.64818
-2.24198
-6.5909
-2.70562
-5.40471
-1.98222
-6.55439
-2.75554
-4.41438
-2.23909
-0.280307
-1.11255
0
-2.2043
-0.988762
0
-3.66361
-0.612406
-1.59167
-1.10052
-1.50121
0
-5.46979
-1.37047
-3.43859
0
-0.931514
-7.14206
0
-5.14422
-1.36416
0
-1.37755
-0.27487
-3.69993
-5.21426
-1.64446
-0.291526
-0.657471
-0.688732
-0.299918
-5.31732
0
-1.20571
-0.216421
0
-5.11645
-3.22953
-13.6111
-1.652
-5.79918
-0.442911
-4.12005
-1.39426
-1.88083
0
-3.77484
-2.92326
-4.79027
-2.34867
0
-0.935193
-3.62619
-4.44328
-6.15533
-4.41365
0
0
0
-1.06314
-3.25561
-3.44553
-4.53908
-1.52253
-7.61256
-0.320019
-3.93039
-3.2925
-0.944401
-3.58586
-2.63006
-0.120076
-7.13304
0
-6.2726
-0.158987
-1.52239
-0.566919
-5.94875
0
0
-6.25828
-0.759015
-5.41787
-3.65295
-2.54891
0
0
-0.0716547
-2.06501
-3.42671
-2.49211
-0.591514
-1.43002
-2.2605
0
-2.33975
-0.175196
-2.98709
-0.801285
-1.4643
-2.03076
-1.76459
-2.81411
-4.23258
-0.939012
-0.984019
0
-4.43047
0
0
0
-1.42146
0
-0.0289799
0
0
0
0
-3.43973
-1.40356
-0.0487802
0
0
0
-2.74899
0
0
-7.13919
0
-0.222458
-1.92002
-3.64218
0
-3.14965
0
-0.624259
-4.96652
-4.69724
-4.54389
0
-6.1327
-0.179802
-6.25805
-0.503618
-6.60181
0
0
-3.97322
-0.973363
-2.47118
-2.35501
-4.67989
-0.584712
-2.24879
0
-6.84964
0
-3.65148
-0.0408125
-3.84309
-0.0319432
-4.71523
-1.03777
-3.37836
-2.62117
-1.28294
-0.0592425
-1.47137
-1.2914
0
-3.09442
0
0
-3.16119
-3.53728
0
-4.05398
-0.220273
-0.310357
-1.83718
-2.25557
-5.38556
-1.50777
-4.11764
-2.47018
-9.42719
-0.414005
-9.12258
-0.130585
-3.66218
-1.85651
0
-3.13794
-1.85742
-0.442363
0
0
-2.0186
-2.68331
0
0
0
-0.69818
-0.492504
-6.80527
-2.67843
-6.04037
-1.28366
-2.043
0
-2.83947
0
-0.674337
0
-6.00516
-0.197769
-6.585
0
-8.15622
-2.70352
-6.42359
-4.08302
-2.42921
0
-5.74543
0
-0.217925
-1.82072
-4.05631
0
-4.41767
0
-5.40023
-3.86468
-3.37992
-6.1428
-2.61832
-5.21841
-1.41074
-2.00328
-1.21367
-0.0845854
-1.49755
-2.60238
0
-4.57298
-0.944968
-2.75121
-2.91599
0
-0.782125
-0.522492
-0.930043
0
-4.50577
0
-4.57453
-0.715728
-8.23412
0
-1.59158
-0.0336232
-3.7311
-1.81695
-0.138589
0
-1.28731
-6.79839
0
0
-1.5597
-0.202945
-1.38419
-0.984765
-2.24819
-1.24035
0
-2.41254
0
-0.587999
-4.06271
-1.9734
-3.59045
-1.71253
-3.30759
-1.08557
-4.70246
0
-3.53189
0
-2.64079
-1.04541
-0.628047
0
-4.90381
-6.7409
-6.00096
-4.36161
-4.43567
-2.27111
-1.00465
-2.33121
-1.01755
-0.0116737
-1.01637
-1.71625
-6.43126
-5.86595
-3.01381
-3.24604
-1.88088
0
-7.21605
-1.24884
-6.47289
-0.217836
0
-10.0555
-0.022634
-7.70815
0
-5.10526
-5.29968
-2.65259
-6.90667
-1.70973
-5.53253
-0.414655
-0.705398
-0.85483
-2.06974
-7.15296
-4.27231
-4.42037
-4.36981
0
-6.98724
0
-6.09592
-0.692719
0
-4.50013
-4.08305
-0.868521
-2.68457
-2.89508
-0.523474
0
0
-4.46026
-1.16525
-0.381644
-2.55153
0
-11.5185
0
0
-4.27874
0
-7.65286
-0.353719
-6.90088
0
-0.431115
0
0
-2.18877
0
-4.66519
0
-0.191229
-0.102689
-4.26455
0
-0.546961
-1.07094
0
-2.27474
-1.35744
-1.31029
-0.810225
-1.53831
-1.17376
-3.03839
-5.84805
0
-2.62399
-1.19284
-1.4877
-3.51828
0
-2.84299
0
-1.04142
0
-3.47839
-0.791817
0
-0.902517
0
-6.84323
-1.85883
-5.57863
-0.946504
-0.14612
-3.37139
-2.06038
0
0
-5.6321
0
-7.37842
0
-1.39077
-2.765
0
-1.13242
0
-1.49101
-0.64327
-1.06338
0
-3.33338
-2.23466
-0.732162
-2.87358
-0.0656402
-1.89249
-2.96077
-3.41018
-9.61024
0
-8.9319
-1.66636
-5.9422
-0.448036
-0.703531
-2.55706
0
-0.809405
-4.97849
0
0
-1.79604
-4.28148
0
0
0
0
0
0
0
0
0
0
0
0
0
0
0
0
0
0
0
0
0
0
0
0
0
0
0
0
0
0
0
0
0
0
0
0
0
0
0
0
0
0
0
0
0
0
0
0
0
0
0
0
0
0
0
0
0
0
0
0
0
0
0
0
0.204384
-0.662803
0
-1.34577
-0.694824
0
-1.23185
-0.541985
-0.444149
-1.46379
0
-1.19607
-3.16591
0
-2.05912
-0.837505
-0.321652
-0.832091
-0.150253
-2.34009
-1.76863
0
-1.26425
-0.940193
-0.585559
-1.0045
-0.2915
-1.46468
-1.88135
0
-1.20358
-1.26022
-0.821049
-1.89557
0
-0.0433577
-3.85022
0.0627011
-2.39349
-3.19067
-1.94677
-4.23177
0
-2.69841
-0.742893
0
-1.79266
-0.41642
-0.454778
-4.21197
-0.017016
-0.392484
-2.08453
0
0
-0.569568
-0.936989
-0.699274
-0.214316
-1.9526
0
0
-1.40414
-0.626096
-5.55887
-0.584776
0
-3.971
-2.96731
-2.3888
-4.19855
-2.51776
0
-9.5798
0
-2.82471
-3.21989
-4.54739
0
-2.6483
-5.96126
-0.117398
-1.37519
-2.81464
-3.89697
0
-4.59901
-4.88223
-1.53992
-0.0573496
0
-0.121367
-2.27192
-7.61623
-3.37105
-3.05074
0
-0.393374
-1.03408
0
-0.13208
0
-9.59731
0
-6.34262
-1.26302
-5.51713
-0.0555846
-3.67494
-0.0418496
-7.43375
-3.41002
-2.19804
-3.4551
-0.528271
-6.72448
-1.68942
-5.72597
-2.91518
-1.44225
-0.0925834
-2.00102
-1.27263
-3.14137
-6.19956
-2.71143
-5.03583
-2.43557
-7.98854
-3.41162
-1.97749
-5.52042
-3.33295
-0.066739
-1.01269
-1.79204
0
-0.0362446
-4.38246
0
-3.85421
-1.24107
-5.4757
0
-1.30535
-9.39826
0
-0.289708
-4.55424
-0.605154
-7.58247
0
-0.143195
-3.89737
0
0
0
0
-2.55986
0
-6.41732
-3.11006
0
-3.8888
-0.352782
-0.266632
-1.77987
-6.04409
0
-5.99492
-1.00286
0
-0.249532
-2.11455
-1.67403
-2.7161
-1.64453
0
-7.15793
-2.60764
-7.34787
0
-12.1984
-2.08537
-7.5464
-2.48891
-4.47298
-8.10787
-2.31557
0
-1.96749
-2.12828
-0.421549
-2.58238
0
-2.77615
-4.92645
0
-7.62147
-1.6271
-3.82278
-1.00711
-5.50603
0
-1.79285
-0.176814
-2.64092
-5.31833
-0.775606
-5.46795
-1.07858
-3.24711
-4.61298
0
-3.78369
0
-9.94331
-5.14484
-0.463492
0
-3.84925
0
0
-5.20193
-0.4292
-4.49496
0
-5.87513
0
0
-2.489
-6.41418
0
0
-4.39721
-1.91787
-2.23268
-7.35456
-5.32995
-3.1648
-3.76862
-5.23204
-0.481189
-6.68919
-2.91154
-6.34551
-4.11065
-0.0906076
-3.32518
-3.46321
0
-2.0232
-5.57749
-1.44611
-4.06374
-9.6278
0
-4.33816
-0.485325
-2.80082
0
-5.06552
0
0
-3.89798
0
-0.26719
-0.514098
-10.5166
-1.54369
-11.6257
0
-2.94129
0
0
-0.297494
-1.26305
0
0
-1.33677
-6.17931
-0.465096
-7.26591
-0.431338
-5.70781
-0.980307
0
-3.92976
-6.57862
0
-3.67658
-1.31063
-3.85696
0
-2.17143
-1.89126
-2.84963
-8.32938
-4.40759
-0.0370242
-8.10573
-0.20962
0
-8.56878
0
-4.94779
-3.11223
-6.92458
0
-2.29021
-1.34769
-0.760341
-1.10274
-6.21269
-0.852495
-3.05754
-7.64145
-0.515706
-2.46366
0
-2.3646
-3.15785
-0.340228
-1.85171
-0.11535
-1.6187
-7.49907
0
0
-7.02439
0
-1.04139
-0.799247
-2.25961
-0.462802
-0.869946
-4.42469
-0.401597
-0.19916
-0.0118484
0
-1.46816
0
-6.18127
-4.13341
-6.60804
-1.06396
-2.02391
0
-0.733079
-6.18813
-1.1725
-2.21129
0
-1.13855
-1.33617
0
-4.88216
0
-5.139
0
-4.62606
-1.70247
-0.70899
-0.144701
-4.78737
-8.64366
-1.85613
-0.283635
-3.64869
-0.0389715
0
0
-4.38009
-6.00447
0
-6.55896
-3.98753
-5.42539
-2.22739
0
-1.16187
-6.45891
-2.46731
0
-0.242898
-4.89399
-0.842805
-8.29069
0
0
-2.72441
-4.34663
-0.592348
-3.57199
-0.214561
0
0
0
0
-1.03751
-4.43156
-0.373951
-4.81842
0
-7.2397
0
-3.60512
-8.72635
-0.457673
-2.37887
-2.0008
-4.94759
0
0
-5.551
-2.25944
-3.06878
-4.91332
-4.53115
-1.89517
-0.586429
-5.65381
-2.07143
-2.71042
-2.06635
-0.274275
-5.40583
0
-9.69889
0
-7.5655
-1.38103
-7.81697
-1.56392
-10.5777
-1.24038
-5.9413
0
-4.91218
-0.923925
-1.76938
-1.19304
-1.3928
0
-3.55265
-2.47138
0
-1.10712
-1.51498
-1.87322
-0.781441
0
-0.829657
0
-4.13987
0
-6.08195
0
-0.112914
0
-0.840425
0
-0.362689
-0.0342971
-0.387417
0
0
-1.10241
-4.79803
-0.958305
-1.21721
-1.56139
-1.30193
-3.92826
-4.27387
-2.27
0
-3.46421
0
0
0
0
0
-4.12303
-0.703255
-1.82049
0
-1.24846
-0.0646697
-2.43278
-4.78396
0
0
-10.7567
-2.03644
-1.58153
-4.32735
-3.11733
-1.15665
-0.440069
0
-1.4152
-1.44616
-2.88647
-1.3723
-0.696268
-4.23067
-0.068355
-2.45796
-0.676144
-1.44791
0
-7.14185
-1.36273
-5.80313
-3.06498
-2.35085
-4.23779
-0.0915183
-1.41099
-3.93355
-0.936642
-1.18671
0
0
-3.99729
0
-2.58048
-7.84843
-3.73638
-4.52688
-5.84285
-3.49774
-4.22019
-1.26169
-4.55542
-1.34001
-0.930973
-0.722825
0
-0.851392
-2.38223
0
-6.24089
0
-4.48342
-2.51681
-2.23621
-5.27406
-3.0209
0
-1.2179
0
0
-8.72047
0
0
-2.88301
-5.12358
0
0
0
0
-1.70503
-2.21044
-3.92572
-0.388005
0
-3.27662
0
-7.84671
0
-2.3463
-0.712463
0
-5.33268
0
0
-2.3778
-1.49871
-0.2911
-1.11239
0
-2.34769
0
0
-4.97813
-0.502643
-1.19635
-6.63977
-2.43903
-4.00093
-3.33436
-4.29439
-2.28063
-2.58567
-2.88352
0
-1.05129
-4.81222
-5.41632
0
-3.92551
0
0
-4.35624
0
-1.32659
-2.36541
-3.74352
-1.58295
-5.13256
-4.69798
-2.55305
-0.563208
0
0
-0.0205929
-0.865389
-0.457872
-0.178088
-4.33564
-0.155242
-3.8287
-3.29442
-3.79328
-2.28432
-4.67334
0
0
-6.42939
0
-1.6663
-3.53963
-0.675485
-4.73905
-1.26706
-0.12249
-2.15985
-10.8792
-0.9071
-2.02631
-3.81927
-1.42692
0
-2.45508
-4.21369
-0.256501
-1.77849
-5.21925
0
0
-3.74757
-0.468283
0
-4.45795
0
-2.88321
0
-2.55328
-6.49759
-1.27666
-4.50782
-2.96023
0
-3.23613
-3.58164
-8.47137
-1.76528
0
-0.606691
-1.07314
-0.417875
-0.12289
-3.55992
0
-2.79263
-2.72222
-2.51866
-2.5275
-1.279
-1.71859
-1.68851
-2.07692
-0.723402
0
-6.90078
0
-1.00009
0
-1.50411
-8.8488
-0.59928
-4.70203
-0.5108
-1.49565
-1.2177
-4.77327
-0.87394
0
-0.889411
-4.50035
0
-1.591
-2.24979
-3.2264
-1.3069
-0.299961
-6.02148
-2.5028
-7.24135
-1.1441
-2.74441
-2.55028
-6.20782
0
-6.6161
-1.82946
-1.22106
0
-3.29347
-2.91092
-2.18512
0
-0.0603496
0
-7.98619
-0.32204
0
-2.8583
-0.335394
-0.291985
0
0
-1.81266
-1.00211
-4.11336
-0.107098
-0.250954
0
-3.36165
-1.75068
-0.729341
-6.28172
0
-1.48208
-3.0309
-3.94104
-0.881538
0
-3.89192
0
-2.99285
0
-4.04905
-3.16782
-4.12762
-2.84169
-2.36543
-3.55315
-1.39278
0
-0.805107
-7.11865
-0.852632
-4.17212
-0.47431
0
-0.363301
0
-0.634226
0
0
0
0
-1.82895
-0.664916
0
-1.00558
-7.7079
0
0
-3.16162
-2.25122
-5.38206
0
-3.15692
-2.71428
0
0
-3.05125
0
-3.64299
-3.45232
-2.09911
0
-2.81939
0
-5.72783
-1.04233
-3.31398
0
0
0
-6.09848
-2.31967
-9.1098
-0.0535283
-1.78213
-2.72126
0
0
-0.674751
-1.58057
-4.61738
0
-0.577939
-2.27073
0
-0.392975
0
0
0
0
-3.25199
-1.18223
0
0
-2.13153
-2.32012
-4.38534
-2.80437
0
-2.95402
0
-3.67034
0
-3.8435
0
-0.544604
-0.733756
0
-3.33575
-5.76282
-0.738449
-0.849713
0
0
-3.78053
0
-0.774336
-0.509613
-4.57546
-2.51481
-9.27656
-4.32448
-4.13265
-7.25711
-1.5008
-4.06195
-1.45529
-8.51171
-4.99035
-0.481601
-5.55769
-4.91033
0
0
-2.15043
-1.43328
-1.57022
-1.04196
-5.11252
-0.31178
-1.97481
-2.88515
-0.0087719
-4.98973
0
-9.93425
0
-0.830791
-0.647926
0
-2.67419
-1.18679
-1.75588
-2.32239
-0.858738
-1.66135
-0.689864
-0.477207
-2.03582
0
-2.08908
0
-1.76365
0
-3.25906
0
-0.00985431
-1.24358
-0.861119
0
-1.66595
-0.159768
-3.05338
-0.712935
-6.47362
-0.587814
-2.74822
-2.00248
-7.77187
-0.756888
-0.869521
-2.77318
0
-8.8459
0
-0.0558368
-3.95962
-3.78224
-0.812748
0
-5.36299
-0.793272
-5.66739
-2.54006
-0.638421
-4.55562
0
-5.37289
-0.165986
-1.07956
-2.73725
-0.461095
-4.02627
-0.0151376
-1.19021
-1.46747
-1.68522
-3.99294
-0.381707
0
-1.34154
-2.70966
-1.22424
-5.26096
-1.10242
-5.13474
-3.59597
-3.72103
-5.36795
-0.801232
-5.25404
-2.34907
-5.46793
-0.288124
-0.877956
0
0
0
0
0
0
0
0
0
0
0
0
0
0
0
0
0
0
0
0
0
0
0
0
0
0
0
0
0
0
0
0
0
0
0
0
0
0
0
0
0
0
0
0
0
0
0
0
0
0
0
0
0
0
0
0
0
0
0
0
0
0
0
0
0
0
0
-0.0343907
1.90601e-05
0
0
0
0
0
0
0
0
0
0
-0.0355113
-0.0149992
0
0
-0.205987
-0.471509
0
-0.0129562
0
0
-0.559049
0
0
0
0
-0.379017
-0.109185
0
0
0
0
0
0
0
0
0
0
0
0
0
0
0
0
0
0
0
-0.0533882
-0.122495
0
0
0
0
0
0
-0.131158
0
0
0
0
0
-2.65019
-7.42835
-5.94532
0
-1.44275
0
-3.51452
-0.41783
0
0
-2.89173
-1.96637
0
-8.36646
0
-1.92958
-3.45249
-3.59278
-0.313003
-0.0302954
-3.61014
-0.892292
-1.94752
-2.11928
-6.74036
-1.23561
-7.2974
-1.39525
-0.708269
0
-0.0347237
-4.17663
-1.53342
-1.40118
-6.27745
-4.71231
-4.01267
-2.30975
0
0
0
-2.4006
-0.43111
0
-2.63683
0
-1.34905
0
-1.65829
-0.981065
-3.16624
-0.738834
-0.0398347
-3.41149
-1.90574
-2.54946
-3.5078
-2.45074
-4.33913
0
0
-1.29031
0
0
-3.67029
-1.10155
0
0
0
-4.53061
-0.806846
-7.24425
-1.24129
-4.72317
0
0
0
-4.46434
-1.27455
-2.97135
-1.28598
-2.13622
-3.60112
-4.79189
-2.4492
0
-1.57252
-7.92364
0
-8.07884
0
-5.89993
-2.09096
-5.50674
-2.69117
0
-1.10617
0
-1.08592
-4.15981
-0.984991
-1.19105
0
-3.54002
0
-5.54579
0
-6.20801
0
-6.88561
0
-1.74391
-2.03817
0
-0.539733
-4.07749
-0.100652
0
-1.42163
-1.94628
-4.30519
-2.70511
-1.97926
0
-4.96729
-1.58305
0
-0.544925
0
-7.87259
-0.771585
-2.16378
0
0
-3.39869
-1.59017
-1.75505
0
-3.20213
-7.28411
-1.53799
-4.03555
-2.33684
0
-0.964438
-4.74653
-2.29184
-1.2972
0
-1.65565
0
-1.92924
0
-0.297748
-4.16663
-5.11485
-0.106247
-6.87408
-1.50896
-2.78731
-3.90538
0
-3.11366
-4.22035
-4.48647
-2.24896
-0.52137
-4.88293
-4.342
-0.664741
-3.16389
0
0
0
-0.512844
0
0
0
-1.64252
0
-2.60071
0
-8.38184
0
-1.44101
-4.67057
-1.30366
-1.75812
0
-4.04593
-0.808592
-0.251873
-5.29784
0
-3.10417
0
-3.2563
-1.44579
-5.21159
-0.854596
-1.65971
-8.46611
-1.57544
-1.27133
-0.184911
-0.909817
0
0
-5.64559
0
-4.1487
-5.84033
-1.13411
-5.10287
0
-2.59111
-1.87332
-4.42934
0
-2.26356
-0.197265
0
-0.255158
0
0
-3.79894
-0.0698736
-2.67895
-1.4567
-0.55074
-0.706943
0
0
-2.84755
-2.66071
-1.41762
-3.72692
-0.387558
-1.78194
-0.687925
-2.95947
-0.753752
0
-5.0799
0
0
-7.07218
-1.61613
0
0
0
-3.72285
-0.221206
-0.210994
-5.55119
0
-0.0898811
-2.90637
-3.50354
-2.44811
-1.62164
-0.183151
-3.20985
-7.38701
0
-1.8224
-4.51295
-2.72995
0
-7.32496
-1.25412
-0.0595174
0
-11.1866
-2.16641
-2.52227
-3.68413
-2.29158
-0.616089
-0.426957
0
-4.36464
-1.76469
-2.75622
-4.29677
0
-1.6363
-2.5011
-5.0091
-2.76932
-4.41269
-3.52395
-1.14054
-0.638395
0
-1.14804
0
-0.582216
-4.6798
-5.7795
-1.93131
-0.903586
-3.16504
0
-2.94767
-1.52158
-9.28299
-1.51055
-12.107
0
0
-3.5601
0
-0.63014
-4.35535
-6.85624
-1.52369
-0.200423
-2.49612
-8.73558
-4.59896
0
0
-0.433936
-0.0472823
-5.64671
0
-2.1885
-7.59768
0
-5.45366
-2.42226
0
-2.10292
-4.07089
-3.29171
0
0
-3.43136
0
-0.768386
-5.444
-5.17771
0
-3.56939
-3.04021
-3.03844
0
-1.7484
-2.58505
-3.51846
0
-3.98448
0
0
-5.38083
-2.36659
-8.58995
0
0
-5.07432
-4.67352
0
0
-2.33617
0
-1.15397
-0.141616
-4.12554
-3.7026
-0.627632
-1.36049
-1.11107
-2.07868
0
-3.82482
-1.31252
-0.904062
-0.784388
-1.07728
-4.44998
0
-4.47864
-3.59493
-1.68416
-2.3018
-0.668724
-5.33683
-0.173649
-0.109984
0
0
-0.382374
0
-5.07266
0
-3.3728
-0.315887
-5.22839
-3.10485
-1.57243
-0.557338
-7.62581
-0.0693581
0
0
-0.0961816
-1.79957
-1.26805
0
-0.960068
-0.0825026
-0.54273
-4.53776
-1.36139
-3.93653
-2.85245
-5.8768
-3.91363
0
-1.21117
-3.31608
-4.88701
-5.39574
-5.23065
-1.84411
-1.90187
-4.82302
-2.96581
-3.53687
-0.73238
-1.50924
-1.11971
-0.640597
-3.64532
-4.26065
-4.30828
-3.86497
-3.64212
-0.0369387
-2.881
0
-3.6623
-1.23956
-5.31275
0
-4.25366
-9.86126
-0.584423
-0.271939
-1.31083
0
-1.62118
0
-2.47433
0
-1.19092
-1.04005
-3.81116
0
-4.66134
0
-3.45549
-2.09688
-1.45201
0
-4.91282
-0.0973677
-1.83477
-0.00631735
0
-1.88703
-1.16422
-5.03294
0
-1.36498
-6.73965
-0.170939
-2.74109
0
-0.824659
-0.391083
-3.48577
-0.232147
-1.40202
0
-4.82247
0
0
-5.76248
0
-4.23487
-2.41979
0
-0.538628
0
-7.01776
-2.59092
-6.52528
-0.917454
-5.10224
-3.36539
-1.31838
-5.93089
0
-6.16589
0
0
-1.0609
-2.93324
-0.848273
-3.39398
-0.230393
-7.34183
-2.75318
-6.59194
-6.77139
0
-6.57882
-1.10314
-3.18852
-1.80841
-1.66253
0
-0.245043
-2.35319
-0.865071
-3.54528
0
-1.10709
-10.0684
-0.969645
-7.70277
0
-4.07454
-3.22747
0
-9.36825
0
-8.24731
0
-8.55377
0
-3.93295
-0.831785
0
-0.0423706
0
-4.72267
0
-6.73663
0
-3.25378
-2.96056
-1.03273
-2.54713
0
0
-1.93874
-0.982946
0
0
-0.606484
0
-4.01073
-0.295958
0
0
0
-0.981079
-2.33975
0
-0.889396
-8.07536
-0.790494
0
-0.25116
-3.94542
-1.32922
0
-7.79474
0
-0.118561
0
-4.54534
-7.01271
-1.18371
-6.97473
0
-0.736885
-1.90612
-3.30498
-4.79135
-1.51224
-3.15346
-2.32811
0
-1.28575
-1.78038
0
-3.44813
-5.38024
0
0
-1.00726
-3.09194
0
-3.73823
-0.486517
0
-6.03108
-0.24368
0
0
-0.574068
0
0
-2.03865
0
-11.2441
0
-4.32869
0
-2.43973
-2.22667
-2.45451
-4.13976
-1.81396
0
-3.88869
0
-5.15424
-0.954074
-1.45551
-7.30084
0
0
-4.88787
0
-6.49608
-2.93739
-0.644487
-1.21985
-1.86122
0
-2.4057
0
0
0
-0.615738
-0.500385
-1.70668
0
-4.68852
-0.398738
-0.391061
-2.98379
-0.620757
-1.45469
-0.957578
-1.23763
-6.15655
0
-5.51675
-3.35299
-4.81962
0
-3.69128
-0.762672
-12.2628
-1.72315
-0.332673
-1.51043
-1.40149
-2.98892
-6.16415
-0.916366
-0.115318
0
-1.4684
-1.66711
-2.70499
-1.86814
-2.5334
-5.0756
0
-0.363643
-5.53824
-0.509319
-1.83737
-0.28773
0
-0.819084
-2.00745
-0.109568
-0.149507
-4.08008
-1.86694
-4.40341
-1.82877
-3.20318
-0.16334
-2.55528
-0.924023
-0.0556246
-1.7699
-1.3837
0
-6.48876
0
-3.97104
-0.745299
-4.31288
-3.2425
-0.139276
-1.27694
-0.175353
0
-0.247139
-1.96159
-2.89066
-0.392511
-0.473079
0
0
-0.00390957
0
-2.26811
-1.98664
-0.454868
-1.72198
0
-2.54462
-5.36814
-0.575941
0
-0.708619
-7.0881
-1.76199
-9.96689
0
-0.688384
0
-0.0715212
-6.91449
-1.79916
-5.97673
-0.374632
-3.31294
0
-0.741652
0
-7.1227
0
-1.11078
-3.85936
0
-3.89743
0
-4.46638
0
-2.98711
-0.0905593
-2.89009
-0.256944
0
-0.741498
-0.646984
-4.05422
-0.811362
-8.28623
-0.667124
0
-1.69453
0
-6.29542
0
-8.61747
-0.206488
-3.62145
-6.08233
0
-4.44747
-2.01177
-3.27409
0
-11.2179
0
-4.49393
-4.89278
-1.30221
-1.59613
-1.2751
-0.367942
-3.73252
-1.96869
-5.25821
-0.521153
0
-0.986702
0
-3.76517
-0.284046
-7.50819
-1.80131
-3.17262
-0.385816
0
0
-3.55553
-3.04852
0
-3.27357
-4.16774
0
0
0
-4.29795
0
-0.743752
0
-1.49571
0
-2.51099
-1.25485
-3.34345
-2.54314
-3.39861
-1.89548
0
-2.51601
0
-4.90793
-2.71722
-2.57717
-1.73471
-1.81702
-0.32813
-1.65571
0
-2.48575
0
-0.496953
-1.20796
-5.57165
0
-8.43861
-2.24926
0
-2.17855
-3.40016
-5.14946
0
0
0
-5.62176
-0.65881
0
0
-7.401
-3.21615
0
-3.37636
-2.06168
0
-3.83019
-2.5738
-0.208053
-0.210083
-5.94586
-0.231024
-2.86397
-1.05435
-6.75392
0
-8.08936
-0.199462
-0.987839
-0.00443362
-3.51131
0
-4.54354
0
-1.28615
-1.23636
-0.618496
0
0
-1.85972
0
-4.86737
0
-1.03433
-1.89207
0
0
0
0
0
0
0
0
0
0
0
0
0
0
0
0
0
0
0
0
0
0
0
0
0
0
0
0
0
0
0
0
0
0
0
0
0
0
0
0
0
0
0
0
0
0
0
0
0
0
0
0
0
0
0
0
0
0
0
0
0
0
0
0
0
-0.151949
-1.55309
0
-0.98112
-0.793773
0
-1.19699
-1.54261
0.389101
-1.32286
0
-1.11844
-0.132531
-0.465357
-0.969664
-1.23562
-1.19078
-1.32707
-0.0927147
-1.17622
-0.633156
0
-0.631011
-0.635687
-0.279575
-1.28347
0
-1.36322
-0.608572
-0.102282
-1.31148
-2.10608
-1.52948
-0.861138
0
-2.13896
-1.33239
-1.3081
-4.02282
-0.466757
0
-1.9126
0
-0.904468
-2.18729
0
-0.573084
-0.859728
-0.322879
-0.0137255
0
-1.35462
-0.212812
0
-2.51151
-0.515849
-0.3597
-2.63506
0
-0.257498
-2.2809
0
-0.222044
-1.71653
-2.81916
-4.23971
-0.251006
-4.40156
-6.08586
-5.39473
-2.14423
-1.01037
-8.02814
-0.646888
-5.26053
0
-2.39628
-1.19335
-2.96334
0
-4.30054
0
-0.0077999
-4.09612
-4.39066
-1.90653
-1.17992
-7.10803
-0.381934
0
0
-0.0313792
-0.983651
-2.95641
-4.80145
-1.75182
0
0
-1.63221
-0.608047
-0.812596
-1.70095
-0.101577
-5.66038
0
-6.21039
-1.23908
-6.167
0
-4.31956
-2.64658
-2.79925
-1.72889
-2.6367
0
0
0
-1.68357
0
-0.762634
0
-1.53728
-0.0774769
-2.34017
-6.22601
-0.13028
-4.74187
0
-2.79086
-1.60077
-0.231215
-5.12022
-1.29733
-3.74182
-0.288834
-6.75835
0
-0.103601
-0.702358
-6.92279
-8.32552
-0.210727
-3.49028
-1.56678
-4.25324
-3.13957
-4.63054
-0.520008
0
-2.59676
-7.06168
-1.5738
0
0
0
0
0
0
0
-2.92197
-0.323395
-0.465704
-0.806679
-5.1783
0
-8.64916
0
0
-1.21603
-5.25938
-0.863892
0
-2.06433
0
-0.990791
0
0
-1.9309
0
-1.08545
-2.79944
-2.56249
-5.77781
-1.67873
-1.08916
-2.18099
0
-5.64684
0
0
0
-4.29164
-0.619984
-12.3714
0
-5.2061
-0.29873
-4.82241
-4.06509
-3.04768
-2.83145
-2.24989
-2.36774
-1.99954
-1.84622
-4.50946
-0.922781
-8.59298
-0.276555
-9.5407
-3.11837
0
-4.6204
0
-5.11566
0
-2.32683
0
-4.39219
-0.287993
-1.76838
0
0
0
-3.05757
-2.40552
-7.12152
-1.80752
-7.30538
0
-1.03528
-6.87975
0
0
-4.29144
-0.879264
-1.31507
-3.48806
0
-3.59394
-6.92051
-2.78577
-1.95968
-3.87969
-1.92042
-3.69856
-2.36779
-2.66468
-6.23075
0
-2.9494
-2.83724
-10.0354
0
-2.4574
0
-0.509252
-1.75447
-7.28467
-1.92712
-5.33193
-10.0618
0
-2.57762
-7.35044
-2.96746
-0.336325
0
-7.36779
-1.12369
-3.84022
-0.713979
-0.476563
-0.464901
-0.47654
-1.1593
-4.9583
-0.611828
-0.97307
-2.4637
-0.0268667
-3.12115
0
-3.22954
-1.3409
-2.51536
-2.51018
-1.59556
-1.7937
-3.45942
0
-2.44068
0
-0.585287
-1.97839
-4.07558
-1.45666
-6.15871
-0.113632
-4.50081
-1.67065
-2.51407
-1.37072
-4.41799
-4.34578
-5.84621
-4.38325
-3.93114
-6.32249
0
-11.8104
0
-2.06651
-3.86973
-2.25331
-2.20827
-0.930087
-1.08159
-2.47054
-1.73453
-3.10576
-1.37769
0
-0.219212
-4.13167
-6.54476
0
-2.84122
0
-3.89713
-3.219
0
-2.39415
-1.81895
-1.96151
-0.709321
-11.8735
-0.105851
0
0
0
-0.340037
0
-2.55009
-1.65258
-2.33084
-1.43199
-1.27678
-0.556351
0
-4.68634
0
-2.09493
-2.57972
-2.85825
0
-1.24757
-1.03242
-2.16689
-2.30638
-2.28933
-1.74185
-5.827
0
-1.30729
-5.22408
-5.97436
-2.74682
-7.62659
-1.72197
0
0
-2.21159
-0.111676
-3.71277
-2.5551
-2.80503
-3.85546
-1.11551
-0.287855
0
-5.0957
-2.0845
-4.87821
-0.0648247
0
-7.00473
-1.77913
-8.28378
0
-1.36744
-1.4309
-5.41562
0
-3.18073
-1.72107
0
-5.99233
-0.16392
-2.41666
-3.62206
-1.38286
-11.4668
-0.429757
-1.45866
-1.23189
0
-0.0422143
-4.03965
-0.495246
-6.34622
-5.32685
-1.86994
0
-0.940879
0
-2.48239
-2.63782
-0.598034
-6.72685
-2.67011
0
-6.63818
-2.9056
-5.95038
0
-1.1833
-2.58262
-5.02523
-5.10369
-1.78855
-6.91255
-7.16074
-5.3929
-0.651206
-0.0363369
-4.33057
-1.51144
0
-1.95754
-0.292245
-4.26752
-11.4332
0
-0.20435
-6.67636
0
-10.5805
0
-2.37779
-1.68014
-0.319787
0
-4.1711
-1.37085
-1.90412
-4.46476
-1.3543
-4.3177
-1.17554
-5.34528
-2.83679
-0.944053
-2.09628
-1.03646
-6.54681
-1.19548
0
-7.35389
-2.78037
-6.2305
-2.20601
-10.0687
-3.37129
-1.21395
-3.97057
-3.05352
-4.87993
-2.56273
0
0
0
-1.10572
0
-12.6764
-2.43836
-0.977674
-0.396882
-1.44157
0
-3.49026
0
0
0
-7.55835
-0.562665
0
0
-3.97761
0
-2.05711
0
-1.97039
-3.35693
-0.322296
-0.410304
-1.82719
-6.40153
0
0
-0.482236
-1.51336
-1.56962
-4.20607
-0.688853
-5.77447
0
-6.03927
-0.279721
-3.05272
0
-5.3705
-2.31409
-3.38552
-0.684349
-0.470201
0
0
0
-3.3167
0
-0.384753
0
-4.79075
0
0
-5.41831
0
0
-3.53686
-0.974459
0
-9.07259
0
0
-1.69716
-0.980939
-2.25995
-1.23297
-3.33061
-0.573297
0
-5.49714
-4.99413
0
0
0
-2.60705
-7.43564
-5.60519
0
-0.640474
0
0
-1.64482
-4.75078
0
0
-1.93664
0
0
-0.425763
-4.82452
0
-0.151302
-1.76858
-4.52209
-1.87293
-0.685587
-1.14654
0
-0.159212
-1.01724
-6.46794
0
-3.69301
-1.87353
0
-5.81173
-0.831519
-4.67566
-1.52349
-2.55144
-7.749
-0.360039
-1.66896
0
0
-8.97687
0
-7.02476
-1.14777
-0.697969
-0.616891
-2.4685
-0.78655
-0.412686
-4.14712
-0.224655
-0.698172
-5.01109
-5.75994
-0.752267
-7.48145
0
0
-4.22077
0
-0.949787
0
-5.16116
-0.0855478
-7.0409
-3.26034
-0.964212
-4.6608
0
-4.23438
-1.00327
-0.204664
-0.391413
-0.075687
-4.92624
0
-4.52486
-1.84891
-7.74606
-1.01755
-2.08052
0
-5.12053
-7.25249
-1.09037
-3.85606
0
0
-1.9848
-5.07301
-3.68367
-2.52111
-2.50538
-1.15078
0
-10.5364
-3.04861
-7.39141
0
0
-9.34793
-0.0327521
0
-3.04446
-1.34254
-4.19359
-5.76325
-5.07549
0
0
-5.17288
0
0
-2.97795
0
-2.70113
-6.1899
0
-0.451077
-4.84371
0
-6.67766
-0.9999
-4.97177
-3.45399
-0.446531
-2.67851
0
-4.42324
-0.210537
-3.63955
0
-0.45476
-5.32641
-8.3552
0
-3.23936
-3.49805
0
0
-0.484545
0
-7.5743
-0.535402
-1.2119
0
-3.15006
-2.61781
-0.856833
0
-3.05764
-4.95197
0
-5.89601
-1.52275
-8.75123
-2.48995
-2.64858
-2.34978
-2.08628
-0.743701
-3.48428
-0.202305
-7.94046
0
0
-8.017
-1.78242
-2.04017
-2.31574
-0.508848
0
-4.55838
-3.53664
-2.98738
0
-2.35471
-0.892874
-4.32934
-1.69607
-6.70547
0
-0.842933
-1.59764
-1.11936
-4.72665
-1.27806
-4.91737
-0.610819
-5.17624
-0.816587
0
-4.80661
0
-2.71908
0
-2.87126
-1.402
-2.33338
-2.15047
-7.80814
0
-6.70919
-0.730662
-1.01728
-1.67055
-0.319472
-0.142651
-1.29523
-0.675568
-3.24988
-0.909462
-1.82984
-1.53034
-4.35159
0
-0.037516
-6.6971
0
-0.0419432
-0.817217
-1.94266
-2.15441
-3.86381
-1.81854
-4.84169
-4.00952
0
-1.88173
-2.1788
-0.90782
-1.3232
-4.66214
0
-2.41299
0
-3.12758
-1.13035
-3.88608
-1.94215
-2.59013
0
-7.03956
-0.169133
-0.787641
0
0
-2.98965
-7.405
-2.06875
-0.937885
-2.55312
0
-3.72485
-1.14447
-3.45504
-1.40387
-3.94945
-0.829716
0
-6.84186
0
-1.00734
0
-6.81461
0
0
-2.04683
-4.35155
-2.78889
-1.36761
-0.203717
-4.16913
-1.30748
-1.90939
-4.85045
-0.757413
0
-0.89414
-5.97032
0
-1.98182
0
0
0
-6.00826
-3.70683
-2.07362
0
-4.2585
0
-1.19843
0
-4.33149
-1.06954
-4.13031
0
-0.922909
-4.09796
-0.789812
-5.44368
-0.355025
-0.567822
-4.02181
0
-5.04264
-2.01467
-3.04379
-0.52656
-2.92407
0
0
-1.42623
0
-4.84527
-1.48077
-5.61173
0
-2.21973
-2.47547
-1.44792
-3.6974
-2.1043
0
-1.40251
0
-3.3112
-1.34198
-3.04432
-3.00565
-0.999873
-0.0376069
-0.638966
-1.02309
-2.35594
-1.60064
-2.11505
-1.78325
-4.39212
-0.50602
-1.7926
0
0
-6.01935
0
-4.11506
0
0
-0.0824327
0
-2.80974
-0.51634
-0.396731
-2.54589
-0.732688
-5.15547
0
-1.5311
-2.13373
-4.98282
-4.66587
-4.44633
-2.94195
0
-5.3045
0
0
0
-1.75461
-0.896756
-3.92897
-0.709289
-1.68226
-1.94176
-2.13117
0
-1.96383
-0.153455
-5.47029
0
-2.59618
-2.21838
-1.80007
-1.50792
-7.06307
-0.20153
0
0
-2.25724
-0.983222
-3.65274
-1.26194
-6.13039
-4.51897
-9.29628
0
-8.64231
-1.06069
-3.52697
-0.122039
-5.59574
0
0
0
0
0
0
0
0
0
0
0
0
0
0
0
0
0
0
0
0
0
0
0
0
0
0
0
0
0
0
0
0
0
0
0
0
0
0
0
0
0
0
0
0
0
0
0
0
0
0
0
0
0
0
0
0
0
0
0
0
0
0
0
0
0
-1.37244
-0.887094
0
-0.447832
-0.525959
0