<?xml version="1.0"?>
<VTKFile type="RectilinearGrid">
<RectilinearGrid WholeExtent="0 32 0 32 0 32" Origin="0 0 0" Spacing="1 1 1">
<Piece Extent="0 32 0 32 0 32">
<PointData>
</PointData>
<Coordinates>
<DataArray type="Float32" format="ascii">
0 0.524874 1.04975 1.57462 2.0995 2.62437 3.14924 3.67412 4.19899 4.72386 5.24874 5.77361 6.29849 6.82336 7.34823 7.87311 8.39798 8.92285 9.44773 9.9726 10.4975 11.0224 11.5472 12.0721 12.597 13.1218 13.6467 14.1716 14.6965 15.2213 15.7462 16.2711 16.796 
</DataArray>
<DataArray type="Float32" format="ascii">
-5.03879 -3.62163 -2.20447 -0.787311 0.629849 2.04701 3.46417 4.88133 6.29849 7.71565 9.1328 10.55 11.9671 13.3843 14.8014 16.2186 17.6358 19.0529 20.4701 21.8872 23.3044 24.7216 26.1387 27.5559 28.973 30.3902 31.8074 33.2245 34.6417 36.0588 37.476 38.8931 40.3103 
</DataArray>
<DataArray type="Float32" format="ascii">
0 0.524874 1.04975 1.57462 2.0995 2.62437 3.14924 3.67412 4.19899 4.72386 5.24874 5.77361 6.29849 6.82336 7.34823 7.87311 8.39798 8.92285 9.44773 9.9726 10.4975 11.0224 11.5472 12.0721 12.597 13.1218 13.6467 14.1716 14.6965 15.2213 15.7462 16.2711 16.796 
</DataArray>
</Coordinates>
<CellData>
<DataArray type="Float32" Name="Scalar" format="ascii">
0
0
0
0
0
0
0
0
0
0
0
0
0
0
0
0
0
0
0
0
0
0
0
0
0
0
0
0
0
0
0
0
0
0
0
0
0
0
0
0
0
0
0
0
0
0
0
0
0
0
0
0
0
0
0
0
0
0
0
0
0
0
0
0
0.158567
-1.23547
0
-0.236793
-0.165475
0
-0.533814
-0.334883
-0.268874
0.0695905
0
0.0340675
-0.251796
-0.0537632
-0.0745401
-0.233734
0.00312757
-0.1189
0
-0.818883
0.0228396
0
-0.0442413
-0.775936
0.455689
-0.284594
0.0238092
0.103612
-0.508215
0
-0.466628
-0.698364
-0.282435
-0.401223
0
-0.589933
-0.267202
0
-0.551655
-0.039773
0
-0.288914
0
-0.38053
-0.974079
0
-0.865318
-0.115058
-1.11967
-0.419661
-0.0280444
-0.757279
-0.488859
0
-2.00448
-1.93743
-0.230612
-0.598615
0.00476529
-0.326549
-0.332767
0
-1.73547
-0.740764
-0.899904
-1.32865
0
-2.70506
-0.19552
-0.864238
-2.74156
-1.35083
-0.475667
-5.11639
0
-0.0976187
-2.12683
-2.27975
-2.90478
-2.09193
-1.96116
-3.0632
-0.133801
-1.46961
-3.12416
-2.19721
-0.0776633
-6.98841
-0.746264
-0.308703
-4.17656
-5.14095
-4.97372
0
-3.70815
-4.93174
-1.32053
-0.469374
-5.10595
0
0
-1.14252
-0.171802
-0.321922
-3.00328
-0.77886
0
-4.89966
-3.09528
0
-0.387902
0
-1.37157
0
-5.32188
0
-1.61554
-1.04204
-8.30795
-0.795442
-1.63717
-3.8502
-6.68992
-0.421329
0
-0.686955
0
-1.74099
-4.53329
-3.43715
-0.670294
-2.9223
-2.05254
-3.36599
0
-1.87048
-0.0709652
-4.18625
0
0
0
-5.18316
-1.43396
-0.224099
-1.08355
-5.24821
-0.754665
-6.80669
-1.91369
-4.0543
-5.05766
-7.7855
-1.80739
0
0
0
-3.65671
-1.08322
-6.61978
-0.227991
-3.33445
-3.06818
-3.7211
-1.60736
-2.3251
-1.13881
-1.14841
-5.31918
-3.70518
-4.70094
-0.861155
0
-5.08829
-2.92577
-2.62776
-7.61051
-1.26695
0
0
-0.563843
-2.22388
0
-1.42575
-3.74177
0
-0.480615
-2.56795
-1.18152
-1.47172
-7.10008
-0.619407
-0.479576
-1.12902
-1.72712
-0.784859
-6.10741
0
-0.267748
-1.20519
-3.43268
-2.88965
-4.72139
0
-4.53602
-1.33703
-3.82981
-1.03362
-6.26189
-0.645532
0
-0.0751576
-0.376183
0
0
-2.83117
-1.40217
0
0
-1.05328
-1.43847
0
-3.42939
0
-6.55203
-0.848146
-5.03815
-0.221074
-6.58215
-0.453977
-1.88319
0
-4.44932
0
-7.58301
0
-6.89267
0
-0.846024
-0.679814
-1.65623
-1.13007
-0.678109
-3.49291
-8.38934
-3.97532
-7.25331
-1.4972
-1.59126
0
0
-1.58811
0
-0.715118
-3.34745
-2.13784
-0.0437252
-1.48919
-1.59034
-3.08212
-0.194674
-2.62742
-2.36942
0
-2.04295
-1.31612
-3.57761
-3.15748
-0.924395
0
-0.046401
-2.13901
-2.05808
0
-0.0861766
-1.0511
0
-4.08608
-0.570855
-0.683891
-0.772368
-2.35834
0
-3.79276
-0.0754289
-5.4467
0
-0.188788
0
-7.19896
-0.950353
-4.18421
-0.974013
-2.83545
-1.31596
-1.5395
-1.97812
-3.79101
-2.4879
-0.409233
0
-4.44043
-3.61348
0
0
-2.17491
-3.75858
-1.61171
0
-0.0932077
-2.65046
0
-2.06945
0
-4.76505
-0.457842
-7.23394
-0.98072
-2.16694
-1.30213
-1.15193
-8.81829
-0.379717
-8.36074
-0.188419
-2.69764
-4.4883
-3.82463
-2.13598
-0.897415
-0.532836
-8.14305
-0.942956
-5.75406
-0.964011
-2.48206
-3.46168
0
-0.914739
0
-2.28183
-4.22207
0
-4.12708
-1.6309
0
-0.418044
-4.82658
0
-2.44925
0
0
0
-3.02209
-0.0698499
-2.7813
-3.12362
-0.914882
0
0
-1.0442
-0.835178
-1.16124
-2.11274
-4.35135
-4.45053
-2.15922
0
-1.65291
-3.39772
-2.43804
0
-3.33592
0
-4.64193
-3.48077
0
0
-4.3035
-0.297899
-3.91676
-1.94116
0
-4.20076
0
-0.178007
-1.15913
-1.90259
-4.39784
-3.68056
0
-0.605339
-0.123982
-0.48361
-0.0909058
-0.561897
0
-0.453364
-0.230193
-2.52088
-0.585105
-0.417731
-1.39226
-5.88714
-2.45021
0
-7.87332
0
-0.58223
-0.278127
-1.28502
-1.67295
0
0
-0.900011
-1.17944
0
-1.43385
0
-3.84642
-1.59896
-3.99299
-0.0672904
-0.735291
0
0
-0.18525
-5.65145
-1.88028
-5.97453
-0.871199
-3.78887
-2.77901
-0.0770298
-6.29867
0
0
-5.2868
-3.23817
0
-3.9796
-1.66488
0
-3.56527
-2.36477
-4.21214
-0.772704
-0.400317
-3.01815
0
-3.58626
-4.65015
-1.85836
-3.57372
-2.60698
-3.4408
0
0
-1.87895
-1.75331
-1.16933
-1.52458
-5.25886
0
-3.47132
-1.5507
0
-1.31322
-2.09976
-1.68007
-5.10388
-0.591915
-1.31151
-0.468229
-1.76195
-0.991384
-2.01489
-1.82304
-1.93991
0
-2.2794
-7.7392
-0.916385
-0.546477
-6.86898
-4.19464
0
0
-9.97607
-5.62836
0
-4.39342
-1.02903
-5.56464
0
-2.17167
-0.407996
-1.8296
-2.3368
-6.87192
-2.52836
-7.51979
-3.39224
-7.35026
-0.473511
0
-2.73275
-0.464321
-0.561065
-5.43929
-4.23543
-1.72814
0
0
0
-4.39486
-0.76501
-2.91337
-1.79536
-2.98385
-7.34332
0
-5.14602
-4.25804
0
-0.94638
0
0
-2.82425
-2.70005
-5.73534
0
-5.48924
-2.34525
-6.5369
-2.61697
0
-0.454322
-0.70407
-4.88337
-3.07047
-6.17572
-1.18151
-1.75269
-2.8594
0
-4.10247
0
-0.0443523
0
-2.55553
-3.91824
0
-1.7961
-1.38568
-1.60209
-0.339442
-7.74826
-2.1697
-3.93846
-3.95169
-1.83342
-6.92571
-0.554531
-0.117075
-0.611885
-0.355568
-2.97041
0
-4.38056
-2.25436
-1.73476
0
-9.65179
-1.52214
-6.01668
0
0
-6.45228
-10.955
-1.0731
-4.62541
-0.231629
-3.44845
-2.17714
-2.21554
-3.1463
0
0
-1.16709
-0.0418228
-2.39794
-2.14319
0
-5.29711
-0.377149
-3.80467
-2.90783
-1.94814
-2.39833
-1.42009
-0.447673
-2.12204
-0.009911
-1.75523
0
-2.42734
-4.31978
-1.3843
-1.23511
-4.09523
-3.07306
0
-7.08078
-0.63908
-3.05538
-4.36026
-3.37543
0
-0.97722
-2.68656
-1.33712
0
0
0
-1.36087
-7.51918
-6.34728
-4.82934
-1.03059
-0.0656375
-5.5204
-1.73456
-6.88015
0
-0.738099
-2.90335
-0.304079
-1.41478
0
-7.26693
-6.48081
-0.156723
0
0
-11.0902
0
-4.50488
-2.02987
-2.5835
-1.97173
-3.47732
-3.06834
0
0
-4.8983
-3.30238
-3.18505
-6.28816
0
-4.40814
-9.02633
-3.51994
-9.79869
0
-10.2387
-2.95507
0
-1.9431
-0.26249
-5.55961
0
0
-1.93624
0
-6.39461
-0.172367
-0.0515114
-0.618049
-3.33228
0
-3.02796
-0.980379
-0.126405
-1.20253
-4.45985
0
-2.74504
0
-5.75878
-4.63776
-3.62909
-3.02626
-0.933736
0
-4.5999
0
-2.1618
-5.64289
-2.12036
-8.66688
0
-6.15267
-0.313582
-2.44106
-3.47036
0
0
-7.90474
-7.73516
0
-0.167964
-1.88982
-0.186457
0
-0.587175
-5.74218
-1.86951
-7.05425
-0.439406
-0.250326
-1.16521
0
-4.88164
-0.803777
-7.26534
0
-2.5853
0
-0.399794
-4.37847
-3.02072
-7.607
-3.68256
-1.3625
-0.998624
0
-1.37446
0
-6.37273
-2.26968
-1.63717
0
0
-0.714758
-1.1336
-0.0190242
-3.9447
-2.38666
-2.902
0
-3.16779
-1.13787
-1.73684
-3.74983
0
0
-1.20351
-3.86459
-0.136674
-0.146276
-1.38458
-4.336
-2.0593
-0.900353
-5.05065
-1.20711
-5.31228
-5.30723
-0.838834
-1.82134
-3.76621
-6.92761
-4.2121
-8.20075
0
-9.73912
0
-0.234831
-0.311295
-0.701674
-1.37129
-0.428724
-2.26376
-2.13735
0
-1.5975
-0.150485
-1.66557
-1.47554
0
-1.22938
0
0
-8.32616
-2.06937
-4.77823
-0.0599058
-3.21307
-0.879392
-2.24023
-5.80032
-0.0970383
-4.41024
-1.40673
0
0
-7.96309
-0.245747
-1.24336
-1.64144
-5.68237
-1.11978
-4.55879
0
-3.65011
0
0
-3.49907
0
-5.90855
0
-3.10337
-1.89142
-0.854904
-0.408745
0
-1.74201
-3.13705
-0.991293
-1.23661
-3.3605
-5.23152
-0.598946
-6.59271
-0.0510785
-7.44535
0
-4.96252
-0.329525
-2.10888
0
0
-0.817302
0
-2.77715
-1.71148
-0.780686
-6.92301
-0.0667488
-9.45856
-0.156718
0
-3.31101
-4.70413
-0.848529
-1.0514
-2.04915
-2.02493
-0.106977
-0.446205
-5.27611
0
0
0
-1.98761
-0.668691
0
-6.95921
-1.09649
-5.28609
-0.0691317
-0.189846
-1.03565
-3.2837
-6.17167
-5.01915
-2.49693
-1.36374
-6.48279
-0.152655
-0.0779694
-0.855446
-2.15544
-1.45552
-1.76247
-0.279121
-1.77839
-0.0550189
-1.9808
-3.40382
-5.96249
-0.588317
-6.91582
-4.07763
-2.7741
-2.3823
-0.338031
-2.2507
-1.11112
-0.625885
-0.321052
-7.26892
0
0
-0.853145
-5.82708
0
-1.38517
-2.32517
-1.43701
-5.97241
-0.223141
-1.32562
-1.15922
-1.69841
-0.572381
-1.25113
0
0
0
0
0
0
-0.556073
-1.48599
-1.2245
-4.96503
-4.48963
-2.85819
0
-5.73231
-3.80921
-3.64411
-0.673936
-0.725501
-1.33297
-1.82301
0
-3.62822
-1.68345
-3.3906
-4.1603
-6.3248
-6.76637
0
-4.34133
0
-5.69516
-0.393862
-1.06209
-6.15462
-0.178609
-4.24163
-5.86157
-0.522895
-6.37964
-2.07588
-2.33342
-2.6379
-1.18452
0
0
0
0
0
0
0
0
0
0
0
0
0
0
0
0
0
0
0
0
0
0
0
0
0
0
0
0
0
0
0
0
0
0
0
0
0
0
0
0
0
0
0
0
0
0
0
0
0
0
0
0
0
0
0
0
0
0
0
0
0
0
0
0
-0.395185
-1.20948
0.0267762
-0.624496
-0.91222
0
-0.82393
-0.957113
0.105837
-1.26392
0
-1.06176
-1.03121
0
-1.15438
-0.961094
-0.182831
-1.12387
0.00756888
-1.38173
-1.65153
0
-1.04136
-1.11185
-0.788341
-2.74637
0
-1.2579
-0.199016
-0.194221
-1.73537
-0.74229
-0.321813
-1.9836
0
-1.84058
-1.88384
0
-0.988992
-0.474059
-1.01328
-0.76114
0
-3.00347
-2.7262
-0.687959
-2.06569
-0.585928
-0.239036
-3.66688
-0.047113
-0.893793
-1.08155
0
-1.24164
-2.15716
-1.78629
-2.35368
0
-2.63112
-4.573
-0.0677716
-2.28004
-0.600207
-6.88944
-4.48107
-5.72436
-2.79559
-7.74163
-1.19715
-4.35675
-4.53638
-4.7216
-3.28427
-0.794901
-7.8552
-2.3393
0
-7.50526
-1.46524
-3.78917
-2.46772
-0.948742
-4.59241
-4.58147
-1.31877
-1.58955
-0.679872
0
-4.2291
0
-2.16715
-4.51015
-3.3382
-0.470621
-2.14414
-1.34385
0
-0.850972
-1.71542
-0.0528368
-2.18403
-2.25596
-0.931174
0
-2.25109
-3.15424
0
-0.396096
-7.93208
-1.43908
-8.58103
-1.27528
-10.6854
-2.58366
0
-0.939654
-2.67204
0
-2.6199
-1.24582
-4.82949
-1.53325
-7.64722
-3.57066
-6.54164
0
-2.10168
-0.0339543
-3.84299
0
-2.02885
0
-1.4296
-1.30495
-3.35527
0
0
0
-8.22532
-0.922219
-4.52383
0
-7.78791
-3.90784
-2.09144
0
-2.96828
-1.60011
-4.66191
-3.53629
0
-5.40026
-6.01954
-2.91106
-8.59054
0
-0.745645
0
-0.670709
-0.0300112
0
-0.987064
-2.01508
-1.10751
-5.59733
0
-2.91795
0
-1.05658
-6.14694
-6.62084
0
-4.27521
0
0
-2.70807
-1.30094
-4.7609
-0.0159251
-1.05122
-2.56257
0
-0.829414
-9.67134
0
-4.57021
-4.82265
0
-5.09926
0
-2.06896
0
-1.06436
-1.08883
0
-0.771754
-3.61464
0
-2.72419
-0.776787
0
-1.30363
-4.44009
0
0
0
0
-0.710843
-2.3313
-4.51075
-1.373
-2.63826
-2.49305
0
0
-3.14833
0
0
0
-2.28749
-1.37781
0
0
-2.58609
-0.270689
-3.53905
0
0
-3.48148
-0.635837
-1.59691
0
-2.85528
-3.62328
-0.71371
-3.68229
-1.10145
-0.966145
-2.31519
-0.499559
-3.53706
-0.784926
0
0
-0.395957
-3.36861
-2.22231
-3.30446
-6.02563
-3.56916
-3.78007
-0.126674
-0.903775
0
-1.0814
-4.70654
-1.10529
-0.0899582
-0.734012
-1.71479
-4.58298
-5.8711
-2.41941
-1.92568
0
0
-8.03109
-3.23773
-5.36172
-6.61608
-0.869133
-1.97409
-0.892137
-2.24237
-1.64781
-2.22189
-1.71263
-1.55677
-0.430183
-3.58959
-0.031099
-2.15932
0
0
-1.45486
-8.6303
0
-0.455768
0
-3.53958
-2.4823
-2.9269
0
-3.99902
-4.67773
-3.40882
-0.308655
-6.74276
-2.80935
-0.468089
-8.96128
-0.294477
-8.83648
-3.29885
-2.40019
-2.32575
-0.702138
0
-2.0523
-0.0590888
-6.55127
0
0
-0.605452
-1.51864
-1.72629
-0.882361
-3.18257
0
-6.20958
0
-5.11853
0
-6.06965
-0.64344
0
-2.29688
-1.37432
-1.00729
0
-1.67833
-1.49387
0
0
0
0
-2.26181
-4.0242
-5.61069
-0.836329
-4.87072
-1.70573
-1.36613
-7.14317
-0.0991137
-0.0359247
0
-4.56059
-0.11091
-9.31961
0
-5.2614
0
-4.53042
-2.12552
0
-4.45193
-6.9192
0
-0.370046
-3.74
-0.719519
0
-2.34442
-1.51974
-2.23225
-1.90496
-2.97787
-1.75096
-3.74269
0
-11.1584
0
0
-4.81249
-3.53806
-3.8207
0
-4.20728
-0.827004
-2.91339
-2.39111
-0.298858
-3.90686
0
-3.73349
-1.57161
-0.707977
-2.00345
-4.98682
-1.10613
-4.76297
-1.47252
-5.26278
0
-5.64694
-0.573474
-2.97519
-0.378539
-2.60818
-5.07837
-3.20814
0
-2.7973
0
-1.3073
-5.17509
0
-5.22867
-0.823503
-9.0614
-0.91441
-2.83705
-2.32093
-0.591837
-0.253989
-2.53531
0
-0.545809
-7.56151
-1.22471
-7.02777
-2.71668
-4.61309
-1.25929
-1.43887
-1.91778
-3.33472
-1.57655
-3.3768
0
-0.498378
-0.154136
-6.53474
-2.43275
-1.98522
-1.62091
-1.34855
-0.222062
-0.778287
-8.71475
-0.871653
-1.03838
0
-6.11412
-0.336174
-1.84762
-4.87677
-3.53565
-0.745976
0
-1.27913
-0.632418
-1.91378
-6.59886
-2.43936
-0.252512
0
-6.61958
0
0
-0.192578
-5.35602
-0.749767
-6.35833
0
0
-0.769157
0
0
0
-4.23406
-2.5928
-1.14437
-3.9732
-0.208555
-2.50376
-1.45419
-0.743804
0
0
-8.91424
0
-2.1212
0
-3.44502
0
-1.17875
-9.18248
-4.39526
-1.25211
-1.74362
-2.39992
-3.90991
0
-3.10076
-2.51402
0
-3.82125
-0.315205
0
0
-4.329
-3.89941
-0.882918
-3.27018
0
-0.196547
-0.158915
0
-6.6489
0
-2.43748
0
-5.34504
-1.52481
0
-4.43342
0
-3.08955
-1.45247
-2.65999
-1.73772
-3.42297
-5.77981
-2.20359
-1.89733
0
0
-3.84981
-1.53069
0
0
0
-4.64798
-1.92979
-3.60939
-2.71322
-0.31145
-0.525153
0
0
-0.688592
-1.92506
0
0
-3.93073
-4.77552
-0.282541
-0.686676
-0.470681
-6.38049
-1.39742
-4.16149
-1.22273
0
-2.7481
0
-7.74006
0
-0.677973
0
-4.34282
0
-5.32594
-2.28799
-7.36988
0
-2.28414
-2.48023
-3.43845
-0.943306
0
-1.9097
-4.47503
0
0
0
-1.5543
0
-3.88631
-4.8851
-2.84383
-1.51609
-3.1721
-5.66156
-4.11384
-5.75557
-0.32536
0
-0.549906
-1.55373
-0.207684
-5.26201
-0.932652
-3.71436
-7.33885
-1.92236
-4.73736
-0.830638
-9.50529
-0.989753
0
-3.1127
0
0
-0.19509
-0.38434
-7.63523
0
0
-3.67128
0
-0.454227
-2.84273
0
-2.35141
-1.191
-0.34636
-0.628397
-4.91972
-5.83726
-5.48438
-1.89963
-2.41956
-2.98534
0
-3.2657
-2.10721
-0.38195
-6.1952
0
0
-5.80297
-4.08397
-0.7069
-7.39461
0
0
0
0
-9.86796
-0.787954
0
-4.03074
-8.71804
-1.89997
-2.43862
-4.63993
-0.87811
-3.08086
-1.53743
-6.73005
0
0
-4.68878
-0.338278
-5.53825
0
-2.79466
-4.05763
-0.12708
-3.10656
-1.19276
-0.782342
-0.507241
-4.46218
-6.27877
-2.91042
-0.258661
-7.9381
-4.78132
-1.48695
-0.285071
0
-4.09816
-0.33301
-2.18418
0
-2.06057
0
-3.38794
-1.17305
-2.71042
0
-1.85924
-0.598534
-4.75883
0
0
-1.55772
-3.23972
-2.13618
-0.422256
-0.298622
-4.72241
-0.0540065
-2.0651
0
0
-2.40637
-1.17301
-2.75352
-2.2083
-3.33144
-9.51095
-2.11239
-1.74265
-2.87573
-7.85803
-5.88514
-1.33662
-4.06128
-2.78078
-0.778337
-0.588995
0
-4.32153
-0.211114
-2.84787
-1.17328
-1.22835
-0.734468
-3.44829
-2.5742
-6.91551
-8.42352
-0.477193
-2.43983
-1.53371
-3.79476
-2.43169
-3.22542
0
-0.275298
-1.32211
-2.98874
0
0
-7.22588
-2.3186
-2.94071
-3.89628
0
-4.00991
0
-0.131145
-9.61197
0
-4.30256
-1.11233
-1.0918
-0.251923
-2.94708
-2.70963
0
-2.24381
-1.6012
-6.45756
0
-0.0407356
-2.80763
-1.58796
-4.00587
-3.51374
-3.94881
-1.57178
-1.15177
-5.62762
-2.21037
0
-2.87816
-0.606161
-3.97759
-0.253133
0
-8.30112
-4.40107
-5.10327
0
-7.22643
-0.0811726
-1.99826
-4.07704
-0.904276
-0.247615
-5.50134
0
-2.48535
-4.986
-2.24584
-5.31298
-1.0405
0
-4.85895
0
-0.123171
0
-3.75946
-1.99532
-9.06973
-0.345529
-2.89216
-3.93575
0
-1.47883
-0.464673
-5.79598
0
0
-1.99653
0
-5.71647
-0.527456
-7.2337
0
-5.96284
0
0
-3.68939
-0.686172
-1.71802
-3.43129
-1.09118
-3.6879
0
-1.27994
0
-4.31778
-0.145348
-3.64972
-4.87303
0
-3.50333
0
-1.20259
0
-3.37017
-1.48291
-2.55977
-7.9177
0
-0.652896
-5.31801
0
-8.65315
0
-7.50532
0
-1.45695
-7.87723
0
0
-8.56185
-0.458694
-6.43761
-6.99518
0
-7.65256
0
-0.8988
-7.76542
-0.991831
0
-6.59919
0
-0.530891
0
-3.10358
0
-4.62808
0
-2.56139
0
0
-4.88481
0
-4.14351
-4.86709
-4.38728
-3.18785
-2.06987
0
-2.94738
-1.42819
-5.665
-0.436221
-6.70183
0
-0.436839
-4.71505
0
-0.403484
0
0
0
-2.57929
-0.0801775
-1.39614
-2.5269
0
-0.167529
-5.66098
0
-3.87164
-6.23056
-5.48789
-3.97784
0
-1.36406
0
-6.31284
0
-3.13645
-0.654868
-2.66389
-5.34031
-1.94898
-5.86149
-3.72271
-1.02438
-4.22252
-1.00283
-1.22379
-2.77383
-0.469804
-0.123689
-3.58509
-4.72402
-0.938099
-0.221721
-2.47292
-0.135645
-7.72231
-1.24246
-4.05354
-1.78311
-6.89596
0
-7.96413
0
-6.37883
0
-6.23001
-1.34493
-3.96188
-4.65523
-3.31685
-6.46081
-0.0771679
-2.39058
-1.06719
-2.81721
-0.803334
-0.639462
-2.46339
-3.15315
-2.7868
-2.21865
0
0
0
0
0
0
0
0
0
0
0
0
0
0
0
0
0
0
0
0
0
0
0
0
0
0
0
0
0
0
0
0
0
0
0
0
0
0
0
0
0
0
0
0
0
0
0
0
0
0
0
0
0
0
0
0
0
0
0
0
0
0
0
0
0
0
0
0
0
0
-0.287915
0
0
-0.0582321
0
0
0
0
0
0
0
0
0
0
0
0
-0.541342
0
0
-0.706999
0
0
-0.274278
0
0
-0.0382017
0
0
0
-0.013798
0
0
-0.0193843
-0.228487
0
0
0
0
0
0
0
0
0
0
0
0
0
0
0
0
0
0
-0.0660935
-0.926201
0
0
0
0
-3.90827
-1.5845
0
0
-0.010901
0
-4.53756
-0.144826
0
-1.81722
-1.85787
-1.56373
-1.93543
-0.3822
-0.356398
-0.600013
-1.9847
0
-1.87902
-0.12249
-2.52927
0
-0.180186
-2.21732
-2.55816
-0.589182
-1.5509
-0.269768
-3.40334
0
-7.33301
-0.336308
-1.45159
-3.2628
-3.34211
-4.31356
-0.151537
0
-7.98592
0
-6.97115
-0.839957
-3.48555
0
-4.0507
0
0
-0.257681
-0.941875
-1.20562
-4.01518
-9.12041
0
-4.70276
0
-5.4178
0
-2.39837
-0.949662
0
0
0
-2.68147
-5.23449
-6.69263
0
-6.7653
-1.36785
0
-3.33259
0
-1.14925
0
-8.19568
0
0
0
0
-7.5257
-0.902579
-0.0305989
-3.37273
0
-3.56101
-1.68286
-2.09758
-0.932222
-1.00174
-3.77945
-0.728225
-0.550021
-1.0935
-3.76222
0
-5.67186
0
0
-5.47105
0
-0.967867
-7.48307
0
-7.14294
0
-6.65427
-0.871992
-3.15406
0
-1.84526
-4.13178
-3.03319
-6.00096
-3.03781
-1.23986
-1.0067
-1.59149
-3.13295
0
-7.3724
-2.14129
0
-1.95371
-0.891632
-1.30205
0
-0.259104
-5.57903
-4.05067
-4.18873
-1.70559
-1.28814
-0.641413
-0.589788
0
-7.36943
0
-0.708779
-5.67455
0
-1.36129
-1.03308
-6.18752
-4.74995
-1.3079
-6.78062
0
-4.78352
-1.48355
0
0
-4.03097
-1.39966
-1.74663
-3.03981
-1.73851
-5.35046
-1.5502
-0.277195
-2.78002
-0.273352
-0.15622
-0.937583
-3.68576
-1.31741
0
-0.125707
-5.43603
0
-10.5307
0
-2.73909
-4.399
0
-0.586295
-3.05937
0
-1.55064
0
-8.45188
0
-6.89426
-2.02206
-3.2237
-4.98906
-1.13461
0
-2.22848
0
-0.423
-4.03081
-0.43272
-5.44805
-2.08267
-2.12728
-2.17522
-0.890956
-3.08261
0
-2.83172
-0.651629
-1.0017
-7.14681
0
-2.56562
-1.82296
-1.04047
-10.5567
0
-4.47717
-2.89869
-2.09984
-1.59568
-2.04173
-0.421244
-0.803307
0
0
0
-3.66432
0
-1.23823
-4.66737
0
0
0
-6.64706
-0.188932
0
-1.23724
-3.28882
-0.661744
-1.48725
-1.80564
-2.86563
0
-2.33543
-1.62411
-6.64967
-2.21047
-2.93676
-1.95408
-3.16014
0
-4.9691
-1.11367
-9.00015
-0.430478
-0.985735
-0.750393
-4.1005
-5.8442
-0.946017
-2.04853
-4.35043
-4.15084
-5.15509
-2.46104
-0.177744
-6.88514
-2.67752
-2.92044
-3.75101
-2.36492
0
-1.39113
-0.776477
-1.06137
-3.99983
0
-2.97461
-2.63557
0
-5.87633
0
-1.22152
0
-4.58288
0
-5.14377
-0.908155
-0.0941349
0
-1.23889
-1.6916
-2.85007
-0.869174
0
0
-1.32405
-5.92621
-0.290697
-3.17788
0
-0.642529
0
-4.04126
-3.01213
-1.38127
-1.53481
-4.12745
-2.89726
0
-3.35635
-0.55485
0
-0.49429
-0.0744366
-2.23842
-1.62401
-5.03944
-6.23043
-0.0268315
0
-1.32058
-2.78027
0
-1.97676
-0.566189
-7.44258
0
0
0
-2.8641
-0.810868
-0.0838396
-1.8697
-0.809931
0
0
-4.74395
-3.29341
-1.72676
-0.893403
-1.77494
-7.92705
-2.18057
0
0
-0.568763
-0.434707
-4.58778
-3.36684
-0.903083
-1.97893
0
-2.98346
-0.761383
-0.164549
-1.10181
-0.373955
-2.66917
-0.42546
-0.241626
-1.22425
-0.982831
-4.27445
0
-0.148895
-0.289739
0
-4.04034
-2.00558
-5.19959
-0.806304
0
-1.11974
-1.38414
-2.57339
-4.64828
0
-0.268518
-1.36905
0
-2.65145
-0.841312
-6.51641
-0.240884
-0.0379255
-5.90901
-1.27024
-2.91056
-0.391862
-0.516614
-4.89824
-1.56448
-1.30886
-6.64485
0
-3.53851
-1.98656
-0.534297
-0.54961
-0.87432
-5.24518
0
-5.04476
0
-2.84177
-1.26123
-5.1943
0
-1.1034
-2.01768
-0.51399
-5.73441
0
-4.89712
-4.10744
-0.482936
0
-3.95711
0
-8.12368
0
-2.8877
0
-4.82049
-0.383361
-1.61211
-1.58215
-8.29414
-4.02053
-0.923293
-0.111817
-6.2061
0
-1.79989
-2.021
-3.0536
-0.124812
-1.10475
-7.02838
-1.88537
-2.21735
-0.739865
-5.0189
-1.27387
-5.9255
0
-0.0480214
-0.866565
-1.51616
0
-1.21739
-0.0667262
-7.17413
-1.73452
-5.47841
-0.599135
-5.825
0
-3.63694
-0.583876
0
-1.85188
-1.96247
0
0
0
-0.999234
-1.83722
-2.63199
-0.0239253
-2.96155
-7.11964
-3.35879
-5.10347
0
-6.72581
-6.08388
-2.14699
-2.49454
-0.378714
-9.72458
0
-4.65433
-3.55375
-3.17493
-0.522353
-3.77588
-1.45809
-0.641437
-6.36108
0
0
0
-5.21397
0
-0.0526269
-1.98848
0
-5.77201
-1.19931
-4.80655
0
-3.32984
0
-7.20305
-3.78034
0
0
-0.99329
0
0
-7.73331
-1.24195
0
-3.83415
-3.8664
-1.94581
-2.00201
0
-5.85064
-1.00602
-5.13453
-1.98912
-4.41932
-2.2914
-1.39281
-6.02439
-0.125056
-3.68364
0
-1.15477
-0.269002
0
-5.27609
0
-6.09152
0
0
-0.968547
-3.36169
-2.78265
-2.35785
-0.235244
-3.83275
0
-1.10074
0
-0.473209
-0.463459
-0.196327
-1.06287
0
0
-3.15773
-0.300594
-1.56759
0
-5.03039
0
-0.462676
-5.00234
-0.0151917
-4.80223
-9.59186
-4.28725
-1.21026
-2.81265
0
-0.0173587
-2.82707
0
-1.71529
0
-1.27433
-7.27122
-1.86065
-6.57833
-1.18465
-2.07089
0
-0.565678
-3.17153
-2.9507
-1.02812
-2.38965
0
-1.59182
-6.76865
-3.91162
-0.394586
-6.27304
0
-4.06356
0
-0.056366
0
0
0
-8.33656
-2.79679
-7.60345
-1.76982
-6.9483
-4.22818
-7.64242
-0.535212
-2.36081
-0.0261859
-2.73392
-0.00845495
-0.0125049
-3.36831
-0.681378
0
-2.99391
-1.78606
-0.509292
-1.40531
-6.19846
-0.992393
-2.26408
-1.45548
-2.72783
-3.33255
-0.25932
-3.05655
0
-0.942378
0
-5.08296
0
-2.75602
-0.693757
-3.15041
-1.45469
0
0
-5.79173
-1.10332
-5.74308
-0.16963
-5.79098
-1.4319
-3.1628
-0.924516
-2.68051
-1.66249
-2.31832
-2.31455
-0.354438
-0.478557
-6.54219
0
-0.431856
-1.922
-0.764021
-8.60758
-3.72971
-1.52456
-3.07984
-0.894928
-0.287386
0
-0.36161
-1.00657
-5.72809
-1.08667
-4.44334
-1.67261
0
-6.52156
-0.0941182
-4.14568
-3.18026
-3.08428
-1.6749
-4.612
-3.02996
-7.50997
-1.32857
0
-3.48882
-2.71171
-1.67058
-2.89548
-4.02218
0
-4.82476
-0.0499171
-10.1966
-1.76113
-0.989357
0
-2.13731
-2.62719
-6.01282
-1.71003
-1.01267
0
-3.22196
-0.0410921
-1.13063
0
-0.154619
-4.0178
-1.32201
-1.32917
-3.14596
-1.29015
-1.68248
0
-2.48224
-2.29279
-0.748713
0
-5.93165
-1.02268
-0.893535
-0.55352
-3.70714
0
0
-2.65122
0
-2.47226
0
0
0
-3.46552
-5.94566
0
0
-3.93971
0
-0.682456
0
-3.65464
-3.61825
0
-1.31541
-4.53271
-1.79713
-4.1774
-0.846402
-0.0852022
-0.607225
-2.76824
-1.40122
-0.602965
-3.12129
-0.387584
-0.0292351
-6.60655
-0.0262542
-3.79943
0
0
-0.0442765
-1.39459
-1.93188
-3.70248
-1.73886
-1.67015
-0.796803
-1.09847
-1.93064
-0.987815
-0.227104
0
-2.54965
0
-5.63027
-2.45619
0
-5.91465
0
0
-2.37804
0
-5.21292
-0.136676
-2.64312
-0.0348327
-0.599687
0
-6.26708
-4.94279
-4.59381
0
-0.118664
0
0
-2.26147
0
-1.36199
0
-5.56718
0
0
-0.241099
-1.67911
-1.47819
0
-1.08361
0
-2.1258
-2.40851
0
-0.401038
0
-7.04859
0
-4.38232
-0.908537
-0.0197757
-4.19045
-1.32312
-0.764577
-3.55072
0
-1.39299
-5.64091
0
0
-3.79354
-0.899251
0
-1.03354
-5.0298
-0.967267
-8.80419
-0.301774
0
-1.83897
0
-0.223128
-9.21144
-0.550155
-6.48411
-8.37395
-1.97156
-6.46996
-1.4375
-0.525211
-7.52508
-4.33572
-0.971152
-1.18328
-1.50208
0
0
-0.775302
-1.23511
-1.52563
-1.00974
-0.44819
-3.05314
-3.5797
-6.00951
-0.454843
0
0
-0.805593
-2.28263
-0.424055
0
-4.23963
-3.06241
-2.61279
-1.23556
-2.80903
-1.06687
0
-8.52781
-2.15551
-6.92824
0
0
-7.75611
-1.85834
-2.50357
0
-0.209782
-2.31805
-3.62548
0
0
-2.03211
-2.90547
-0.119966
-4.50355
0
-0.557497
-6.4105
-3.36448
-7.1176
-1.73946
-7.36878
-1.21891
-5.69285
-2.94701
-3.94293
-3.99393
0
0
0
0
0
0
0
0
0
0
0
0
0
0
0
0
0
0
0
0
0
0
0
0
0
0
0
0
0
0
0
0
0
0
0
0
0
0
0
0
0
0
0
0
0
0
0
0
0
0
0
0
0
0
0
0
0
0
0
0
0
0
0
0
-0.300996
-1.93935
-0.0963405
-0.766646
-0.126694
0
-0.738207
-0.638242
0.0831389
-0.575697
0
-1.69824
-2.10055
0
-0.736438
-0.184861
-0.2732
-1.87616
0
-1.34635
-1.08959
0
-0.922594
-0.424226
-0.954158
-2.21409
-0.273247
-1.00641
-0.56617
0
-1.42313
-0.89047
-0.900084
-0.434633
0.0252637
-3.94204
-4.6372
0
-5.59535
-2.71959
-1.20859
-2.80137
0
-0.22103
-2.35128
0
-0.799242
-1.5601
-1.6507
-2.76676
0
-1.14613
-0.184967
-0.0138741
-1.65463
-0.0735469
-0.0721822
-3.0091
-0.260159
-1.99861
-1.49259
0
-0.387505
-0.636696
-2.42404
-8.40516
-3.64529
-7.13775
-8.3181
-0.358533
-5.53125
-5.50097
-6.2363
0
-5.11209
-4.31264
-1.01801
-3.7857
-1.10015
-2.17734
-1.97385
-3.18256
0
-0.0686917
-1.07153
-6.419
-3.70007
0
-1.26754
-4.12387
-1.31432
-4.04288
-5.14719
-0.174716
-4.09988
0
-1.75835
-1.36303
-0.638445
-0.414084
-13.8643
0
-7.04751
0
-0.0348875
0
-2.63251
-1.59449
-2.00265
-1.53449
-4.32563
-4.376
-1.4318
-3.77
-0.130016
-0.912778
-4.60384
-1.0521
-0.538799
-0.882122
0
-2.30053
-1.80636
-4.64916
-3.39672
-2.65797
0
-0.211568
-0.173248
-0.0298265
-1.639
0
-1.69937
0
0
-5.80023
0
-0.0984686
-0.809917
0
-4.54726
0
-1.23711
-0.54728
-0.520831
-0.523652
0
-0.794222
-1.53848
-0.502925
-0.298729
-3.17488
0
-2.38915
-0.55861
-0.498557
-5.90068
-0.405259
-1.62446
0
-0.797871
0
-4.60519
-0.00894498
-4.02064
0
0
-0.377342
-2.13598
0
-0.146073
-2.91647
-0.589892
0
0
-0.789594
-0.635351
0
-6.40993
-0.462379
-0.715248
-0.793405
-0.958011
0
-5.12465
-0.395835
0
-0.803496
-4.80165
-1.68028
-0.0279776
-1.42557
-0.122391
0
0
0
-3.46398
-5.35357
-0.369426
-1.59618
-1.99374
-0.34612
-3.41387
-1.71452
-1.71669
-4.34645
-1.00049
-0.859797
-2.76575
-2.81571
0
-0.301487
-7.12915
0
0
-0.144843
-3.48291
0
0
-2.5846
-1.92782
-2.14684
-1.94105
0
-4.63551
-1.80168
-2.2668
-4.09987
-1.78016
-6.64255
-2.64311
-2.75738
-1.94075
-4.3938
-0.751586
0
-2.26199
-1.47726
-1.21839
-0.538871
-6.14793
-0.560012
0
-2.12045
-0.97893
0
0
-3.85143
0
-0.871862
-1.85774
-0.0467493
-2.32853
-2.6667
-0.865248
-4.85694
0
-0.22305
-2.64561
0
-3.92644
0
-0.376601
-0.806238
-0.967504
0
-5.48132
0
-2.41146
-2.03036
-1.78316
-2.64431
-0.207284
0
-3.11416
-5.68205
0
-5.14939
0
-2.17638
-0.672117
-5.24119
0
-3.54458
-1.44028
-2.80414
0
-2.47984
-3.42702
-0.201206
-0.790587
-3.43131
-0.910132
0
0
-3.54648
-0.560167
-1.54499
-4.63575
-0.673313
-1.54987
-0.878453
-1.61888
-0.631258
0
-0.0755631
-1.29172
-4.23593
0
-0.427225
-0.558033
-2.68155
-1.08347
-1.75231
0
-2.4348
0
-0.515429
-1.25084
-1.27708
-0.720851
-3.8885
-0.235319
-1.69018
-10.8896
-1.89278
-0.261748
-7.45242
-1.35532
-5.00058
-6.71932
-2.38041
-11.9538
-4.02298
0
-4.8444
0
-1.07512
-5.82977
0
-1.37434
0
-0.0103269
-2.18228
-3.97924
-0.784363
-5.78622
0
-2.7413
-0.971964
-1.61645
-2.33766
-6.45613
0
-2.13581
-1.70491
-5.68063
-1.11123
-4.05947
0
0
-3.8715
-0.661739
-2.09481
0
-10.592
-0.874607
-6.79993
-2.91019
-7.91838
-0.677747
-1.37888
-1.809
0
-2.05873
-2.74419
-4.77271
0
0
0
-4.88142
0
-3.15364
0
0
-4.75324
0
-0.378807
-0.155123
-3.11687
-10.2126
-4.27882
-11.1204
-0.593501
-4.3945
-2.52174
-2.83377
-1.20736
-0.614021
-2.23623
-3.65397
0
-0.767162
0
0
-0.324145
-0.154217
-4.44727
0
-6.27617
-1.2881
-2.39102
-3.17255
-2.16716
-1.85513
-8.00601
-3.37022
0
0
-4.26782
0
-5.13891
0
-5.74632
-1.06852
0
0
-4.6595
-1.49547
-3.19339
-1.70242
0
0
-5.68655
-4.79558
-5.95797
0
-2.29862
-1.61168
-1.39381
-1.63381
-1.6701
0
0
-6.75856
-0.762055
-4.91498
-0.0660972
-2.73475
-7.56828
0
-0.760918
0
-0.835813
-3.47039
0
-0.343346
-0.479179
0
-4.9628
0
-0.304672
0
-2.07407
-1.27452
-2.91805
-2.89371
-5.05072
-3.86377
-1.68137
-1.0704
-0.176672
-8.13835
0
-2.97634
0
-2.28743
-2.49961
-0.995433
-5.86307
-0.137227
0
-0.6298
0
0
-1.14941
-2.57894
-1.93057
-2.56416
0
-2.68728
-0.950454
-1.351
-1.94078
-10.4351
-0.940153
0
-4.71174
-0.564745
-3.06653
-0.601668
-2.50842
-2.57973
-4.53349
0
-4.30259
-4.32949
-3.98579
-0.489562
0
-4.20056
-0.721833
0
0
-5.9834
-7.35961
-7.34054
-8.6615
0
-7.10425
-0.156083
-6.57635
-2.20772
-8.01872
-1.99586
-1.49205
-2.33789
-2.71037
0
-1.4455
0
-5.87686
-0.104924
-2.45441
0
-8.09168
0
0
0
-0.65812
0
-4.34279
-0.479794
-4.44492
-3.47249
0
0
0
-5.25308
0
-1.79094
-3.00513
-2.11799
-3.49523
-1.11316
0
0
-3.22717
-5.67534
-0.0445479
-1.90823
0
0
-0.546134
-2.46457
0
-3.88978
-0.108943
-1.89261
-1.09221
-7.16892
-0.734321
-0.480207
-2.99653
-0.466512
-2.14786
0
-3.74967
-0.0817071
-8.65963
0
-4.0632
-0.741325
0
-6.31289
0
-5.20513
0
-4.54294
0
-0.202745
-4.29096
-0.793495
-2.07664
-1.06906
-5.73788
-0.256495
-1.92593
-3.83714
-1.58269
-2.83567
-1.32117
-6.99268
-1.72158
-0.112472
-7.66557
0
0
-3.29997
-4.96891
-3.35488
0
-5.7161
0
-0.75597
0
-3.85313
0
-2.44713
0
-0.483873
0
-5.73058
-2.04147
-1.38476
-5.55544
0
-4.08854
-0.421071
-2.8188
-1.31644
0
0
-2.78007
-0.272888
-4.02715
-4.42917
-0.799852
0
-4.41452
-0.392323
-1.88452
-2.30148
-9.17399
0
0
0
0
-3.67921
-3.19858
-4.46749
-6.22352
-1.65814
-3.95799
-7.04551
-0.565272
0
-0.737549
-1.55793
-1.17174
-3.87763
-5.49859
-2.06052
-6.32409
0
-1.92033
-0.991233
-5.90912
-1.15673
-6.13946
-6.43944
-1.8865
-7.38701
-8.14874
-3.54362
0
0
-3.3246
-0.605966
0
-0.806658
-0.942889
-1.94016
-2.98522
-3.25167
-3.70209
-3.62631
-3.26971
-7.22809
0
0
0
-3.50533
-3.9857
0
0
-4.96039
-0.777011
-3.40657
-0.161661
0
-5.79227
-2.3119
-3.64231
0
-2.07243
-1.23576
-4.42836
0
-1.10094
-9.00983
-4.42121
-6.56712
-1.24546
0
-1.6867
-0.0606293
-3.26402
-1.11658
-2.88587
-0.261055
0
-1.23009
-0.812807
-5.9722
-6.66174
-7.43835
0
-7.68677
-1.11938
-4.63993
-1.75204
0
-3.15701
-0.0111053
0
0
-4.42251
-0.702932
0
-3.88676
-0.63393
0
-2.26567
-0.602875
-1.43631
-0.289518
-1.95903
-7.67579
-0.0401223
-5.88836
-1.79069
0
-3.63459
-0.0886784
0
-2.51673
0
-8.8568
0
-6.68123
-2.53284
-1.56745
0
0
-2.84961
0
-8.64411
0
-0.525676
-2.52439
-3.95935
-0.454129
-0.453789
-2.2132
0
-0.0883111
-4.76659
-5.83774
0
-8.07632
0
-7.30891
-0.752356
-4.37772
-4.65664
-1.02383
-10.692
0
-3.46251
0
-8.58492
-0.454134
-2.75731
-4.27647
-2.47487
-3.36089
0
-3.22406
-2.35797
-1.76147
-6.09289
-1.65085
-4.63663
-4.27328
-2.7247
0
-6.52649
-1.33114
0
0
-3.08304
0
-4.57363
-0.872875
-4.30251
-0.314766
0
0
-1.09649
-7.56916
-1.76724
-0.264921
-0.786294
-4.11645
-0.588489
-7.7819
0
-4.33736
-2.44314
-4.84753
0
-7.15547
-1.22217
-5.00065
-0.0797133
0
-4.8127
-2.45574
-1.28173
-4.06403
0
0
0
-2.80515
0
-2.34096
-5.57345
0
-3.04951
-1.54741
-1.58881
0
-1.8225
0
-2.60697
-1.32328
-0.0927071
-9.19893
0
-9.85138
0
-6.9628
-0.337238
-3.98033
-1.33735
-2.56111
-0.430396
-5.64174
0
-2.70162
-2.16739
0
-0.97752
-0.758359
0
-5.0756
-1.68721
-1.58328
-2.59036
0
-5.10259
-2.09273
-6.76529
0
-5.66395
0
-2.84798
-7.25314
-6.38966
-1.5318
-5.76021
0
0
0
-4.75084
-5.52072
-4.17654
-0.834998
-0.291921
-7.0935
-1.57693
-1.78723
-0.500617
-9.45286
-0.174626