<?xml version="1.0"?>
<VTKFile type="RectilinearGrid">
<RectilinearGrid WholeExtent="0 32 0 32 0 32" Origin="0 0 0" Spacing="1 1 1">
<Piece Extent="0 32 0 32 0 32">
<PointData>
</PointData>
<Coordinates>
<DataArray type="Float32" format="ascii">
0 0.524874 1.04975 1.57462 2.0995 2.62437 3.14924 3.67412 4.19899 4.72386 5.24874 5.77361 6.29849 6.82336 7.34823 7.87311 8.39798 8.92285 9.44773 9.9726 10.4975 11.0224 11.5472 12.0721 12.597 13.1218 13.6467 14.1716 14.6965 15.2213 15.7462 16.2711 16.796 
</DataArray>
<DataArray type="Float32" format="ascii">
-5.03879 -3.62163 -2.20447 -0.787311 0.629849 2.04701 3.46417 4.88133 6.29849 7.71565 9.1328 10.55 11.9671 13.3843 14.8014 16.2186 17.6358 19.0529 20.4701 21.8872 23.3044 24.7216 26.1387 27.5559 28.973 30.3902 31.8074 33.2245 34.6417 36.0588 37.476 38.8931 40.3103 
</DataArray>
<DataArray type="Float32" format="ascii">
0 0.524874 1.04975 1.57462 2.0995 2.62437 3.14924 3.67412 4.19899 4.72386 5.24874 5.77361 6.29849 6.82336 7.34823 7.87311 8.39798 8.92285 9.44773 9.9726 10.4975 11.0224 11.5472 12.0721 12.597 13.1218 13.6467 14.1716 14.6965 15.2213 15.7462 16.2711 16.796 
</DataArray>
</Coordinates>
<CellData>
<DataArray type="Float32" Name="Scalar" format="ascii">
0
0
0
0
0
0
0
0
0
0
0
0
0
0
0
0
0
0
0
0
0
0
0
0
0
0
0
0
0
0
0
0
0
0
0
0
0
0
0
0
0
0
0
0
0
0
0
0
0
0
0
0
0
0
0
0
0
0
0
0
0
0
0
0
0.296344
-0.594679
0.0610052
0.285706
0.202835
-0.0937888
-0.664365
-0.448868
-0.369395
-0.115493
0
-0.238688
-0.587964
0
-0.403632
-0.3195
-0.0270268
-0.0844909
0
-0.19198
-0.990552
0
-0.60077
-1.01503
0.344059
0.401109
0
-0.0530648
-0.391641
-0.0832684
-0.451855
-0.9799
-0.312421
-0.242583
0
-0.536501
-0.81615
-0.286193
-0.9762
-0.0995056
0
-1.0069
0
-0.432004
-0.723329
0
-0.649247
-0.394818
-0.572024
-0.720527
0
-0.534854
-0.851627
0
-0.720545
-0.118301
-0.633314
-1.99146
0
-0.521744
-0.496929
0
0
-0.477075
0
-2.7424
0
-4.96075
-3.30889
-0.884099
-0.044748
0
0
-1.76379
-2.05326
0
-2.82839
0
-2.13039
-2.71201
-4.16308
-6.53501
-0.212418
-1.30738
-0.557623
-0.743651
0
-2.54901
-2.76167
-2.56843
-4.10839
0
-0.042428
0
-6.41031
-0.324559
-4.56208
-0.428606
-3.7773
0
-3.71423
0
-2.34862
-0.751617
-2.41432
-5.07781
0
-1.95515
-5.10239
0
-2.21824
-2.19835
0
-7.24343
-1.4426
-2.77648
0
-1.03694
-3.04958
-0.898696
-1.4138
-1.98901
-5.17484
-1.66061
-1.08928
-0.214856
-3.9584
0
-6.47633
-1.0046
-10.3596
0
-2.09896
0
-4.97455
-0.749971
-4.35412
-0.538468
-4.52377
0
0
-4.81356
-1.61146
-1.44262
-0.792288
-2.62217
0
-8.62076
-1.23991
-1.78551
-9.76972
-1.01583
0
0
-2.12355
-4.71456
-0.369008
-1.31249
-7.17201
-2.00963
-1.08733
-2.64122
-1.10718
0
-2.60078
0
-0.702891
0
-7.10337
-7.4106
-2.70409
-1.55498
-3.75223
-4.20577
0
-4.10835
0
0
0
0
-5.65399
-1.60286
-8.91927
-0.231791
-4.41727
-1.98267
-1.47895
-2.11933
-6.00593
-3.80167
-3.59903
-4.51008
-12.2919
-1.61738
-4.72074
-4.02223
-2.80569
0
-3.95617
-0.849635
-4.60045
0
-2.48088
-0.678926
-1.46915
0
-2.56043
-2.83901
-5.68603
-0.614115
-1.62921
-6.17456
-0.735448
-1.11378
-4.85227
-2.2119
-4.37408
0
-0.203635
0
0
-2.29327
-10.466
-5.69847
-3.31545
-1.39481
-5.23693
0
-1.40417
0
0
-0.963981
-3.63721
-1.24068
-3.2109
-2.66926
-1.663
-0.676613
0
-1.10327
0
-7.48957
0
-4.91386
0
-0.212139
0
-2.72106
0
0
-4.30006
0
-0.185497
-3.13295
-1.33781
0
0
-2.99133
-1.83446
0
-2.5985
-3.08458
0
0
0
-3.18007
0
-0.357456
-1.61164
-0.79442
-2.54335
-0.473604
-0.92318
0
-0.255972
-0.9
-1.89791
-1.41474
0
-0.517873
-0.889811
0
-5.57764
-0.0438594
-4.57162
-1.09639
0
-2.99426
-3.96084
-2.07055
-1.28377
0
-1.29197
-5.44138
-5.89758
-0.636297
-5.15066
-0.381265
-2.49968
-3.55228
-0.478614
-0.42673
-1.84102
-1.63122
-0.418597
-2.18184
-1.80344
-1.35058
-0.369344
-0.610265
0
-3.77217
0
-3.52071
-2.44949
-2.14338
-0.500012
-0.834067
-6.92826
-0.205663
-9.88885
0
-9.66773
-1.47715
-5.36399
-1.13903
-0.488011
0
-2.11992
-5.72631
-0.214082
-2.79181
-0.740521
-3.81734
0
-4.32183
0
-1.06687
-4.51855
-2.38331
-5.23629
-0.527107
-0.909944
0
0
-5.05971
0
-0.38718
-1.91859
0
0
0
-3.58034
-1.62665
-1.24339
-3.33924
-1.09445
0
-0.936612
-6.82999
-3.03869
-1.63073
-0.707901
-2.13649
-0.596518
-2.91621
0
-0.309971
-5.46014
-1.99272
-1.77669
-1.77946
-8.03511
0
-7.9661
0
-0.175397
-2.04297
-2.32587
-4.02259
-1.04994
-2.12635
-3.70377
-2.72675
0
-0.323282
-0.508336
0
-1.52941
0
-0.0894468
0
0
-3.06181
-0.21404
-4.02089
-1.55238
-3.4139
-3.25361
-2.15405
-2.43652
-0.0644879
-0.99778
-0.151566
0
-2.21926
-0.530366
-3.99392
-3.31718
0
-5.00526
-1.97116
-4.93266
-2.11069
-6.78174
-2.31725
-1.65172
-1.19453
-3.05897
-2.91316
-5.06214
-0.364665
0
0
0
-8.86065
-2.03716
-0.125575
-1.93077
-4.70694
-4.76243
-2.53355
-3.27333
-4.8315
0
-5.07066
-1.276
-3.56288
-0.743051
-5.73046
0
0
-0.0780936
-0.350583
-2.435
-2.80642
-1.12971
-4.84232
-0.394598
-3.77542
-4.56431
-0.633486
-1.8462
-0.945426
-3.74771
0
-1.104
-1.91913
0
0
-0.805848
-3.57065
-0.361346
-3.8677
0
-0.792044
-4.6429
0
0
0
-3.15612
0
-0.47424
-0.769205
0
-1.93752
-3.59866
0
-0.221732
-0.6365
-7.69394
-3.68346
0
-0.0106893
-5.85723
-0.614787
0
0
-6.17823
-1.68151
0
-1.18829
-2.671
-3.42888
-0.0108079
-1.68071
-5.00022
0
-3.20838
-7.17642
-0.306009
-6.44104
0
-0.628276
0
-8.47627
0
-7.32162
-0.683853
-0.83946
-1.46343
-10.7726
0
-5.78022
-0.0389662
0
-5.92354
-0.673227
0
-4.49982
0
-7.37864
-2.51299
0
-0.810306
0
-3.92908
-3.9067
-5.15718
-2.38616
-0.605222
-0.0773696
-6.32399
-0.190199
-6.67009
-1.45142
-2.60939
0
-4.88092
-0.826574
0
-0.406606
-3.54839
-0.338709
-2.72327
-5.42693
-1.7766
-4.93086
0
0
-2.04252
-4.15864
0
-0.500893
-3.2058
-2.40343
-0.842869
-3.31003
-0.179853
-2.84007
-4.16056
-1.25505
-2.13473
-4.02961
-3.04159
-2.49296
0
-1.0394
-0.964698
-3.74329
-0.225521
-0.12809
-2.96536
0
-1.01342
-5.71248
-0.394412
-8.70841
-0.640526
-0.734788
0
-3.05925
-4.83156
-6.16233
-3.21142
-4.08333
0
-6.53221
-1.50342
-0.373472
0
0
-0.0435688
-0.23982
-6.64577
0
-4.15335
0
-5.87393
-1.21707
-2.79079
-2.17605
0
-0.2278
-1.20427
-2.06379
-5.65951
-3.35292
0
0
-12.0357
-0.73646
-9.15742
0
-4.00603
-5.09328
-3.14265
-1.59614
-1.94407
0
-1.13549
-7.24499
-0.6927
-0.693784
-1.3279
-1.98138
-0.783444
-0.505526
-0.646144
-6.85572
-4.92636
-0.497252
-2.08516
-0.0692936
-5.46235
0
-0.883413
-4.33565
0
-7.38729
-3.70392
0
0
0
-3.96038
-0.0800931
-1.9377
-4.55196
-4.96104
-6.19379
-0.389891
-3.73284
0
-0.754249
-0.685208
-8.64376
0
-5.84621
0
-7.67887
0
-5.1766
0
0
-5.45274
0
0
-7.43578
0
-1.69363
0
-0.50785
-0.366761
0
-9.66098
0
0
-0.203524
0
-3.96171
-2.78937
-0.374056
0
-0.164928
-4.00412
0
0
-0.315605
-1.96597
-1.14414
-4.0959
-0.630439
-4.43446
0
-4.38242
-2.07883
-1.25747
-2.20258
0
-0.9375
-1.99832
-3.65837
-0.799704
-3.82827
0
-2.79752
0
-0.289047
-9.72045
0
-0.3287
-0.763003
-0.767042
0
-2.95878
0
0
-1.08707
-1.72943
0
-1.417
-0.464851
-2.34339
0
-0.955721
0
-0.040858
-0.588427
0
-0.874036
-6.12545
-1.71589
-7.3382
-7.79283
0
-1.74969
0
-1.89121
-0.798156
-0.422512
0
-0.532487
-0.159401
-1.36889
-0.902118
-0.909905
-2.48759
0
-6.30536
0
-8.7697
-0.414108
-0.407724
-2.51132
0
-2.67433
-1.40593
0
-2.31608
-2.27399
-5.88995
-2.39137
-1.48035
-1.28608
-4.05392
-0.583581
-1.80853
-1.21261
-0.497209
-6.78835
0
-5.87883
0
-1.31945
0
-2.17782
0
0
-1.76244
0
-6.33289
-0.459188
-1.5974
-3.43675
0
-0.556319
-4.60425
-5.01459
-1.55613
0
-1.47992
-2.1955
-0.156534
-9.16119
-0.252268
-1.88134
-1.6813
-1.79655
-6.12388
-5.37714
-1.20063
-6.81592
-1.2872
-3.94245
0
-3.93357
-0.129859
-1.22092
-6.13479
-3.61416
-2.88666
-7.04443
-0.5363
-0.8948
-0.694086
0
0
-1.76171
-0.884117
-5.94781
-1.49394
0
-0.112063
-1.31662
0
0
0
-4.43527
-7.81617
-1.3958
0
-0.454822
-6.66347
-0.170131
0
-2.05596
0
-2.49637
-0.849398
-5.68512
-0.734103
-0.814672
0
0
-7.02021
0
-3.10256
0
0
-5.92403
-0.498875
0
-3.19507
-2.54877
-4.39172
0
-8.8694
-1.43986
-3.13034
-1.82124
-0.0763429
-4.23599
0
0
-0.688378
-5.67881
-2.14113
-4.87893
0
-8.5795
0
0
-6.21115
-1.12217
-9.65097
-0.60692
0
-0.549282
-4.40393
0
0
-4.20521
0
-3.04185
0
-1.38542
-3.76752
0
0
-0.04302
-6.89475
0
-0.852302
-5.60263
-3.00361
-7.93105
0
-4.49105
-2.56065
-9.1559
0
-4.36393
-1.25032
-8.21052
-2.85957
-0.312956
0
0
-4.50421
0
0
-5.02404
-1.23178
-0.129191
-2.4012
-0.373322
-4.39011
-4.58226
-1.29449
0
-0.827552
0
-1.4349
0
-1.88253
0
-0.556822
0
-7.89136
0
0
-3.76102
-0.843655
-3.14006
-4.41612
-1.98322
-0.942733
-0.0408153
-5.43983
-1.50332
-3.37486
-2.44035
-3.66878
-6.43815
-1.19518
-4.26317
-2.31135
-0.6241
-0.108844
-1.13631
-2.95912
-1.00583
-3.13148
-2.76736
0
-3.66887
0
-2.41357
-2.54517
-2.03565
0
0
0
0
0
0
0
0
0
0
0
0
0
0
0
0
0
0
0
0
0
0
0
0
0
0
0
0
0
0
0
0
0
0
0
0
0
0
0
0
0
0
0
0
0
0
0
0
0
0
0
0
0
0
0
0
0
0
0
0
0
0
0
0
-0.287532
-1.46871
0
-1.75983
-0.929487
-0.330915
-0.52258
-0.292071
-0.664641
-1.35491
0.0601546
-0.616241
-0.438847
0
-2.27519
-2.05248
-1.64963
-1.46495
0
-1.71789
-2.94645
0
-2.34666
-0.643772
-0.0312847
-1.63623
0
-0.764081
-1.33123
0
-1.62456
-0.555795
-0.0685767
-1.34466
0
-1.55974
-2.42447
0
-0.206647
-1.5587
-0.457749
-0.145109
0
-1.55905
-0.941725
0
-2.39432
0
0
-2.00137
0
-0.767557
-0.664053
0
-1.28591
-1.38265
-2.72538
-0.0984142
0
-2.81906
-2.31148
0
-3.2487
-0.402342
-4.69561
-4.87541
-4.40297
-4.00901
-0.573375
-0.831953
-6.80963
-2.08107
-6.57843
-4.0698
-0.686801
-3.5353
-3.07239
0
-3.60405
-4.25777
-1.5299
0
-0.0369357
-3.30544
-2.79456
-2.91556
-4.86268
-1.52421
-0.0125843
-3.70189
-0.877617
-3.92934
-4.71013
-0.7276
-3.01233
-3.64394
-0.992905
0
-0.190261
-2.37003
-1.28975
-4.68701
-0.347389
-3.66505
-0.563672
0
-1.79427
-1.54293
-5.67211
-1.28375
-4.15591
-2.28967
-1.86865
-1.16451
-0.48202
-4.71281
-3.60979
-6.84344
-0.228125
-1.40679
-2.06142
0
-3.36239
0
-7.99567
-2.79104
0
0
-0.906801
-0.267274
0
0
-1.79269
0
-0.983452
-0.750423
-1.51106
-2.36233
-3.96033
-2.97183
-6.82701
0
-2.18956
-3.7722
-3.18103
-1.65385
-0.559737
0
-6.43055
-0.628244
-5.61024
0
-9.05157
-4.78592
-2.46935
-0.891894
-1.7402
-1.09952
-1.576
0
-0.218003
0
-0.220469
-4.44942
-5.01838
-4.98458
-1.139
-5.33878
-0.580975
0
-1.59741
-7.48845
-0.346279
-1.421
-2.33335
0
-4.77431
0
-6.18682
-2.91754
0
0
-0.285189
-0.340624
-3.78557
0
0
-8.4185
0
-0.690153
-1.69582
-0.0521912
0
-7.68103
-6.79165
0
-5.83182
0
-1.54577
-1.59023
-5.66953
0
-8.11375
-0.98865
-2.30115
0
-2.56683
-0.278711
-2.21732
-0.325236
-2.69491
-1.45686
-2.83149
-1.01058
0
0
-4.62994
-1.04941
-4.12852
0
0
-3.19749
0
0
-5.66362
0
-0.823037
0
-4.34375
-2.36388
-3.56811
-0.0245221
0
-2.94103
-0.378258
0
-4.9413
-0.528321
-4.7664
-1.77163
0
0
-0.954186
0
-0.0349533
-3.51
0
-1.96448
-3.59572
-4.69586
0
-3.07105
-7.48916
-1.85352
-3.90843
-5.67255
-1.91043
-0.489709
-1.27693
-2.52897
-4.17127
-2.73573
0
-3.74917
-4.27547
-2.38059
-2.59519
-2.9418
-2.43854
-2.59553
-0.445115
-1.77757
-0.453966
-0.018533
-5.62835
-0.266232
0
-1.96984
-2.64099
-4.27416
-5.37363
-1.35487
-2.67737
-0.547968
-0.0364554
-0.407535
-5.00958
-0.508537
0
-0.0883515
-0.0654328
-4.28096
-0.53866
-0.370031
0
-4.41578
-0.0305288
-3.41539
-0.117038
0
-1.38304
-5.56972
0
-1.9315
-0.496081
-2.07185
0
0
-0.611202
-2.08359
-0.855882
-1.18913
0
-2.68756
-2.37897
-3.35372
-0.37767
-2.29239
0
-2.80651
-0.656784
-0.10608
-0.18711
0
-6.69352
-0.751466
-2.42593
-4.125
0
-1.31727
-5.50651
-0.865077
-4.32225
-0.364931
0
-3.74091
-1.03486
-1.21058
0
-0.911566
0
-1.23255
-4.65796
-1.05796
-4.51844
-0.0207426
-2.20626
-0.975835
-3.58738
-7.45844
-0.431786
-4.46271
-0.955941
-0.957315
-0.25011
-1.53167
0
-4.37016
-0.701746
0
0
-1.67274
-2.29647
0
-0.154548
0
-0.76098
-2.61238
0
-1.75046
-1.08094
-3.30505
-1.10553
-5.28899
-1.91047
0
-0.846091
-1.17436
-3.80183
-3.73316
-1.08813
-1.03603
-0.370499
-1.13602
-5.67659
-0.300195
-7.24487
-1.17845
-5.05475
-3.30551
-2.83386
-1.11019
-4.96609
0
-5.85016
-0.0888228
-2.27877
-0.571012
-1.08861
0
0
-0.847965
-1.71329
-0.731609
-4.1224
-3.69214
-1.80246
-1.5794
-3.54287
-3.53808
0
-0.320203
-0.33351
-0.290671
-3.6437
-1.39638
-4.24694
-0.112279
-1.96636
-2.21039
-0.373396
-2.63516
-6.31502
-6.2903
-3.62923
-0.0989398
0
-5.58411
0
-0.871415
-0.375716
-0.0566392
-0.475724
-0.294103
-1.08955
0
-0.301199
-0.836078
-2.5078
-1.31492
-5.05474
-2.06055
-3.00324
-1.88516
-3.87365
-4.26078
-0.154475
-1.35682
-3.4601
-1.88602
-2.39921
-0.041138
-2.69049
0
-1.22698
-2.13173
-5.56819
0
0
-2.41145
0
-0.869533
-0.120127
-2.88661
0
-1.8848
-0.267428
-6.23649
-1.21244
-1.95241
-1.81791
0
-2.24911
-4.27765
-8.98399
0
0
-2.4642
-3.21028
0
-0.896095
-0.434213
-9.27031
-0.290063
-2.04676
-4.00635
-5.62757
-0.987982
-2.43308
-0.673011
-11.6033
-4.28982
-4.54925
-4.6811
-3.60634
-1.38031
0
-3.0927
-2.65505
-0.680791
0
-0.440603
0
-5.36952
-5.06219
-3.32096
-3.70233
0
0
-7.89667
0
-0.489676
-0.335015
-1.12614
-0.73507
-6.31917
0
-0.0843177
-5.60774
-1.30837
-4.77256
-3.28761
-1.24106
-5.9607
-0.0257698
-2.25546
0
0
-0.300448
-0.271463
-4.03413
0
-2.4611
-0.277615
-1.55676
-0.305706
-3.70646
-0.00352686
0
-3.1603
-1.806
0
-0.46366
-5.16296
-1.96401
0
-4.36156
0
0
-7.30528
-0.392835
-3.02872
-4.02165
-3.40251
-2.75863
-3.29865
-3.27992
-3.2539
0
-2.41596
0
-7.23486
0
-2.80035
0
-3.69225
0
-8.71245
0
-3.26081
-0.967
-0.0278777
-2.46509
-0.30548
-1.10531
-2.51645
-3.35602
-2.09988
0
-13.4501
0
-13.9742
-0.448895
0
-1.21556
0
-1.1436
-1.09785
0
-1.58888
-4.97073
0
-4.30683
-1.36366
-0.51224
0
-3.25354
0
-1.51026
-5.06594
-1.19362
-3.38414
-0.914462
-0.105972
-2.96389
-2.84555
0
0
-5.41439
-5.27615
0
0
-2.14364
-0.733312
-1.563
-0.498535
-0.084203
-3.77264
-0.615843
-9.47778
0
-3.83117
-1.35336
-7.49072
-1.87498
-2.54082
-2.96738
-2.21429
-3.52385
-3.54736
-0.58322
-0.437321
-1.35657
-3.03417
0
-11.5888
-0.269623
-3.09503
0
-1.12699
0
0
-6.64206
-1.35881
0
-0.0659645
-7.65502
0
0
-5.83812
0
-0.784184
-0.693929
-2.75534
0
0
-1.17644
-2.07744
0
-5.85899
0
0
-2.30621
-3.75582
-0.736607
-0.284429
-2.98283
0
-6.04605
-3.42733
-5.5849
-6.39773
-2.81845
-1.28944
-0.629843
-1.47574
-3.20544
-1.04808
-0.0418866
0
-5.84567
0
-8.51535
-1.3896
-3.1712
-3.22969
-3.19287
-4.93193
0
-2.95727
0
0
-1.44258
0
-0.0516657
-1.25596
-1.25528
-1.16163
0
-2.51555
0
-1.34366
-1.41793
-1.11968
0
-3.48789
0
0
-3.15894
-0.248961
-10.0347
-2.93665
-4.64295
-3.50564
-5.31793
-0.766083
-4.1453
-0.428558
-3.32106
-0.69056
-2.81344
-4.45592
-0.368311
-7.66471
-4.29436
-6.4934
-2.09913
-4.8103
-3.17609
-3.37289
0
-0.0462406
-2.2696
0
0
-6.32146
0
-6.035
-3.43891
-3.08302
-4.53876
-1.18282
-1.63994
-3.4268
0
-0.380032
0
-3.12442
-1.52857
0
-2.33976
-1.39665
-3.12869
-0.607978
-5.60074
-1.17073
0
-6.58831
-0.092573
-3.3613
-0.734106
-0.500328
-9.49213
-2.86503
0
-4.13481
0
-3.62624
-1.243
0
-2.28544
0
-8.42456
-4.22282
-0.533078
-3.56857
-1.61288
-5.48889
-0.963499
-2.17976
0
-1.51935
-0.875597
-0.719341
-3.44896
-1.0129
0
-2.62747
-2.35628
-0.0313794
-4.04058
-1.23202
-1.01629
0
0
-3.0335
-0.443578
-3.98889
-2.26369
-1.45056
-7.25763
0
-2.11635
-5.0279
-3.03093
-2.79719
0
-1.79652
0
-2.19057
0
-0.736576
0
-5.88745
0
-4.78995
0
-7.82152
0
0
0
-7.20209
-1.07998
-5.79398
-4.1981
-1.27053
-5.44899
-3.1452
0
0
-0.466949
-1.10475
-2.05013
-1.13646
-7.25976
-4.43849
-1.89596
-3.5222
0
-1.84365
0
-6.80051
0
0
0
-0.00215995
-4.68654
-0.232227
-5.92198
-0.599366
-4.41318
-2.70233
0
-1.08932
-0.604783
-0.992456
-1.43275
-0.196793
-1.72099
-4.1484
-1.46053
-1.8895
-8.25861
0
0
-4.54234
0
-0.355458
0
0
0
-7.44452
-1.08863
0
0
-2.0902
-5.12225
-0.120924
-0.728561
-3.22518
-3.51972
-1.28938
-0.602474
-2.00509
-3.37722
0
-1.9825
-2.88265
-7.09295
0
-5.30837
-0.978078
-4.47909
0
-0.616553
-1.12003
0
-4.34106
-1.03223
-3.80602
-4.35724
0
-3.21849
0
-2.43068
-1.97089
-1.27277
0
-3.66625
-0.999215
-0.445266
0
-5.24533
0
-0.850547
-2.75304
-1.09807
-3.00048
-0.861272
-1.27188
-2.41383
-5.20005
-3.83638
-7.4489
-0.292868
-6.36722
-1.99664
-6.18877
-0.563297
-6.30272
0
-2.32243
0
-5.18097
-2.16199
-5.22573
-2.31673
-3.87313
-2.40254
-1.84616
-2.14108
-1.31503
-5.38784
-1.18836
-4.1627
-4.13952
-2.87806
-5.96468
-2.94105
-4.83525
-2.70598
-3.2518
-7.7046
0
-5.64018
-3.91976
-2.99695
-5.59248
-1.17544
-3.61569
0
0
0
0
0
0
0
0
0
0
0
0
0
0
0
0
0
0
0
0
0
0
0
0
0
0
0
0
0
0
0
0
0
0
0
0
0
0
0
0
0
0
0
0
0
0
0
0
0
0
0
0
0
0
0
0
0
0
0
0
0
0
0
0
-0.0198263
-0.127402
0
-0.230267
0.00570996
0
-0.0722103
0
-0.00650925
0
0
-0.0948758
-0.097685
0
0
0
0
0
0
0
0
0
-0.203471
0
0
0
0.00163135
-0.000349801
-0.151315
0
0
0
0
-0.272853
0
0
0
0
-0.279208
0
-0.0481485
0
0
0
0
0
0
0
0
0
0
0
0
0
0
0
0
0
0.00242527
0.000856474
0
0
0
0
-4.16184
-1.06254
-0.140045
-5.54467
-3.46409
0
-3.24023
0
0
-4.62286
0
-3.54285
-0.303058
0
-1.11829
0
-7.46103
-0.563026
-2.03928
0
0
-4.59596
-0.982835
0
-1.57084
-0.821192
-0.823372
-1.72391
-1.50666
-0.101301
-3.41409
0
-4.33997
-0.44627
-2.86875
0
-3.76781
-0.0252875
-7.6068
-0.409038
-5.19866
-0.830691
-1.66777
-1.24257
-1.89008
0
-2.49425
0
0
-7.2649
-4.5212
-0.386629
-4.67867
0
-2.50231
-1.56156
-4.21184
-2.4416
-6.21591
-0.891705
-0.0527937
0
-2.94904
-1.33024
-3.3756
-0.0536743
-1.73424
-1.37905
-1.70812
-1.86462
-5.45669
-0.850616
0
-3.60532
-0.733141
0
-0.715363
-1.49402
-6.48202
-6.40552
-1.3031
-2.89446
-2.64569
-2.9566
-3.88976
-0.300024
-4.3324
0
-3.20662
-3.04747
-1.15998
-2.40432
-1.70489
0
-1.46235
-1.82476
-4.12557
-0.206702
0
-1.89781
-0.786124
-4.78396
-0.351948
-5.09545
-1.27095
-3.47033
-1.51381
-1.21386
-2.4025
-4.66943
-4.37403
-0.921656
-0.865779
-1.41341
-1.79162
0
-1.69074
0
-4.43809
-0.613499
-0.968218
-8.93888
-0.150889
-1.92468
-0.338752
-0.655092
-4.10959
0
-3.38025
-3.56416
-1.37059
-2.34319
0
-1.74327
-7.16589
0
-3.24044
0
-1.40898
-1.35675
-3.00218
0
-0.132866
-0.900651
-4.87202
0
0
-1.10393
-3.35905
-0.770421
-2.2496
0
0
0
-2.28792
-0.289509
-4.36076
-0.601003
-3.35401
-3.47843
-8.23869
-1.76539
-5.73962
-1.05295
-0.62938
-3.09985
0
-3.91736
-2.96538
-3.07066
-1.07512
-7.29186
-0.611999
-3.49464
-1.38527
0
-8.10456
0
-5.64947
-0.304141
-0.411425
-2.06644
-4.68235
-1.33566
0
-1.58699
-3.56335
-5.10793
-0.0924544
-3.44108
0
0
-2.83764
0
-2.79964
-3.97694
0
-0.425004
-4.86255
-4.66876
-0.0336737
-1.46126
0
-1.12862
0
-0.303954
-3.98059
-1.80739
-1.33876
-3.48564
-4.4513
-1.99937
-0.71456
-2.85326
0
0
0
-0.266634
-4.57102
-0.953228
-2.6025
-5.50562
-0.5655
-0.923456
-2.7058
-3.50541
-0.099351
0
-5.145
-1.64901
-0.272304
-0.167261
0
-3.16522
-0.324428
-8.45156
0
-2.54884
0
-2.44335
-2.37317
-0.241927
-0.255686
-2.1736
0
-0.410813
0
-3.45598
0
-0.438461
-3.69768
0
-0.865771
-1.07416
-3.87529
-0.816443
-0.263155
-1.70804
-1.87153
-0.544131
-0.0803595
-7.17807
-2.31778
-0.883073
-6.9682
-2.5048
-3.29976
-1.06281
-1.12502
0
-8.1839
-0.776042
-2.13488
-7.16495
-2.23528
-5.75984
-2.55005
-1.98826
0
0
0
-1.46513
-0.713435
-2.05032
-0.160816
-1.91197
0
-0.807483
0
-6.75628
-1.24415
-4.08604
0
-6.14865
0
-5.11739
0
-0.845681
-0.0547308
-6.55335
-2.67692
-4.01038
-3.44229
-1.77584
-1.68408
-5.39785
-0.474972
-3.66672
-3.26889
-3.92906
-5.39546
-5.14361
-6.95282
0
-2.14734
0
-1.61802
-0.886638
-4.01069
-0.611263
0
-0.732036
-0.275325
-2.23319
0
0
-7.60661
-0.267025
0
-0.369238
0
0
-3.0211
-1.75188
0
-2.39668
-1.99061
-1.34132
-1.73751
-1.33428
-1.58307
-1.45444
0
-3.93513
0
-0.0591353
-7.50743
-1.06779
-9.41054
-1.97056
-0.135253
-3.25656
-0.141879
-3.06138
-1.8265
-1.93081
-3.88586
0
-1.06719
-1.22942
0
-7.77738
-0.635481
0
-0.749963
-3.95179
-0.291318
-3.26508
0
-1.33169
-4.3021
0
-0.126245
0
-0.801005
-1.20911
-0.288105
-0.555782
-3.4792
-0.242308
-2.38281
-2.18048
-1.20337
-5.21674
0
0
-4.94271
-2.78001
-2.86381
-0.100418
-3.43581
-2.62088
0
-4.96854
0
-3.57965
0
0
-2.74411
-4.27143
0
-5.74952
0
0
-0.737837
-9.34421
-4.42152
-8.92394
-1.61553
-0.579716
-1.22206
-1.16102
-3.4287
0
0
-2.66288
-2.52652
-3.29958
0
0
-3.90964
-3.15144
0
0
-4.30473
-0.161786
0
-0.119557
-7.7243
0
0
-3.65422
-1.84578
-3.46679
-0.168593
-5.07067
0
-5.50789
0
-1.94286
-1.86341
-2.41488
0
-7.11011
-0.0480188
-1.26996
-2.6686
-5.50754
-2.75206
-3.5437
-1.84258
-0.701131
-0.942399
-5.02953
0
0
0
0
0
-1.73683
-0.802852
-0.793245
-0.639079
-2.27913
-8.02091
-2.96775
-1.12831
0
-6.29382
-4.50177
-1.31379
-5.9869
-2.32326
-4.63565
-2.46064
-1.30835
-7.84893
0
-3.64625
-1.09767
-0.953248
-1.50162
-3.12519
-3.46884
-2.46501
0
-0.729591
-0.763262
0
-2.39465
-3.5257
-3.3532
-1.7479
-3.43878
-3.49292
-3.51528
0
-1.66293
-2.47853
-6.00304
0
-7.14997
0
0
-0.0215775
0
-8.0988
0
-9.17998
-3.22042
-4.16804
-1.76168
-9.97984
-3.44818
-9.9085
0
-11.6969
-0.232561
-5.94158
-3.90485
0
-2.1477
-2.77686
-3.99058
-6.07329
0
-6.05355
0
-1.97713
-1.29343
-3.72783
-3.60778
-1.04419
-2.95699
-1.91774
0
-2.96072
0
-4.82865
-0.065192
-3.61807
0
-9.92513
-0.739259
0
0
-2.73379
-3.02587
-0.191759
-1.34864
-0.283079
-3.62253
-3.3036
-7.38503
-1.5862
-2.80066
0
-6.18311
-0.557055
-0.0326277
0
0
0
-1.02315
-0.0210953
0
-4.99927
0
-3.06387
-4.24451
0
-1.64395
0
-8.57324
0
-3.62065
-4.95516
-0.725477
0
-1.66252
-5.94362
-5.99042
0
-5.43048
-1.55881
-1.56945
0
-2.57329
-1.15333
-1.72697
0
-2.81948
-5.40347
-1.36521
-2.96502
-1.89188
-8.38475
-0.674816
-7.16788
0
-1.43012
-1.58894
-2.83213
-1.69294
-1.02596
0
-1.6422
0
-0.0681822
0
-2.79363
-2.12389
0
0
-5.3894
-0.227783
-3.98369
0
0
-11.9022
-0.74576
-5.41217
0
0
-0.865148
-3.23613
-0.54293
-6.88743
0
-5.23622
-0.892103
-3.98671
0
-1.36801
-2.55331
-0.661689
-1.19546
0
-2.14033
0
-2.12691
0
-1.76254
0
-6.51605
-0.703577
-2.03533
-1.85145
-0.478448
-5.48025
-2.99004
-3.14207
0
-3.98164
0
-5.90353
-1.57757
-3.31483
-1.94261
-0.30097
0
-0.455681
0
-3.47661
0
-1.24278
-0.635381
-7.89248
-0.47238
-7.19151
-4.38571
-3.66639
-1.81531
-0.652385
-4.79926
0
-2.3454
-4.6549
-0.508284
0
-4.38338
-0.998823
-2.05004
-3.00316
-0.438505
-0.973234
-2.24061
0
-2.14149
0
-0.438129
0
-2.82823
0
0
-4.20379
-1.60935
-7.52354
0
-5.73475
-0.131948
-3.21623
0
0
-6.32081
0
-8.63956
0
-0.278464
-0.605801
-2.85709
-4.5057
-1.83939
-1.03695
-0.475436
-4.36463
-0.0578973
-0.899165
-1.36064
0
-2.50536
-5.42613
-4.40979
-0.963047
-2.08079
-5.63734
0
-4.13697
0
-6.95582
0
0
-0.0774926
-0.685524
-7.10177
-3.21914
0
-2.16063
-1.04407
0
0
-7.23043
-8.80714
-0.0684386
-6.27371
-3.33935
-0.546874
-2.20419
-1.42153
0
-2.58733
-1.58258
-0.79548
-2.78304
-0.665323
-0.973661
-1.33886
-1.74149
0
-4.74196
-2.03177
-0.666064
-2.45317
0
-7.56297
-6.64881
0
-1.86469
-6.82592
0
-0.856539
-1.29044
-0.496278
-0.110097
-3.75774
-2.11733
0
0
-2.98063
-9.4616
-4.2291
-3.59127
-4.68626
-0.131706
0
-2.03402
0
-6.1287
0
-10.185
-0.544287
-5.99396
-6.02054
-2.72936
-3.35344
0
-0.687067
0
-0.547439
0
0
-0.973584
0
-5.87361
0
-5.64427
0
-0.404921
-3.44672
-2.84439
-4.7007
-1.46946
0
-3.6566
-2.88888
-0.913199
-1.93216
-1.29462
-3.93931
-3.13172
0
0
-0.890013
-2.6694
-0.692172
-1.88875
-1.68278
0
-2.1818
-0.0424956
-1.05974
-2.09208
-1.04569
-3.86631
-1.22232
-1.63102
-2.44275
-1.23125
-2.00257
0
-4.52179
0
-2.79825
-0.144881
-0.728855
-0.208507
-4.58003
-0.369998
-4.21754
-1.78207
-0.146723
-1.03514
-5.48639
0
-2.40568
-0.0915471
-0.191749
-0.21878
-0.965399
-2.06735
-4.78644
0
-1.619
-0.648603
0
-1.87999
-0.948717
-1.85078
-7.28242
-5.11319
-0.679108
-2.28004
-4.54043
-2.63346
-5.73943
-0.912747
-10.0894
-3.25016
0
-1.99022
0
-5.84836
0
-4.64962
-2.00293
-0.534743
-6.67003
0
-7.00576
0
-2.32221
0
0
-0.69414
0
-2.33666
0
0
0
0
0
0
0
0
0
0
0
0
0
0
0
0
0
0
0
0
0
0
0
0
0
0
0
0
0
0
0
0
0
0
0
0
0
0
0
0
0
0
0
0
0
0
0
0
0
0
0
0
0
0
0
0
0
0
0
0
0
0
0
0
-0.130194
-0.949786
0.00755092
-1.21556
-0.926579
0
-0.930184
-0.191837
-0.57027
-0.785346
0
-0.818939
-1.48842
0
-1.93963
-1.23141
-0.170127
-1.4157
-0.134559
-0.579505
-0.975638
0
-0.880902
-1.20835
-0.308632
-1.14317
0
-0.821562
-0.856772
-0.00321249
-1.18285
-0.905031
-1.86786
-0.537531
-0.235021
-2.4879
-1.50995
0
-2.43498
-0.0330284
-0.233737
-1.76087
0
-0.318458
-1.77625
0
-0.00172995
-1.15534
-0.956086
-1.05782
-0.0709073
-3.91163
-3.45144
0
-3.57032
-0.471566
-0.16607
-2.19158
0
-0.0826397
-2.06646
0.0310442
-0.462717
-0.885972
-2.16148
-4.6822
-3.33726
0
-0.89297
-2.49584
-2.80161
-6.12801
-4.76103
-2.33347
-5.45247
-0.798836
-3.26581
-0.0386897
-4.16203
0
0
-2.85163
-0.968053
-0.214091
-4.69668
-0.651193
-1.69437
-5.88036
-0.0150182
-7.05902
-1.8519
-9.16427
0
-0.342297
-7.01428
0
-1.27247
-2.84285
-4.02715
-2.22579
-6.29434
0
-0.365024
-0.251193
0
0
-2.52355
0
-3.9486
-0.806458
-3.56105
-2.84883
-0.699048
-1.63815
-2.01397
-5.86278
-1.72572
-5.96482
0
-8.07376
-2.36448
0
-1.25992
0
-3.17054
-3.89888
-0.485612
-0.74992
-0.733528
-2.8983
0
-0.82418
-0.599252
-4.63438
0
-0.263277
-4.62635
-0.663288
-3.05207
-1.01579
-3.69231
-0.116224
-0.913504
-2.65742
0
0
-2.45309
-0.213006
0
0
-0.441064
-1.18268
-2.63069
0
-3.83245
0
0
-5.51278
-0.529122
-0.0698684
0
-4.61076
-2.21132
-4.85895
-1.41228
-2.99982
-0.067094
-3.88817
0
-1.18116
-1.88543
-2.62091
-3.57388
-2.1588
-1.23717
0
-1.60737
-0.153338
-6.68921
-2.15543
-2.79862
-1.56084
-1.85712
-1.48282
-8.06019
0
-4.00261
-0.304097
-6.62604
-0.871227
-2.21076
-1.37911
-0.420135
0
-1.49757
-1.27925
-0.954325
-1.35403
-5.67118
-0.896993
-9.36727
0
-3.66076
-1.44473
0
-3.05085
-3.57804
0
-0.430394
-3.0224
-0.336517
0
-3.96634
0
-1.07061
0
-4.76591
-1.36102
-1.69611
-0.896862
-2.97291
-2.99423
-1.6505
-0.194229
0
-0.167027
-0.134613
-3.49208
-5.20192
-5.21835
-3.13658
0
0
-1.65761
-1.91501
-0.101305
-0.272688
-3.3982
-0.161706
-6.18854
-0.485938
-2.34058
-0.0342905
-5.50334
-0.0125029
-4.27865
-0.429353
-0.150723
-1.11096
-0.786913
-3.00342
0
0
-4.16432
-2.83058
-3.4058
-1.57608
-3.78514
-0.531548
0
-3.83721
-1.50295
0
-0.424778
-0.82084
-3.7022
-6.03176
-1.36237
-5.65072
-1.79165
-0.959789
-7.02292
-1.01223
0
-0.947141
-3.42387
-2.13395
-0.790628
-1.56183
-11.9392
-0.321779
-8.88464
-2.19183
-3.84135
-3.01119
0
-0.318176
-1.70966
-3.01286
-0.424858
-5.58816
-1.56761
-2.47861
-0.251744
-4.64553
-1.27757
-3.05973
-7.91892
0
-2.10145
-2.42948
-6.32985
0
-2.50651
-0.0257698
-6.78987
0
-0.616677
-2.23888
-6.27329
-1.84242
-0.522992
-1.27162
-3.46796
0
-1.30238
-4.01092
0
-0.718483
-0.226277
0
0
-2.31501
-0.78479
-2.4942
-2.30423
-1.60617
-5.35388
-3.55993
0
-5.52422
-2.05589
-8.77811
0
-0.167845
-2.57817
-4.36565
0
-7.19751
0
0
0
-1.37735
-3.63643
-0.665363
-4.01228
-4.17027
-4.42936
-3.15693
-3.83817
-0.971709
-6.42836
-5.70939
-2.36553
-2.14532
-9.75628
-1.20691
-0.204841
0
0
-0.979486
-3.92448
-1.6676
-1.66289
0
-1.76911
-0.083112
-1.14639
-3.37369
-1.45113
-6.18887
-1.49061
-9.49525
0
-1.21629
-1.14317
-1.98516
0
-6.46738
0
-3.75956
-2.59167
-0.729093
-3.62577
0
-4.52749
-3.19743
-0.688167
-3.72746
-1.81691
-0.300994
-4.74256
-5.53065
-0.854322
-2.38143
-3.36426
-2.07642
0
-4.4986
0
-2.31822
0
-4.11105
0
0
-3.73976
-0.974877
-2.4809
0
-2.39796
-0.224784
0
0
0
-6.22274
-1.56491
-3.69385
-0.287603
0
-2.20852
0
-4.04579
0
-1.42363
-2.25062
-1.59065
0
-7.91439
0
-3.2802
-2.04607
-4.18916
-1.65778
-4.81023
-0.84618
-1.44682
-1.68627
-0.335378
-2.81403
-0.804019
-8.56258
-2.90542
-2.31692
-3.05166
-8.28525
0
0
-3.02964
-3.21694
-8.4375
-1.93757
-6.4055
-4.59612
-2.29337
-3.13244
0
0
0
0
-1.14283
-0.207019
-1.97431
0
-2.09494
-2.57691
-0.234597
-7.06867
-1.86873
-4.58082
-2.9612
-5.09104
0
-3.71487
0
-6.67551
0
-5.99298
-9.71805
-0.300325
-3.06668
-0.591288
-1.49119
-3.25238
0
-2.77293
-0.638841
-0.206994
-1.01486
-2.3456
0
-4.78087
-1.97356
0
-4.39753
-1.07085
-1.26651
-0.930437
-3.04062
-0.606779
0
0
-1.54853
0
-6.30469
0
-4.12633
-4.98116
0
-1.03512
-7.71838
0
0
-4.25756
-1.77096
-0.388623
-3.96378
-0.42713
-1.94215
0
-11.9585
0
-9.5845
0
-3.79263
-2.11787
-7.4712
-6.92883
-0.452162
0
-2.71134
-1.06309
-6.08523
0
-1.13734
0
-0.836154
-0.157156
-1.20082
-1.06372
0
-2.41729
-2.98919
-3.95137
-3.76213
-0.979793
-0.439618
-4.68261
0
-0.378551
-5.37204
-1.86582
-5.3681
-3.33781
-6.62901
0
-3.12417
0
-1.23005
0
-3.21719
-6.17168
0
-0.7334
-0.851318
-3.9365
-0.634095
-3.06272
-2.10868
-4.72526
-2.40893
-0.640063
0
-0.628177
-1.96371
-2.03311
0
-0.355912
-1.47598
0
-8.81204
-2.08117
-2.274
-4.01396
0
-7.6777
0
-0.0116838
0
0
0
-4.14877
-4.41396
-7.52106
-3.20736
-3.13336
0
-0.978438
-6.46857
-3.85775
-5.8281
-5.66825
-2.42421
-10.5574
-1.12055
-0.720914
-1.39232
-1.46858
0
-2.08461
-7.59417
-0.634201
-0.106033
-3.73442
0
-9.90043
0
-5.58032
-1.07734
-6.76047
-1.3039
-2.77628
0
0
-3.96582
-0.716285
-7.71632
-0.721332
-8.4589
-1.3256
0
-0.620683
-1.47126
0
0
-6.05145
-1.81313
-4.31596
0
0
-5.20267
0
-0.20663
-0.894106
-2.35451
-0.981541
-2.95745
-0.367545
-0.940106
-0.520794
-6.45333
-0.796943
-4.77508
0
-1.18306
-3.20084
-0.790776
0
-1.36758
-2.96998
0
0
-8.59484
0
-6.59977
-3.82529
-4.89502
0
0
-5.14935
-1.48528
-3.55206
-4.02068
-6.70009
-4.78082
-3.59228
0
-3.75127
-0.747883
-1.59563
-2.03314
-1.63654
-1.02688
-6.03674
0
-3.22755
-4.54628
0
-6.83978
0
-0.652993
0
0
0
0
0
-1.79098
-1.30694
0
0
-0.34573
-1.21044
0
-3.63424
0
-1.24848
0
-2.25016
-1.65796
0
0
-1.06189
-3.9326
-4.45492
-3.44747
-0.853345
-0.0403488
-3.59882
-2.37976
-0.751156
-1.30964
-1.72166
0
-3.73543
-1.47118
-10.1561
0
-8.07361
0
-0.965985
-6.82649
-1.92694
-1.98535
-1.31183
-0.0887027
0
0
-6.19772
-0.284444
-2.94998
0
-8.06504
-0.988226
-3.05514
-2.86133
0
0
-4.68943
0
-6.46007
0
-3.45743
-3.52778
-3.77179
-1.26153
-0.649768
0
-2.79212
-1.60528
-6.27039
-0.197577
-1.04149
-1.31357
-3.22737
0
-2.48339
0
-2.83187
-4.16959
-0.126893
0
-2.62713
0
-3.32846
-0.746363
0
0
-0.787107
-4.0441
-4.71611
-1.35119
-3.47185
-2.98799
-2.60036
-5.23759
-3.24341
-1.7576
-0.606832
-3.17259
-0.537164
-3.87247
-0.801214
-1.60372
0
0
-2.97823
-2.70353
-4.64085
-2.20991
-0.0814704
-1.59523
-5.54743
-2.47023
-1.65777
-4.55778
-4.2407
-2.86558
0
-7.02916
-0.859121
-1.11038
-0.701423
0
-5.10204
-2.02119
-2.90313
-0.268286
-2.58529
-1.2109
-2.3675
-0.785296
-1.60543
-0.514647
0
-5.18837
-0.654515
-1.08703
-4.92001
0
0
-0.0954472
-0.412324
0
-0.711299
0
-8.43347
-6.04823
-0.594323
-6.82809
-0.435286
-3.26697
-1.81483
-3.13612
0
0
0
0
-2.15731
-3.87569
-2.22707
-3.92537
-3.01579
-1.71113
0
-3.78675
-2.56875
0
-1.27589
-0.965174
-6.16521
0
-6.13525
0
-7.42191
0
-1.56855
-5.97021
-0.915874
-1.18311
-2.17591
0
-1.34429
-1.42653
-0.713734
0
-0.971104
0
-1.80864
-3.52473
0
0
0
-2.52898
-0.843331
-1.27585
0
-4.46855
-3.00503
-1.60604
-0.235613
-1.00018
-0.226476
-5.36001
-2.55579
-4.56912
-0.586375
-1.45159
-3.47029
-0.0202799
-1.06345
-0.21842
-2.37667
0
-1.38464
0