<?xml version="1.0"?>
<VTKFile type="RectilinearGrid">
<RectilinearGrid WholeExtent="0 32 0 32 0 32" Origin="0 0 0" Spacing="1 1 1">
<Piece Extent="0 32 0 32 0 32">
<PointData>
</PointData>
<Coordinates>
<DataArray type="Float32" format="ascii">
0 0.524874 1.04975 1.57462 2.0995 2.62437 3.14924 3.67412 4.19899 4.72386 5.24874 5.77361 6.29849 6.82336 7.34823 7.87311 8.39798 8.92285 9.44773 9.9726 10.4975 11.0224 11.5472 12.0721 12.597 13.1218 13.6467 14.1716 14.6965 15.2213 15.7462 16.2711 16.796 
</DataArray>
<DataArray type="Float32" format="ascii">
-5.03879 -3.62163 -2.20447 -0.787311 0.629849 2.04701 3.46417 4.88133 6.29849 7.71565 9.1328 10.55 11.9671 13.3843 14.8014 16.2186 17.6358 19.0529 20.4701 21.8872 23.3044 24.7216 26.1387 27.5559 28.973 30.3902 31.8074 33.2245 34.6417 36.0588 37.476 38.8931 40.3103 
</DataArray>
<DataArray type="Float32" format="ascii">
0 0.524874 1.04975 1.57462 2.0995 2.62437 3.14924 3.67412 4.19899 4.72386 5.24874 5.77361 6.29849 6.82336 7.34823 7.87311 8.39798 8.92285 9.44773 9.9726 10.4975 11.0224 11.5472 12.0721 12.597 13.1218 13.6467 14.1716 14.6965 15.2213 15.7462 16.2711 16.796 
</DataArray>
</Coordinates>
<CellData>
<DataArray type="Float32" Name="Scalar" format="ascii">
0
0
0
0
0
0
0
0
0
0
0
0
0
0
0
0
0
0
0
0
0
0
0
0
0
0
0
0
0
0
0
0
0
0
0
0
0
0
0
0
0
0
0
0
0
0
0
0
0
0
0
0
0
0
0
0
0
0
0
0
0
0
0
0
-0.276924
-0.446076
-0.0178171
-0.894905
0.048218
0
-0.0265334
-0.0281331
0.27916
-0.591683
0
0.312282
-0.137024
0
-0.31435
-0.929166
0.418317
-1.00955
0
-0.466421
-0.30258
0
-0.672378
-0.410407
0.0937536
-0.385542
0
-0.613137
-0.715371
-0.00748622
-0.528034
-0.125986
-0.0919496
-0.555603
-0.247221
-0.454342
-0.446316
0
-2.19969
-1.11051
-0.125709
-0.397527
0
-0.101081
-0.518992
0
-0.440657
-0.574732
-1.22426
0
0
-0.694472
-0.36606
-0.0464487
-0.0760747
0.036105
-0.0568327
-1.99716
0
0
-1.22136
-0.0389834
-0.0746115
-1.39141
0
-5.0629
-1.6926
-1.89941
-1.13369
0
-0.444739
-1.33064
-3.63029
0
-1.98713
-3.4384
-2.0947
-6.12481
-0.168075
-0.334911
-3.1931
-1.94368
-2.64133
-3.84113
-7.89327
-1.80312
-6.06972
-1.30867
-1.00812
-2.81559
-1.91374
-2.94837
-3.00674
0
-2.48057
-3.15705
-0.35605
-3.52005
-1.35415
-7.59845
-5.30944
-0.0165837
-2.50349
-0.190404
0
-3.13886
-4.13871
0
-2.86103
0
-1.25036
-2.05723
-1.02091
-2.95879
-0.546259
-3.35896
-1.17759
-1.86423
0
-3.64604
-2.24576
-1.33696
-0.276693
-3.30114
-1.77363
-2.62446
0
-3.13787
-4.65221
-2.59757
-3.78035
-1.95076
-1.24044
-0.861005
0
-6.68701
-4.15492
-6.02908
-5.52636
-8.72337
-0.228958
-3.13492
0
-1.75181
-4.02761
0
-0.153734
0
-1.94308
-0.145352
-4.35382
-3.97267
-1.03164
-4.33952
-0.524613
0
0
-0.589807
-5.96816
0
-11.9003
-1.56008
-3.28652
-2.24187
-0.22038
-4.68086
-3.23147
-1.79445
-4.81489
-3.05353
-1.58021
-4.19147
0
-6.0475
-2.37237
-1.84148
-3.42823
-0.249145
-0.94109
-3.77874
-4.84889
-2.90729
-1.6451
-2.90016
-0.110077
-0.0803154
-4.08056
-2.73508
-2.66524
-6.31976
-10.7946
0
-0.996346
0
-6.66197
0
-4.69877
-0.354394
-4.10893
0
-0.474141
-0.47996
-8.49609
-1.3878
-2.33703
-3.96511
0
-6.42307
-1.51598
-5.66925
0
-1.22976
-4.96145
-1.51591
-6.12263
-0.141861
-6.35204
-0.396152
-0.34628
0
-2.10149
-0.364083
-3.45968
0
-2.11133
-3.67767
-0.20683
-3.13282
-6.26472
-3.73096
0
-0.820158
0
-0.00707921
-0.270582
-1.93177
-5.12487
0
-3.52921
-1.51901
-4.92035
0
-0.342178
-1.41935
-6.27852
-4.30445
-1.49931
-2.95677
-0.0547551
-8.12656
0
-0.394493
-0.0690607
-0.143846
-2.28824
-4.50665
-4.46805
-1.30912
-2.41363
0
-0.76254
0
-8.0499
-0.633536
-6.03806
-1.64503
-1.37063
0
0
-8.05724
0
-0.319442
-4.66602
-1.07785
-8.99551
0
-7.36131
-0.0303988
-3.85401
0
-2.96856
-2.12425
-0.200867
-7.64624
-1.481
-5.23642
-1.79775
-1.76818
0
-3.97449
0
-4.22824
0
-4.51528
0
-1.13153
-0.215773
-6.31676
0
-7.50202
0
0
-1.68467
-2.412
-3.48013
0
-3.46938
-0.424186
0
-0.573206
0
-0.378204
-1.84439
-1.42127
0
-6.81392
0
-7.30204
0
-0.164739
-5.0826
0
0
-8.22324
-1.43479
0
-0.270449
0
-3.73945
-4.30036
0
-0.112766
0
0
-0.528722
-0.281505
-5.28
-2.75213
-1.18862
-4.22307
-6.46888
0
-6.7802
-3.07352
-1.09658
0
-1.17988
-2.81884
-1.35818
-6.15929
-0.578787
-0.810821
-4.96339
-1.03474
-5.86839
-1.67046
-4.68837
-0.973508
-4.08593
-3.19415
-0.239263
-6.20258
-0.262328
-4.30963
0
-1.1599
-1.30911
0
-0.683188
-7.97669
-2.12827
-0.91583
-1.63192
-6.09461
-3.52486
-7.46123
-7.51073
-2.84351
-9.07829
0
-3.54424
0
-4.19438
-0.734134
-4.99797
0
-4.30634
-1.02727
0
-3.46378
-4.37261
0
-7.60323
-5.23388
-6.93417
-1.59247
-2.98908
-1.0372
-0.960738
-1.15397
0
0
-2.47854
-1.08028
0
-2.77388
0
-1.8989
-3.19713
-0.363777
-7.99598
-7.02791
-7.27312
0
-11.0426
-2.66225
-0.696964
-7.17174
0
-3.3183
-0.713138
-2.12374
-3.26184
-3.93494
-1.52926
-1.10873
-2.34487
-0.983383
0
-5.20203
-0.298982
0
-5.25572
-1.13288
-2.37452
-2.94801
-0.740741
-1.08043
-3.38236
0
-1.53994
-2.7968
0
0
-1.63025
-2.98843
-0.891785
-1.3722
0
-1.40655
-2.07816
0
0
-2.48339
-3.75061
-1.42771
0
-4.08604
-1.76392
-5.13951
0
-6.15778
-1.73522
0
0
-1.91818
-0.397733
-3.89234
-5.83002
-2.9173
-2.47897
-1.48393
-0.0977404
-0.353068
0
-2.67989
-3.65499
-3.36175
0
0
-2.53577
-6.65412
0
-1.41754
-3.85278
0
-3.48686
0
-1.24105
-1.40902
-0.489119
-0.143251
-3.51821
-3.42881
0
-4.11626
-1.29933
-0.480069
-1.6713
-1.18888
0
-0.484074
0
-4.60093
-0.590908
-6.96365
0
-5.81386
0
-4.06215
-3.19331
-4.7156
-2.19058
-0.208576
-5.2268
-0.905162
0
-2.13393
-5.43236
-3.56208
-0.780972
-1.02736
0
0
-0.959402
0
-1.35754
-1.09801
-1.09142
-3.41245
0
-9.17603
-0.0554555
-0.102714
-1.12582
-0.851945
-2.08497
0
-0.0467437
-1.37141
0
-1.65919
-1.05418
-1.52186
-3.05566
0
-0.0674555
-7.52434
-0.903124
-3.12691
-0.372897
0
-5.35652
-2.41234
-2.28403
-0.197359
-2.65105
-1.56115
-5.42607
0
-5.71786
-1.09853
-2.17017
0
0
-0.602944
-6.35124
-0.344245
-6.57767
-1.40324
-6.16861
0
0
-0.265214
0
-1.17654
-3.86759
-3.04243
-4.51644
0
-1.24873
0
0
-3.02075
-0.00854754
-0.347121
-3.16909
0
-3.02001
-2.17316
-3.951
-2.11858
-3.77424
-2.49717
-0.736109
-2.62655
-1.13388
-4.45256
-0.0149943
-2.88808
-2.38821
0
-0.807153
-4.93345
-3.14714
-3.24207
-2.00752
-4.46792
-4.58626
0
-1.43851
0
-3.25705
0
-2.12658
-5.81265
-1.157
-3.45714
-2.10441
-0.985491
-0.91231
-7.31676
-5.42183
-0.799544
0
-0.396888
-1.11078
-0.675223
0
-5.24077
-2.44836
0
-4.23522
-0.112842
-1.63987
0
0
0
-3.97034
-2.77128
-2.1563
-0.910046
-8.58846
0
-0.968247
-4.61874
-0.0770396
0
0
-1.04763
-2.20133
-2.95196
-2.57955
-0.701899
-5.30193
-0.395441
0
-5.43775
0
-1.85784
-2.42056
0
-3.71938
-6.13853
-3.9317
-2.39235
-2.46368
0
-2.19291
-6.66698
-1.46973
-0.934505
-2.09057
-5.60762
0
-2.71367
-2.90523
-6.725
-2.96438
-2.12664
0
0
-8.85235
0
0
-2.2944
-0.492957
-2.31994
-0.992552
0
-2.66088
0
-2.17897
-7.44094
-3.52342
-0.853599
-1.41671
-0.273659
0
-4.10601
-1.17152
-3.74312
-2.02908
-4.83049
-1.4755
-0.109458
0
-1.37432
-0.042196
-0.650554
0
0
-1.10073
-4.36481
-2.43424
0
-8.30342
-0.376658
-11.7529
0
-1.33853
-1.37123
-14.7002
-0.53047
-6.47241
0
-6.12999
-0.54984
0
0
-2.27314
-3.82764
-1.94921
-8.68185
0
0
-5.01972
-0.522508
-2.22717
-0.978275
-4.95516
0
-0.108632
0
-1.78035
0
0
0
0
-1.14323
-1.00445
0
-9.88673
-7.22774
-1.36126
-7.67556
0
-5.76665
-0.472245
-5.154
0
0
-4.14449
-1.95138
-4.26495
-1.73204
-1.13641
0
-5.40286
-1.85278
-8.83987
-0.124085
-2.43779
0
-6.16938
0
-6.88749
0
-2.05644
-1.06721
0
-3.62252
-0.422463
-2.92229
-1.89728
-1.9395
-6.27047
-2.09556
-1.84356
-3.67148
-2.60416
-3.42847
-3.21825
-0.363628
-6.87345
-1.16078
-2.98148
-0.0407388
-6.03232
0
-0.893128
0
0
-2.16214
-4.30851
0
-1.39813
-2.6361
-2.34853
-4.80603
-2.27798
-0.940429
-0.266497
0
-0.0409383
-5.51752
-0.105509
0
-4.63967
-4.69956
-0.793327
-0.337033
0
-3.21465
-1.65722
-0.751043
0
0
-1.08765
-1.90696
0
-6.44525
-1.21517
0
-11.3866
-2.66697
-1.14397
-5.69344
-1.52738
-0.624847
-1.56504
-2.60925
0
-2.81701
0
-0.825055
-1.01876
-0.324086
0
-4.6244
-1.12255
-0.274059
-4.03372
-2.41047
-9.0499
-1.16117
-1.26293
0
-0.118201
-2.04458
-3.434
-7.81541
-0.138974
0
-0.730988
-5.49464
-0.147974
-0.346273
-1.3804
-0.0316829
0
-0.0223033
-1.15755
-0.468077
-3.29528
0
-2.69691
-3.00564
-4.5679
-2.71611
-0.746433
-4.46084
-2.25461
-8.21344
0
-1.16953
-3.99365
-0.921607
-4.87953
-1.24252
-3.33456
-3.99204
0
-0.807933
-1.43426
-5.15253
-5.30372
0
0
0
-2.45874
0
-5.69548
-0.471688
-5.47275
0
-9.0078
-0.663601
-8.65669
-1.42127
-4.14789
-1.50051
0
-4.10427
-4.36802
-0.743841
-5.7913
0
-1.58437
0
-7.80761
0
-5.92381
0
-3.87424
-0.33113
0
-0.615206
-2.6711
-2.41266
-1.83965
-11.2943
0
-0.453849
0
-4.05047
0
-2.48764
0
0
-1.59916
0
-5.26591
-1.08575
-7.06245
-2.88314
-4.71561
-6.18813
-0.455324
-0.649234
-5.89061
0
-4.58424
-3.76242
-0.972395
-4.18412
-0.299133
0
-1.93298
-6.58882
0
0
0
0
0
0
0
0
0
0
0
0
0
0
0
0
0
0
0
0
0
0
0
0
0
0
0
0
0
0
0
0
0
0
0
0
0
0
0
0
0
0
0
0
0
0
0
0
0
0
0
0
0
0
0
0
0
0
0
0
0
0
0
0
-0.505048
-1.17001
0
-2.46622
-2.15436
-0.0823675
-0.521346
-1.11077
-0.627253
-0.585864
0
-1.31386
-1.72973
0
-2.03459
-0.398941
-1.04913
-1.39588
0.0256679
-1.04808
-0.854395
0
-1.7892
-0.961023
-0.372789
-2.00209
0
-1.95133
-1.60123
-0.0347583
-0.663104
-1.48166
-1.53701
-5.57976
0
-1.32167
-1.89014
0
-0.0402137
-0.643367
-1.93157
-0.410752
0
-1.59847
-0.1155
0
-1.52832
-0.0880993
-0.1065
-2.96054
0
-0.406833
-2.43877
0
-1.00796
-2.32009
-0.887612
-1.64471
0
-1.78308
-0.0697382
0
-3.62375
0
-5.26923
-4.94209
-7.69916
0
-0.317241
-1.67075
-10.0186
-2.52192
-2.42254
-3.03159
-0.993233
-1.71748
-2.98846
-0.795792
0
-9.51861
-2.25715
-0.825688
-6.38677
-2.9134
-0.670827
-0.155117
-5.70691
-4.91464
-2.24685
-6.36036
-5.8517
0
-0.482642
-3.51192
0
-3.3869
-4.61956
-2.4265
-0.484761
-3.69152
-3.86051
-0.367174
-12.5482
-1.92265
-5.66139
0
-0.40939
-0.0298584
-0.309848
-1.54532
0
-0.837536
-1.15988
0
-2.23958
0
0
-2.42109
-0.153885
-1.99033
-0.816913
-4.16715
-1.52452
-1.2354
-0.681352
-3.11135
-5.04108
-1.90526
0
-2.08366
-2.95074
0
-2.61178
0
-4.16255
0
-8.53113
0
0
-2.00447
-0.431472
0
-5.11742
-2.55847
-0.505718
-3.84191
-0.707236
0
-1.92134
0
-2.32731
-0.244601
-2.38084
-1.05642
-2.52279
-4.01086
0
-0.463845
-1.11345
-1.649
-0.298155
-2.54577
0
-0.150563
-3.378
-2.03864
-1.69001
-3.36826
-0.612835
0
-3.09114
-1.86836
-1.64129
-0.221149
-2.8785
-3.78118
-0.977727
-6.02276
-2.20626
-2.15195
0
-0.90439
-0.519687
-5.09097
0
-7.97183
-1.30651
0
0
0
0
-8.00628
-2.36052
0
-4.36024
0
-3.30996
-0.725892
-1.12038
-1.77023
-0.860016
-1.34789
0
-1.37333
-1.01767
-3.39672
-0.490271
-0.784433
-0.220362
-1.47888
-1.26621
0
-0.65436
-3.45074
-0.632679
-8.10667
-0.239465
-5.60626
-0.800591
-7.57728
-2.53179
-3.82417
0
-0.415831
-2.45457
-0.334061
-0.0710471
0
-1.74823
-1.97077
-1.98635
-3.49228
-2.96796
-1.16327
-0.98903
-1.11549
-3.52364
0
-2.01029
0
-1.34629
-1.10257
-4.58177
-4.29892
-0.552167
-2.87462
-1.26653
-2.40146
0
-5.0574
-1.08956
-7.16465
-9.46606
-0.854409
-1.29624
-1.63364
0
-0.303576
-4.5056
0
-0.982195
-0.585868
-0.8945
0
0
-0.187391
-7.34932
-1.1401
-1.06629
-4.2668
-2.69318
-3.85739
-0.0690379
-1.24394
0
-0.891271
0
0
0
-9.26227
0
-1.65248
-6.86115
0
-2.07404
0
-7.56402
0
-3.01556
-9.66096
-3.07964
-0.962456
-6.88176
-2.10769
-2.31121
-5.38039
-0.629381
0
-3.62517
-1.17694
-1.04684
-4.90403
-0.168112
0
-1.61466
-4.58179
-0.843412
-1.10868
-2.57684
-3.48757
0
-2.15273
-2.80235
-3.13371
-2.57616
-0.819595
0
0
-9.84357
-3.20647
-4.99078
-1.68663
-7.38392
-0.0665907
-4.55586
-7.82015
0
-7.8582
0
0
-7.47466
0
-3.96529
0
-2.65278
-6.57484
0
0
0
-0.988595
-0.921962
-1.03459
-0.956668
0
0
-2.45078
-0.0322422
-2.31126
0
-0.0836946
-5.70757
-0.987808
0
0
-1.47742
0
0
0
-1.20542
-0.456616
-2.04046
-1.16909
-0.981439
-0.141931
-11.9815
-1.55873
-5.51528
-2.57772
-3.71467
0
0
-7.41674
-1.37553
-2.93194
0
0
-4.46207
-3.26234
0
-1.79305
-0.589716
-0.946872
0
0
-4.53716
0
-5.83672
0
-5.793
-0.171656
0
-2.61497
-1.38824
0
0
-0.511935
-4.94911
0
-5.94512
-3.02892
-5.89323
-0.640804
-3.63352
-1.80337
-4.81062
-2.81882
0
-4.66297
0
-3.53075
0
-0.294172
-2.32093
-3.70057
-2.18004
0
-5.29164
0
-4.75606
-2.22163
-4.55363
-4.61666
-0.599825
-2.15741
-0.676333
0
-4.09284
-6.2041
0
0
-1.39765
-0.82965
-1.57884
0
-1.66458
-2.34794
-0.863589
-8.45848
-2.36229
0
-3.52112
0
-4.28633
-0.500295
-0.152551
0
-3.21302
-2.0518
-0.62515
-5.40399
-0.194689
-6.03813
-1.69426
-2.66433
0
-3.10391
-6.65219
-4.39982
-0.282981
-1.91098
-0.792861
-6.20513
-1.20575
-11.2004
0
-4.71829
-0.831319
-0.601933
0
0
0
-5.56175
-0.612895
-4.62744
0
-2.86269
0
-3.3382
-2.10089
-7.69263
-7.56296
0
-7.987
0
-3.14755
-4.15668
-1.61814
-2.66917
-4.04351
-0.32605
-3.70479
-1.97674
-0.695251
0
-1.43427
-1.01546
-1.27955
-1.1777
-0.236756
-0.994495
0
-5.72608
-0.508142
-2.11978
-0.0224671
0
-1.07378
-3.09435
-1.82369
-3.50425
0
0
-1.69568
-5.39758
-1.37401
-1.86501
-5.78416
0
-1.23892
-4.12905
-0.695539
-5.50718
-5.0117
-4.1787
-0.207356
-4.46788
-2.57133
-0.505595
-0.0679152
0
-8.28157
-0.282253
0
-2.05495
-2.09774
-0.0912168
-0.140758
-5.24523
-5.06223
-3.07068
-5.42864
-1.17318
-2.67731
-1.3687
-1.26782
-3.1564
0
-5.39739
0
0
-4.3504
-0.41575
0
-1.50998
0
-4.34842
0
-0.914335
-0.224478
-5.33055
-1.34033
-0.712951
0
-3.34861
-2.06109
-1.52187
0
-1.32823
-1.24621
-0.579868
-0.1354
-4.58287
-1.65165
-5.12434
-0.615259
-2.88751
-2.63378
0
0
-3.52584
-10.8318
0
-2.258
-1.15778
-5.16952
0
-2.0837
-1.84484
0
-1.1783
-2.5421
-0.340287
-0.645778
-1.57488
-2.3888
-2.76076
0
0
-0.410004
-3.1766
0
-5.75255
-0.983691
-5.69744
-0.0431452
-5.47944
0
-7.73987
-6.65625
0
-4.29068
0
-2.21112
-9.31031
-4.56857
0
-2.16316
-4.23836
-6.24788
-4.0743
-7.61797
0
0
-1.25613
-4.17707
0
-4.5356
-3.55886
-2.11125
-2.66923
0
-4.55803
0
-0.146653
-3.32992
-0.736958
-3.43562
-1.56987
0
-0.832729
-5.12356
-0.136552
0
-4.77099
-0.855824
-0.39916
-5.41651
0
-11.1644
-0.071691
0
0
0
-1.81774
0
-4.51229
0
-4.05326
-2.49273
-4.45253
0
-6.72518
0
-1.58538
-9.69422
-2.09942
0
-4.34238
-4.07127
0
-6.50068
0
-3.09047
-0.30286
-1.58962
-1.30315
-0.990119
-1.03385
-1.32498
0
-7.042
0
-3.5645
-0.270849
-9.13675
-2.3493
-2.48465
-1.30718
0
0
-1.53452
-3.18292
0
-0.597706
-0.211353
-1.23596
-4.07716
0
-5.81616
0
-4.42315
-0.466119
-6.18067
-5.57992
-4.02058
-5.08369
-3.98103
-3.45221
-4.32593
-4.82517
-6.42058
-5.45391
-6.37673
-2.17568
-3.11597
0
-4.32323
-0.91325
-0.343399
-8.46881
-2.70015
-3.80849
-0.659779
-0.133714
-1.93806
-0.139988
-3.40866
-2.96422
-3.96153
-6.30167
0
-2.88484
-5.29225
0
-3.18882
-0.559126
-0.923883
0
-3.19985
-2.29445
0
-9.22731
0
-8.13663
0
-8.29827
0
-7.1004
0
-3.52112
-2.58478
-6.52967
-0.386763
0
-1.12746
-4.34719
0
-0.691534
-2.14149
-1.13373
-0.942334
-4.09895
0
0
-1.31463
-3.11831
0
-1.54141
0
-0.251684
-1.1676
0
-6.46504
-1.12101
-4.61743
0
0
0
-2.48087
-2.77115
-6.48843
-0.0337966
0
-4.22885
0
0
0
-0.732907
-2.86094
-3.00882
-0.175451
-5.1645
-1.52083
-0.964139
-0.645738
0
-2.77993
-1.31086
-1.85226
-2.99235
-4.53382
-2.07854
-7.52994
-2.55656
-4.82409
-2.4757
-4.51568
-2.0547
0
-0.838376
-3.02317
0
-4.54079
-1.44971
-4.33247
-0.348599
-4.48705
-0.984409
0
0
-4.1783
-3.42607
-1.66844
-2.39461
-4.29405
-2.50687
-1.85302
-5.63496
-1.70371
-2.51161
-1.26457
-1.41178
-2.56691
-10.2543
0
-3.04002
0
0
-1.59895
-5.03889
-0.211696
-0.759979
-0.994957
-4.13051
-0.820719
-4.75419
0
-6.9444
0
-4.53879
-2.15187
-4.95801
0
-6.73693
0
0
-8.31002
0
-7.4435
0
-2.63665
0
-1.93222
-6.19874
-2.86338
-4.77887
-4.82341
-2.97942
-1.09325
-3.78225
-1.04676
-1.72199
-1.97021
-0.374789
0
-7.91991
0
-3.5634
0
-2.00887
-0.556973
0
0
-0.0985175
-5.89783
0
-1.17644
-0.364
-0.42311
-0.640284
-0.965476
-0.200848
-3.68986
-3.66719
-0.942757
-0.158647
-0.235432
-0.508479
-6.55527
0
-3.67972
-3.98687
-0.0324368
0
-9.69127
0
-3.21661
-0.718509
0
0
-0.164071
0
-1.95082
0
-0.975807
0
-1.06475
0
-7.0273
0
0
-1.3368
-1.06604
-0.549368
-2.57249
-0.842973
-7.82582
0
0
-5.34173
-0.203041
-2.33243
-0.907555
-7.04321
-1.06848
-5.51562
-0.974854
-2.399
-4.75562
-4.11133
-4.54709
0
-5.09952
-3.05534
-2.12687
-1.46924
-1.6595
0
-4.91891
-3.81781
-0.0386922
-1.09974
-2.13764
0
-1.81232
-3.0454
-2.58755
-1.70607
-4.77406
0
0
0
0
0
0
0
0
0
0
0
0
0
0
0
0
0
0
0
0
0
0
0
0
0
0
0
0
0
0
0
0
0
0
0
0
0
0
0
0
0
0
0
0
0
0
0
0
0
0
0
0
0
0
0
0
0
0
0
0
0
0
0
0
0
0
-0.227722
0
0
-0.268303
0
0
0
0
0
0
0
-0.0235923
0
-0.0534502
-0.0305987
-0.149211
-0.12546
0
-0.150591
-0.0693368
0
0
0
0
-0.590725
0
-0.279567
-0.010426
0
0
0
0
0
0
-1.21293
0
0
-0.117108
0
0
0
0
0
0
0
0
0
0
-0.159241
0
-0.201931
0
0
0
0
0
-0.162902
0
-0.408062
0
0
0
0
0
0
-4.39662
0
-10.3563
0
0
-5.3905
0
-5.01297
-1.39394
-1.95805
-2.4876
0
-3.56423
0
0
0
-4.8441
0
-4.06302
-1.02658
-0.51715
0
0
-0.207231
-0.946642
-2.84238
0
0
0
-4.17864
-2.80948
0
-0.493315
0
-4.83407
-6.49529
0
0
-0.48303
0
-6.3749
-0.912957
-2.24382
-3.00006
-2.02114
0
-6.49088
-0.492146
-6.40971
-8.0328
-2.62862
0
-4.68755
-1.32234
0
-0.829377
-1.05577
-2.11313
-10.121
0
-2.63571
-2.29981
-4.15581
-1.25421
-4.81493
0
-6.69914
0
-2.64789
0
-6.82292
0
-9.14204
0
-9.4228
0
-3.63303
-2.15678
-6.64719
-3.19798
-0.277201
0
-11.1968
-1.60598
-5.0177
-0.966014
-3.71121
-1.69338
-2.09204
-0.19249
-2.91492
-1.17146
-2.15217
0
-1.47598
-6.27053
-0.612734
-6.99438
0
-2.03516
0
-0.387896
-2.1415
-5.57956
-0.268389
-6.55867
-4.79721
-6.15961
-0.0608294
-0.259242
0
-2.45676
-0.533384
-6.78098
0
-5.97114
0
-4.6311
-3.65498
-2.16975
-6.53493
-3.52283
-0.356238
-5.98291
0
0
-0.413531
-0.999903
0
-1.67538
-0.745102
-1.6173
-1.68189
-1.22492
-1.93201
-0.0211735
0
-3.62322
-0.608184
0
0
-4.29388
-1.77209
-5.47128
-3.89819
-2.42993
-4.86957
-3.49961
-2.08599
-3.40345
0
-3.1679
0
0
-4.46538
-0.67578
-3.09101
-3.94126
-9.17864
-3.78839
-7.43041
0
-7.96857
0
-3.64343
-3.85062
-1.49662
-3.09906
-1.34475
0
-4.55111
-1.76999
0
-1.04234
-4.91766
0
-0.868117
-0.43263
-0.335309
-2.18119
0
-0.431665
-3.12299
-1.18853
0
0
-1.15471
0
-5.87187
-3.19729
-3.06942
-5.02987
0
-6.27532
0
-9.26211
0
-9.35076
0
-6.9258
0
-5.28032
-0.210544
0
0
-4.86102
-1.17921
-3.47343
0
-6.26762
-0.895518
-8.03346
0
-3.12126
0
-1.71887
0
-0.859589
-2.83125
0
-4.66962
-6.15965
0
0
-2.30615
-8.38566
-0.449246
-2.50007
-0.141406
-0.273582
-5.86256
-0.627297
-2.96477
0
-9.63842
-7.73115
-1.36393
-6.12943
-3.2908
-5.05668
-0.118935
-2.24799
-6.31125
0
-7.39611
0
-1.66867
0
0
-1.85235
-1.17037
-3.42475
0
0
-7.13042
0
0
-3.31692
-3.43821
0
0
-2.811
0
-4.79152
-3.78341
0
-1.82938
-3.28687
-2.93816
-1.82949
0
-5.83281
-3.73017
-0.59971
-0.809933
-2.23854
0
-5.05392
-1.25501
-1.94133
-0.609068
0
-8.40252
-0.297389
-3.08648
-2.23652
-6.42986
-0.835445
-5.32308
0
-0.018431
-3.52201
-6.04278
-0.300991
-5.63171
0
-0.561979
-0.256529
-5.00745
-0.638413
-2.64779
0
0
-3.20893
-0.209793
-4.27398
-1.49389
-3.76714
-4.91728
-4.68547
-0.868828
-1.50705
-9.83056
-3.15606
-2.68033
0
-0.824609
-0.164199
-1.6985
-1.74369
0
-0.692834
-2.50752
-0.567956
-0.00378137
-4.92161
-1.34472
-7.13346
-3.29989
-4.1186
0
-1.9286
-1.32641
-0.0577284
-0.892388
0
0
0
-1.63645
0
-0.691599
-4.9114
-0.30302
-3.95243
-0.702914
-5.10894
-1.32563
-5.18003
-0.490788
-2.83773
-2.21451
-2.59562
-1.16601
-2.79932
-2.28299
0
-7.20062
0
-4.28017
-2.50092
-0.70718
-0.405181
-1.64771
-5.94928
-3.56576
0
-3.49396
-1.28298
-8.42837
-1.6239
-4.4294
-5.80033
-0.893508
-4.65859
-0.126937
-5.38993
0
0
-8.18304
0
-4.65357
0
-5.97726
0
0
0
-0.111858
-3.19624
-6.9149
-0.0928307
-0.0191386
-5.03905
-1.78707
-3.20732
-2.49999
-0.330922
-0.387331
0
-2.48648
-0.152382
-4.14742
-1.04921
0
-1.28546
-3.8493
0
-0.105414
0
-1.84011
-4.58041
-4.58463
-1.53818
0
-0.278158
-1.54311
-1.19581
-2.90789
-0.57285
-0.260203
-3.25941
-0.889409
-0.883917
-1.40844
-0.712256
0
0
-2.62358
0
-1.70234
-1.92875
0
-0.342866
-0.0440872
-1.78531
0
-2.02398
-0.488868
-3.65758
-0.832727
-4.99162
0
-5.11218
0
-0.217426
-5.84239
-0.788128
-1.07128
-1.69474
-1.02217
-2.61858
0
-3.71766
-3.39416
0
-3.81533
0
0
0
-1.95905
-2.77369
-0.133747
-1.52421
-6.50481
-4.17283
-4.95806
-1.35559
-5.86418
0
0
-0.144867
-3.08044
-3.10724
0
-0.0729852
-0.343575
-8.62691
-2.29318
-1.50891
-0.740341
-1.11603
-1.16474
-2.27259
0
-5.74668
0
-1.43119
0
-2.88711
-0.199263
-4.4565
0
-9.15881
0
-1.16944
0
-1.30135
-3.06033
0
-2.29178
-0.993738
-5.79849
-4.3107
-4.14141
-4.18765
-0.46663
-2.48612
-0.642499
-2.22334
-0.533496
-6.6505
-2.16723
-2.85036
-4.41893
-2.41286
0
0
-6.85808
0
-0.606513
-3.48424
-5.18984
-1.10915
-1.13035
-2.36893
-3.12178
-4.61034
-1.48245
0
-1.02024
-6.4533
-3.68547
-3.06171
-1.10349
-0.881286
-0.406286
0
-2.36669
-2.90733
-2.63707
-1.04182
0
-1.05662
-4.27873
-5.7042
-2.74574
-5.20522
-0.050128
0
0
-7.97758
-0.359447
-0.847336
0
0
-6.68823
-1.20352
-3.31174
-1.11553
-4.68249
-1.19218
0
-0.015473
-0.175164
-2.44383
0
-3.44382
-4.89447
-1.88067
0
0
-0.704511
-2.47775
-1.70844
0
0
-7.85443
-2.56522
-0.623068
-6.19842
-0.151311
-3.1117
0
0
0
-0.736217
0
0
-2.86076
-0.689537
-1.61991
-0.792845
-0.82199
-1.66863
-1.22074
0
-0.0978652
0
-2.66462
0
-4.44604
-6.88442
-0.964562
-2.91027
-1.57847
-1.3273
-2.33061
-3.55596
-3.00844
-1.40051
-1.63062
-2.86459
-0.758045
-0.420055
-1.24105
0
0
-11.0979
0
-2.95354
0
-2.96443
0
-2.75594
-10.004
-0.267867
-1.95208
-5.13775
-4.20592
-4.9757
-1.19143
-1.46356
0
0
0
-0.042304
-0.925821
-0.710538
-2.81169
-1.69403
-2.43764
0
0
-3.87569
-0.900276
-4.22922
-0.359268
-0.946376
-0.88527
-2.09647
-1.79914
-1.0917
-1.71085
-6.97579
-6.44989
0
-6.74227
-2.31233
-1.5335
0
-3.01226
-0.0233245
-0.208539
-2.31959
0
-1.0424
-2.12604
0
0
-5.07791
-1.99019
-1.2665
-3.15564
-0.789156
-5.9836
0
0
0
-1.3396
-2.82633
0
0
0
-0.592369
0
0
-0.492656
0
-4.55036
-2.99178
-0.699896
-4.98172
-4.74377
-5.30738
-0.842373
0
-1.07741
0
-5.78131
-0.0289727
-1.91212
-0.495506
-3.05951
-4.10226
-2.27892
-6.77356
-2.58183
0
-2.30476
0
-1.07548
-5.38644
0
-3.36659
0
-0.544614
-6.75871
-8.22134
-3.16004
-2.56328
-5.4109
-1.28033
-5.73483
0
-7.0698
-6.7051
-0.475788
-1.51537
-8.49913
-2.84383
-0.160133
-5.25926
-3.87912
-2.87789
-2.31383
-2.55122
0
0
0
0
-2.34494
0
-1.77415
-2.78544
-0.516454
-1.35176
0
-3.24845
0
0
-2.31608
0
-0.714091
-0.135015
-6.83469
-5.85607
0
-1.34803
0
-2.69196
-1.37185
-2.0378
0
-3.61233
0
-3.57706
-0.0998801
0
-0.95602
-4.73194
-1.02166
-4.07534
-1.43449
0
-0.414946
-0.57257
-5.39358
-0.475864
-6.43926
-2.73506
-5.6614
-2.25808
-1.8111
-2.03319
-2.58368
0
-2.24893
0
-2.8695
-9.44005
0
-7.10052
-0.256256
0
-9.63547
-0.891274
-7.44669
0
-5.63004
-2.57041
-1.12255
-0.260509
-0.921933
-0.394937
0
0
-4.48575
-0.67588
-4.02061
0
0
-2.81754
0
-5.16093
-1.01746
-9.57689
0
-6.45458
0
-4.90798
-1.85177
-0.771633
-4.96354
-0.493578
0
-7.50595
0
-4.02366
-0.920942
-1.04013
0
-3.05854
-2.51705
0
-2.60677
0
-3.49634
-1.66211
-3.22181
-0.0667009
-2.87913
-0.668513
0
-4.60092
-4.07058
-5.32703
-1.29896
-3.68093
-2.11814
-2.08212
-7.02488
-1.07416
-6.28086
-2.36241
-0.477537
-8.84932
-1.62467
-4.74995
-0.171763
0
-0.336764
0
-2.03895
-4.6592
-1.13983
-3.92101
-3.04031
-1.92828
0
-1.1815
-4.51336
-2.89155
-2.02208
-0.914323
0
0
-3.47607
-4.00592
-0.164308
-2.10533
-2.40577
-1.97921
0
-2.06428
-0.899168
0
-5.02682
-1.89609
-9.22997
-1.24526
-4.4486
-6.2871
0
-0.73762
-3.4382
0
0
0
0
0
0
0
0
0
0
0
0
0
0
0
0
0
0
0
0
0
0
0
0
0
0
0
0
0
0
0
0
0
0
0
0
0
0
0
0
0
0
0
0
0
0
0
0
0
0
0
0
0
0
0
0
0
0
0
0
0
0
0
0
-0.0920346
-0.928388
0.0152849
-1.36068
-0.820056
-0.0416209
-1.00202
-0.528641
-0.160173
-2.93302
-0.47887
-1.91798
-0.742359
0
-0.756298
-0.872356
-0.538047
-1.00705
0
-1.27123
-1.25044
0
-1.97256
-0.538962
-0.308574
-2.19849
-0.231211
-0.993252
-1.3518
0
-1.03983
-1.06277
-1.70981
-0.229419
-1.15523
-1.95741
-0.602182
0
-1.92166
0
-0.977893
-3.26806
0
-1.68281
-3.26168
0
-1.84091
-1.23575
-0.814898
-0.915997
0
-2.07588
-0.184655
0
-2.73669
-1.09342
-1.19278
-3.61669
0
-0.503899
-0.836513
0
-1.327
-1.12904
-0.0429603
-4.31442
-2.86876
-1.8685
-5.32852
-7.79837
0
-5.60107
-4.60538
-4.12576
0
-5.01792
0
-0.633997
-2.08635
-0.0910383
-6.40085
-6.67499
-0.0487944
-1.71742
-2.07666
-3.4932
-4.07149
-2.75586
-7.29554
-1.44218
-5.33915
-2.71139
0
-5.25083
-0.128617
-4.59141
-0.940332
-8.53579
0
-8.44335
-0.369923
-4.17661
0
-1.52915
-3.31495
-2.21755
-0.303656
-0.549904
-3.36325
-2.25103
0
-5.40247
0
0
-1.91695
0
0
-4.03701
-4.32912
0
-4.74988
0
-4.33911
0
0
-0.123252
-5.95629
-2.08635
0
-1.58324
-3.38631
0
0
-4.77111
-2.97246
-7.36184
0
-0.76954
0
0
0
-1.76881
-2.01895
-0.630986
0
-3.26194
-3.43828
-3.03098
-0.174088
-0.86978
-1.13754
0
-0.70809
-2.58235
0
-0.404357
-0.711506
-0.302656
-0.529453
-5.45006
0
-2.0972
-0.726625
0
-5.03775
0
0
-6.0966
0
-6.49398
-3.99254
0
-2.07487
-0.85098
-1.77225
-6.98317
-1.48665
-6.00178
0
-3.42286
0
-4.82725
0
0
-2.11988
-3.36336
-1.43157
-2.22839
-4.12443
0
0
-5.79497
0
-0.558958
-0.590704
-2.27394
-0.279039
-2.50449
0
-0.80326
-3.11793
-3.57436
-5.93041
0
0
-7.10525
0
-4.38224
0
-1.68477
0
-0.37236
-3.75045
0
-0.836296
-1.05255
-1.93802
0
-1.51757
-2.54467
-0.493253
-3.42399
-1.79376
0
0
-0.651353
-1.41593
-5.70559
-1.37387
0
-2.66838
-2.0334
-1.20399
-1.13412
-2.40336
-3.60691
-1.33385
-2.77497
-6.43739
-0.923822
0
-4.7679
-0.806772
-5.09505
-0.906455
-4.71112
-0.147625
0
0
-2.77335
-7.1588
0
-6.48398
0
-0.192518
0
-0.655724
-2.02273
-2.60392
0
-0.74118
0
-2.13522
-0.464462
0
-0.0790863
0
-5.26065
-2.96728
-5.90339
0
-3.69261
-0.0403658
-5.73718
0
-1.44608
0
-5.29549
-1.46786
-4.72949
-0.621066
-3.71493
-1.66759
-1.98791
-2.13211
-2.81026
-2.02835
-0.373472
-0.794005
-6.20657
-2.37496
-1.52753
-8.18519
-3.73235
-5.83755
-1.29268
-2.74542
-3.50657
-5.22516
-0.0755514
-0.314562
0
0
0
-3.03811
-0.0790872
-9.0038
0
-2.46304
-3.14235
0
-4.93007
-4.48079
0
-1.16806
-3.31306
-2.16683
-4.67925
-3.07121
-6.54186
-2.80614
-1.60571
-2.62843
0
-1.55447
-0.430778
-1.39605
-4.48445
-0.356982
-1.94446
-1.53451
-3.6905
0
-5.60279
-1.64528
-7.01321
-1.31411
-2.94685
0
-4.40767
0
0
0
0
0
-3.79785
-1.7115
-4.23773
-0.402841
-4.57044
-3.72514
-0.964772
-0.423029
0
0
-0.383838
-2.93881
0
-0.0633802
-2.73265
-0.186193
-3.54056
-4.95334
-1.90213
-0.199786
-2.29834
-0.101317
-4.74012
-0.576279
-0.0554538
0
-2.77737
-0.587137
0
0
-1.72444
-7.04814
-0.335065
-4.41831
0
-6.03199
-0.86826
-3.95135
-2.23195
-2.79974
-1.26349
-5.04617
-2.41334
-0.659433
-3.65945
-3.8727
0
0
0
0
-1.79598
-6.92369
0
-4.69514
-4.70313
-2.38033
-6.30759
0
-8.63015
-0.594811
-7.09288
0
-3.4099
-5.0686
-3.32235
-0.0455881
0
-7.17605
-1.77279
-3.65407
-6.91857
0
-1.52751
-3.64059
-0.47779
-2.3478
0
-0.361445
-7.42713
-5.74664
0
-0.259048
-5.92502
0
-0.176816
-2.16615
-0.0984822
-6.1426
-3.75785
-0.0622413
-0.585743
-4.32644
-1.99348
-0.470087
-0.809853
-0.0366836
-0.338461
-9.99569
0
-2.71667
0
-0.761413
0
-1.86776
-4.6284
0
-4.28223
0
0
-0.867642
-9.56519
0
-6.94318
-0.516224
-6.96008
0
-4.86156
-1.23252
0
-3.68785
0
0
0
-4.09296
0
-2.10109
-0.894505
-6.61226
0
-4.52366
0
-2.84317
-4.52944
-5.49484
0
-2.95324
0
-0.985129
-4.32731
-5.67193
-1.44895
-2.54934
-1.30453
-2.38141
0
-2.17126
0
-0.398878
-4.69063
-4.23302
-1.02308
-0.482148
-4.53273
0
-11.7363
0
-6.11328
-0.613311
-0.857149
-2.27083
0
-1.28657
-0.278066
-0.0859297
-1.2883
0
-0.860945
-0.284978
-1.76233
-9.30582
-0.0491009
-4.34483
-2.16387
-0.744636
-4.28208
-4.07081
-2.94824
-3.50484
-8.14945
-1.08188
-4.17683
-1.06031
-2.84162
0
-3.34277
-0.120882
-0.669073
0
-7.20026
-0.634736
-4.07606
0
0
-1.22606
-3.33581
-1.09151
-2.33393
-0.485279
-1.42387
-2.99392
-8.582
0
-2.92542
0
-0.46032
0
-2.14958
0
-4.30111
-1.96548
-3.78965
-0.197746
0
-1.96054
0
-4.82957
-0.503426
0
-4.90384
-4.4219
-2.46401
0
0
-0.833742
0
-5.37983
-0.669065
-7.22572
-1.15924
-6.94596
0
-5.35877
-1.03186
0
-2.69166
-2.55311
-0.123732
-6.62209
-1.85249
-6.43426
-0.829351
-0.131346
-3.04584
0
-3.94015
-2.04662
-1.55013
-8.50251
-3.24558
-5.6568
0
0
-1.42595
-3.95789
0
-3.86185
0
-4.4703
0
-2.54457
-1.07648
-6.09654
-0.964315
-0.2069
0
0
-1.52489
-0.560447
-7.58805
0
0
-1.5998
-4.55416
-4.46689
-0.917961
-6.9585
-0.295995
-0.852388
0
-2.52736
-1.68532
-3.19582
-7.11684
-1.23302
-1.08651
-3.10705
0
-1.3897
-3.39965
-2.35671
-4.98401
-2.0545
-4.45283
-2.4823
-4.26542
-0.450146
0
-0.551862
-8.56328
-1.49252
-0.691896
-5.19615
-3.38884
-6.16228
-1.60952
-1.37784
-2.26972
-6.76298
0
-3.72771
-2.09783
-0.728152
-3.58484
-0.624662
-0.540958
-3.74491
-4.93029
-6.66089
-3.36023
-1.71524
-2.7398
0
-3.66034
0
-0.305178
-0.441339
-2.92585
0
-5.68667
-2.13998
-2.51793
-0.665716
0
-0.105179
-3.94667
-5.6299
-5.61253
-1.22624
0
-1.16304
0
0
-0.992219
-1.62123
0
-3.58483
-1.34267
0
0
-1.13214
-5.34878
-2.89296
0
-6.37892
-0.776892
-4.08332
-2.91476
-0.300165
-2.12894
-1.90412
0
-2.62543
-3.80053
-3.14797
-2.78017
0
-4.71922
-0.643563
-2.94395
-1.03415
0
-6.27478
-0.445676
-0.968483
0
-5.8176
-1.64546
-5.30229
-2.15894
-3.84378
-0.920854
-2.24033
-3.93657
-0.784883
-1.86851
-6.39536
0
-6.6025
-0.813153
-2.73279
-4.84345
-0.0918813
0
-5.24403
-0.616768
-6.35224
0
-6.26297
-3.21356
-1.51186
-3.72682
-6.50123
-3.09586
-8.06019
0
-8.46005
0
-1.35954
-1.34487
-7.60075
-0.160494
-6.32662
0
0
-0.586077
-7.26214
-1.43631
0
-0.734491
-3.58715
-2.96697
-2.13175
-2.14545
-0.960572
0
0
-4.71384
-3.80001
-2.39774
-2.21288
-4.35348
0
-4.96628
-1.75701
-7.57111
0
-1.04171
-2.78842
-1.33841
-9.60233
-4.02153
-0.287158
0
-2.79237
-3.52166
0
-6.40799
-1.25069
0
-3.5849
-7.30569
-2.478
-0.201699
-8.26623
0
-8.17628
0
-4.76395
0
-4.55823
0
-2.81096
0
0
0
-5.42294
-0.260085
-1.72728
-0.170763
-10.4408
-1.06414
-3.59717
-7.10603
0
-1.57874
-2.35528
-1.1032
-3.5821
0
-1.59533
0
-0.85789
0
-1.73355
-1.00598
-5.20178
0
0
-4.41139
-1.0351
-0.0126137
-0.846722
0
-5.75149
-1.48313
-7.46286
0
-3.95592
-2.20478
0
-9.21864
0
-3.76992
0
-2.13197
-3.63984
-4.73671
-4.59353
0
0
-1.73815
-3.44054
-1.09169
0
0
0
-1.37839
0
-0.653832
-0.577556
0
-6.42734
-1.88378
-10.3697
-0.612991
-10.1752
-1.86003
0
0
-0.803639
0
-2.0114
0
-1.06345
0
0
-3.27114
-1.3443
-0.716593
-3.71213
-0.822738
-1.89418
0
-2.87766
0
0
-0.720131
-2.21421
-4.16496
-1.33949
-3.65654
0
-3.97935
-1.83396
-5.06549
0
-9.10504
-0.913544
-4.52174
-3.19996
-2.29065
-2.76256
-3.3136
0
-0.744033
-0.04563
0
0
0
-1.49139
0
0
-1.16858
-4.19528
-2.63626
0
-0.18157
-1.93991
-4.37213
-2.6949
-6.05384
-0.901013
-4.38036
-3.20474
-1.59915
-4.13378
-8.6818
-4.32494
-7.07218
-2.99759
0
0
-1.45365
-0.708195
-0.932336
-3.15491
-1.93433
0
-0.917882
-0.959037