<?xml version="1.0"?>
<VTKFile type="RectilinearGrid">
<RectilinearGrid WholeExtent="0 32 0 32 0 32" Origin="0 0 0" Spacing="1 1 1">
<Piece Extent="0 32 0 32 0 32">
<PointData>
</PointData>
<Coordinates>
<DataArray type="Float32" format="ascii">
0 0.524874 1.04975 1.57462 2.0995 2.62437 3.14924 3.67412 4.19899 4.72386 5.24874 5.77361 6.29849 6.82336 7.34823 7.87311 8.39798 8.92285 9.44773 9.9726 10.4975 11.0224 11.5472 12.0721 12.597 13.1218 13.6467 14.1716 14.6965 15.2213 15.7462 16.2711 16.796 
</DataArray>
<DataArray type="Float32" format="ascii">
-5.03879 -3.62163 -2.20447 -0.787311 0.629849 2.04701 3.46417 4.88133 6.29849 7.71565 9.1328 10.55 11.9671 13.3843 14.8014 16.2186 17.6358 19.0529 20.4701 21.8872 23.3044 24.7216 26.1387 27.5559 28.973 30.3902 31.8074 33.2245 34.6417 36.0588 37.476 38.8931 40.3103 
</DataArray>
<DataArray type="Float32" format="ascii">
0 0.524874 1.04975 1.57462 2.0995 2.62437 3.14924 3.67412 4.19899 4.72386 5.24874 5.77361 6.29849 6.82336 7.34823 7.87311 8.39798 8.92285 9.44773 9.9726 10.4975 11.0224 11.5472 12.0721 12.597 13.1218 13.6467 14.1716 14.6965 15.2213 15.7462 16.2711 16.796 
</DataArray>
</Coordinates>
<CellData>
<DataArray type="Float32" Name="Scalar" format="ascii">
0
0
0
0
0
0
0
0
0
0
0
0
0
0
0
0
0
0
0
0
0
0
0
0
0
0
0
0
0
0
0
0
0
0
0
0
0
0
0
0
0
0
0
0
0
0
0
0
0
0
0
0
0
0
0
0
0
0
0
0
0
0
0
0
0.289586
-0.444164
0
-0.46674
-0.624526
0
-0.099574
-0.407204
0.0704989
-0.468584
0
-0.136464
-0.644521
0.00154329
-0.149704
-0.748423
0.254497
-0.580503
0
-0.0142336
-1.30681
0
-0.385473
-0.55765
-0.417922
-0.32694
0
-0.537049
-0.0119094
0
-0.579849
-0.228898
-0.345868
0
0
-0.725722
-0.707651
0
-0.259385
-0.225152
-0.0339991
-0.911157
0
0
-0.0455021
0
-0.0644817
-1.24261
-0.440927
-1.19658
0
-2.32322
-2.03778
0
-1.23108
0
0
-1.60091
0
-0.449888
-0.451762
0
-0.0561162
-0.33459
-2.02792
-2.21785
0
0
-0.896577
0
0
-0.328925
-2.7965
0
-2.62628
0
0
-0.640147
-2.93408
-1.1667
-0.455644
-3.27544
0
-5.82166
-0.57858
0
0
0
-1.76089
0
-1.84926
-5.44109
-3.43974
-6.33699
-4.2278
-2.40284
-0.461961
-6.04865
0
-4.91285
0
-1.18305
-0.0620262
0
0
0
-0.753166
-2.47296
-1.24342
-0.851368
-0.985095
-2.04294
-3.66984
-1.29669
-4.07293
-2.67269
-1.50356
-1.48154
-0.925786
-0.158406
-0.0937606
-0.100717
0
-6.73276
-2.80096
0
0
0
-0.872405
-0.861745
0
-1.93158
0
-0.120901
-4.09305
0
-0.90444
-3.34611
-4.51599
-0.451576
-3.00544
-2.37469
-6.36947
-2.41687
-5.53591
-1.30214
-2.12521
-0.71427
-3.70525
0
0
-1.17671
0
-2.69876
0
-3.28411
-3.91614
-0.0524251
-3.70811
-2.85003
0
-3.29653
-3.0773
-5.49182
-4.16431
0
-0.0116419
-0.0930159
-2.7143
-2.63524
-0.405874
-7.4201
0
-0.106542
-4.23472
0
0
0
-0.472972
-0.717899
-8.05164
-5.52535
-4.39514
-0.261684
0
-2.06924
0
-3.9317
-1.71127
-0.0648895
-0.023767
-2.43504
-0.287209
-6.03165
-0.426191
-6.79431
0
-7.53829
0
0
-4.52302
-0.800064
0
0
0
-5.81316
-3.64251
-1.06524
-1.21133
-3.39535
0
-0.179091
-2.38142
-3.0915
0
-1.10888
-2.12508
-1.18108
-5.47627
0
-3.43456
-1.50357
-2.8317
-0.252684
0
0
-1.77813
-8.77639
-2.14319
-3.70434
-4.04938
-3.05393
-1.54594
-2.23095
-5.18717
-1.59873
-1.37875
-3.54721
0
-4.21443
-5.73288
-3.30822
0
-1.23553
-5.36369
0
-3.71056
0
-2.34919
0
-1.30603
0
-1.49817
-1.71633
0
-1.50282
0
-2.39554
-0.870713
-2.72443
0
0
0
0
0
0
-5.26468
-3.09984
-1.76804
-3.17285
-0.623456
-4.04739
0
-5.65893
-0.11818
-4.46215
-3.52032
-4.55553
-4.28288
0
-3.58684
-5.71776
0
-4.92667
-0.610822
-1.46081
-3.56197
-2.19778
0
-3.66658
0
-7.59526
-1.32429
-8.4046
-2.36298
-7.41301
-3.35696
-4.55828
-0.478022
-1.86959
-0.143784
0
0
0
-3.6844
-1.40562
-7.90986
0
-1.47769
-1.51873
-1.22067
-0.892747
-3.86449
-0.1562
-3.0551
0
-0.595491
0
-8.35594
-2.04392
-0.0645915
0
0
-6.95427
0
0
-1.62072
-0.402696
-4.09536
0
-5.4979
-2.42655
0
-7.82336
-0.985667
-0.213373
-10.2528
-1.27787
-6.23462
-2.04461
0
-5.08092
-6.9148
0
-0.0526634
0
-4.31497
0
-4.99797
-1.71279
-6.29173
0
-3.21592
-5.51448
0
-2.86592
-3.58843
0
-2.68279
-0.838063
-1.71818
0
-1.54765
-4.00176
-0.238925
-0.818471
-1.99638
0
-6.5672
-0.491635
-7.37632
-1.87813
0
-0.680836
-5.55353
-1.62439
-6.311
-3.04944
-1.1898
-9.2197
-1.43649
-3.284
-1.37082
0
-1.23641
-1.30353
-4.51817
0
0
0
-1.77959
0
-3.22813
-3.55918
-0.788882
-4.44763
-1.99371
-4.32244
0
-0.00713284
0
-0.19452
-0.747471
0
0
0
0
-0.200376
0
-0.274838
0
-3.27718
-0.500797
-7.77878
-0.174591
-6.50302
-2.95067
-2.28525
-6.19061
0
-5.12265
-2.56952
-7.48492
0
-6.61251
-0.620225
-1.917
-4.89022
-0.966825
-3.04761
-1.16267
-0.740764
0
-4.39295
0
-2.36931
-1.73249
-1.12445
-5.87496
0
-1.4844
0
-0.145803
-5.17849
-0.296073
-7.20135
0
-4.62601
-3.11205
-2.82481
-0.925285
-0.777974
-0.965497
-4.23109
-3.2616
0
-1.81372
-3.40757
-5.62985
-4.43909
-1.66518
0
-1.65852
-3.24787
-0.466318
-0.150876
-3.98108
-0.652202
-0.411267
-1.09741
-1.5007
0
-1.81584
-4.61169
0
-0.225895
-3.1165
-3.38947
-3.56368
0
-7.20642
-1.74878
-1.39496
0
-7.81086
0
-5.42956
0
-6.64444
-0.0300024
-0.714471
-8.83709
-0.860409
-2.93385
-1.09488
-6.47647
-1.77569
-7.28893
-0.357155
-0.481291
-0.494842
-3.79467
-2.35347
0
0
-3.8083
0
-4.82157
-3.54021
0
-5.63917
0
-0.229845
-6.12565
0
-6.32494
0
0
-0.376908
-5.32996
-2.19911
-1.30498
-2.34582
-5.33952
-6.63781
-0.987424
-5.86589
0
-0.0389472
0
-2.17005
-2.36168
-1.48483
-0.501349
-0.301107
-4.81679
0
-4.47479
-0.457447
-0.0944769
-0.238324
0
-4.53222
0
0
0
-6.44559
0
-5.68445
0
-3.39731
0
-2.86598
0
-3.58472
-2.44843
-3.63855
-4.11232
-4.01777
0
-0.636438
-4.79352
-0.154329
-0.836845
-7.45736
-2.94146
0
-2.98043
-0.324788
-3.41721
-0.703936
-5.46454
-2.45837
-3.38844
-3.39467
-7.2572
-4.75958
0
-0.435637
-0.753504
-4.8972
-4.28571
-3.67345
-3.11188
-6.28994
-0.467742
-0.975028
-2.7169
-2.35419
-0.393743
-4.89154
0
-3.68809
0
0
-0.806355
-5.36533
-2.4452
-1.72709
-6.5126
-4.16233
-1.39336
-3.22788
-0.219212
-1.922
-3.18373
-4.17811
-0.900474
-1.51462
-5.89939
-0.32778
-6.03431
-0.0473487
-2.86443
-0.475668
0
0
0
0
-0.632246
0
0
-1.53613
-3.02073
-1.94736
-2.10172
-0.279035
-2.01355
0
-6.47545
-0.632252
-0.730861
0
-0.0919421
-3.22155
-2.66734
-8.4352
-0.650885
-1.50889
-2.08349
0
-2.29985
0
-0.97828
-3.85059
0
-2.5406
-2.78625
0
-6.17351
-0.77638
-0.354613
-3.76747
-4.36169
-4.03113
0
-1.43269
-0.029518
-2.25544
0
-2.56026
-1.19288
-0.461628
-3.65856
-1.02835
-7.05501
0
-2.17907
-2.36651
-1.91244
-4.10821
-0.634522
-2.97269
0
-7.46298
0
-0.164316
0
-2.36323
-1.23272
-3.87319
-1.50299
-1.46823
-1.49433
0
-2.01269
-2.69532
0
-1.03437
-0.101326
-0.735608
-0.782218
-2.89538
0
-5.20218
-2.96423
-0.385656
-7.83222
-0.600294
-5.53787
0
0
-8.58863
-1.035
-0.922563
-0.967228
-0.552458
-0.859171
-3.6636
-1.38445
-4.55608
0
-4.3899
-1.13984
-4.70187
-0.885376
0
-3.0114
-0.399544
-0.803529
-1.99326
-1.74985
0
-4.85962
0
-3.86705
0
-0.955177
0
-3.36826
-1.77398
-3.23234
0
-0.0131078
-0.395086
-3.75435
-1.56836
-3.60162
-5.74822
0
0
-4.12539
-2.64971
-1.15416
-5.16619
-5.54285
-4.29236
-4.20285
-4.18142
-3.55191
-1.11579
-7.06172
0
-7.29862
-3.24942
-4.14891
0
-1.98596
0
-4.24666
-1.57103
-3.49847
-0.562911
-5.13867
-1.03482
-6.97527
-0.250011
0
0
-4.32625
-0.168044
-3.55229
-6.25699
-5.28148
-5.45758
-9.43635
-1.07225
-4.07044
0
0
-6.23311
-2.04982
-3.28687
-3.44344
-2.62184
-8.03001
-0.219146
0
-0.696284
-6.43305
-0.80825
-5.42909
0
-6.96299
-9.23085
-1.92773
-3.87256
-4.35581
-2.12067
-5.74273
-1.44688
0
-2.06711
-12.3731
0
-11.7822
-0.110846
-8.21702
-0.286641
0
-0.659464
-0.0313815
-4.71789
0
-4.57235
0
-3.96085
0
-5.34875
0
-1.06536
0
-5.63472
0
-1.08207
-2.10111
0
0
-1.51007
0
0
-0.776173
-3.90897
-4.39655
-0.251201
-0.54626
-1.4309
-4.01726
-2.45064
0
0
-0.569435
-6.12842
-5.75901
-8.5473
-0.34924
-6.74501
-1.18619
-3.10882
-8.49869
-2.94593
-4.74776
-1.17584
-1.01492
-1.13483
0
-0.973462
-0.406062
-0.38757
0
-7.31995
-2.93742
-1.99769
-1.11105
0
-6.56264
0
-1.29368
-4.88678
0
-6.09
0
-1.26868
0
-0.403904
-0.724491
-2.07518
-3.82442
0
-9.40906
0
-0.864747
-3.38441
0
0
-3.09461
-6.86751
-0.223102
-3.06936
-1.64299
-3.54764
-3.23463
-3.70277
-3.20759
-2.86748
0
-1.02976
-4.17911
-2.48808
-0.208056
-3.56678
-4.33049
-6.51878
-2.85835
-5.71821
-4.37776
-2.18365
-6.70638
-1.29184
-4.66506
-0.0806611
0
-3.57821
-0.671711
-2.75866
0
0
-3.89445
-1.0676
-5.33157
0
-0.600296
0
-3.09622
-4.4985
-1.11124
-0.0816456
-1.19664
-0.0271458
0
-2.60981
-2.08514
-3.63341
-0.259759
-0.732211
0
-4.38992
0
-0.955186
-4.74254
-3.72075
-6.00815
-0.567053
-6.73747
-2.43055
-0.395517
0
-0.324262
-4.80602
-4.58196
-2.11011
0
-1.58161
-1.19157
-1.47537
-3.28956
-4.4225
0
-4.66867
-2.82122
0
0
0
0
0
0
0
0
0
0
0
0
0
0
0
0
0
0
0
0
0
0
0
0
0
0
0
0
0
0
0
0
0
0
0
0
0
0
0
0
0
0
0
0
0
0
0
0
0
0
0
0
0
0
0
0
0
0
0
0
0
0
0
0
-0.255913
-1.70184
0
-1.44707
-1.95863
0
-1.167
-0.668904
-0.529191
-0.793772
-0.0332143
-1.16169
-0.625285
0
-1.78654
-0.954048
-0.1056
-0.892793
0.0146669
-0.666598
-0.688833
0
-1.40102
-1.44303
-0.0571049
-1.34987
0
-1.28231
-0.59909
0
-1.45578
-0.331119
-1.10945
-2.19903
0
-1.09971
-3.99896
0
-4.49569
-1.64858
-1.52711
0
0
-2.0169
-2.12564
0
-1.34604
-0.00967438
-0.117724
-1.64133
-0.147649
-2.38063
-2.65731
0
-0.418527
-3.22945
-0.894932
-2.23346
0
-1.74293
-0.216849
0
-1.84317
-1.00731
-5.37394
-8.20959
0
-4.44723
-0.110675
-5.45634
-6.02699
-6.14695
-2.65081
-2.64873
-0.653151
-3.3543
-4.21777
-1.52306
-3.75907
-2.39984
-1.32188
-4.99085
-2.1689
-3.52496
-0.914622
-4.45722
-5.79808
-2.40589
-0.762681
-7.45752
-4.55145
-4.75834
-5.52169
-0.672731
-7.19781
-3.24305
-1.27671
-0.34942
0
-7.36109
-4.99487
-4.12213
-5.49452
-2.26916
-3.33164
-5.65558
-1.32763
0
-1.41949
-1.39672
0
-3.94228
-0.121875
-0.445344
-0.0486093
-5.22293
-0.920152
-3.41712
0
-4.71095
0
-5.44306
0
0
-0.971132
-2.19611
-0.86736
-6.12104
0
-8.58496
0
-5.70633
-4.00821
-2.57717
-5.64552
-0.415976
-5.8288
0
-1.8763
-2.36386
-7.35356
-0.877709
0
0
-0.212585
-0.049601
-0.440315
-0.804471
0
-1.27692
-4.02528
-0.427236
-2.16535
-0.390223
0
-1.13967
-1.52008
-3.07075
-1.2592
-5.09027
-3.55852
-6.76203
0
-0.400876
0
-1.69838
0
-3.18439
-1.1771
-4.84986
-2.40064
-3.96389
-1.22346
0
-3.61985
-0.34263
-2.21098
-2.33567
0
-5.29666
-0.698946
0
0
-5.78354
0
0
-1.87359
-1.94485
-0.560209
-5.85955
-0.83848
-1.40541
0
-2.38422
0
0
0
-6.68176
0
-6.54128
-2.9794
-4.70107
-1.1047
-0.865136
-3.52772
0
-0.968507
-5.06077
-3.05748
-7.17471
-3.01301
-4.27976
0
-1.09018
-3.51586
-2.48768
-1.02335
-2.33169
-1.68529
0
-0.850625
-0.73572
-3.13329
-2.90229
-2.78415
-6.14143
-1.20465
0
0
-2.21574
-3.99617
-0.238326
-0.245827
-0.0919868
-3.88171
-0.422334
-4.30071
-2.2096
-4.13096
-0.681728
-2.43157
0
-2.24115
-0.809663
-0.251544
-3.44286
-0.483585
0
-0.449958
-7.50595
0
-6.84023
-0.188958
-2.77582
0
-3.6172
-9.45816
-0.196774
-7.72268
-1.27759
0
-2.01561
-0.722045
-0.819876
-6.53732
0
-2.77003
-1.23574
-1.15824
-1.10439
-1.7875
-1.13307
0
-1.92194
-1.58744
-2.62908
-3.27258
0
0
-4.42675
0
-0.339492
-1.17699
-0.218882
-2.27268
-4.50822
0
-1.01163
-2.28602
-7.25862
0
0
-1.08745
-7.9106
-1.07834
-4.80293
-1.86707
-0.0838826
-5.9352
-3.73152
-0.738217
0
-2.33626
0
0
-0.196326
-3.0957
-3.65968
-2.42324
0
-5.32575
-1.59061
-0.581342
-0.815812
0
0
-6.14803
0
0
-3.43744
-0.392419
-5.66114
-1.58338
-2.55593
0
-0.788323
-5.10338
-1.95573
-2.20654
0
0
-0.0419398
-5.98705
0
-0.397448
-7.2531
0
-3.03207
0
-0.0884113
-6.06093
-2.38768
0
-4.37985
-5.08234
-9.87725
-2.5748
-0.822385
0
-1.425
0
-2.13201
0
0
-7.479
0
-4.078
-4.88808
0
-4.56363
-3.60374
-1.31614
-2.34065
0
-4.30042
-0.873369
-1.56474
-1.04989
-0.876653
0
-4.17294
-2.80216
-1.62891
-2.564
-0.775985
-0.0503538
0
0
-4.90822
0
-6.44221
-5.17946
0
-7.98431
-3.21015
-1.5303
0
-0.521142
-2.78733
-0.00168086
-0.864329
0
-0.165026
-4.19145
-4.44438
-3.68594
-4.34123
-0.0643827
-5.03471
0
-2.95362
0
0
-2.95546
-6.12613
0
-3.18123
-0.268507
-5.03037
-0.221516
-2.3116
0
-0.220981
-1.87806
0
0
-3.69427
0
-5.48562
-0.865394
-3.48549
0
0
-4.54584
-0.276086
-1.80749
-6.02211
0
0
-4.17187
0
-12.2568
-0.955533
-0.571379
-1.00676
-2.33912
-1.23411
-1.09822
-5.76331
-0.491037
-7.90505
0
-6.61037
0
-3.20579
-1.28179
0
-4.46712
0
0
-2.29214
0
-3.68891
-1.2372
-3.14609
0
-6.12275
-0.479059
-2.47903
0
-0.737133
-3.79902
0
-0.221767
-0.898365
-7.88413
-1.51718
-1.92658
-4.32109
-0.908716
-2.09986
-0.329297
-1.93105
0
0
-2.58267
-0.835103
-3.10777
0
-7.06493
-0.102902
-2.65381
-5.03197
-3.88936
-2.98364
0
-0.137569
-7.79038
-0.209027
-0.421296
-9.89139
-0.971243
0
-7.06567
0
0
-0.0579527
-0.71049
-1.35338
-6.54368
0
-0.94479
-4.59207
-3.71544
-5.53436
-0.115488
-5.85438
-1.89977
-1.94364
-6.736
0
0
0
-0.546286
-1.73274
0
0
-4.62762
-0.567487
-0.712508
0
-0.0447929
-5.24524
-0.545917
-3.96926
-2.41762
-1.87316
-6.77961
-3.52997
-4.80253
-2.62357
-0.235708
-1.37714
-4.31473
-0.0312613
-0.598033
-0.0275586
0
-2.71315
-1.40767
0
-3.74988
0
0
-4.08385
-3.74085
-1.01673
-0.116483
-3.45218
0
-7.88178
0
-4.09965
-1.27676
-0.899668
-0.503823
0
-4.28627
0
-8.78521
-0.364649
0
-4.51354
-1.16874
0
-5.20326
-6.19472
-2.05004
-3.50169
-5.76347
0
-2.72884
0
-3.03225
0
-3.79334
0
-1.92599
-8.69215
0
-1.66493
0
-0.136993
0
-3.48563
0
-4.41011
-5.98077
-3.02283
-6.15306
-0.133995
-3.84035
-6.21829
0
-2.45486
-6.65008
0
-4.80111
-0.17591
-0.222094
-0.177636
-1.8854
0
-6.33016
-2.15453
0
0
0
-1.07082
-2.7763
0
-4.56511
-0.139843
-0.350169
-1.84259
-5.6899
-2.81289
-1.63698
-8.77616
-0.394502
-2.71425
0
-0.673213
-1.15394
0
-3.56418
0
-1.42379
-1.42667
-0.708156
0
-7.9795
-1.29336
-7.49827
0
-1.21381
-0.911534
0
-10.2178
-0.455052
0
0
0
-2.6398
-2.88937
-6.28316
0
0
-1.9624
-3.87992
-4.50556
0
-1.2821
0
0
-4.10992
-0.0129342
-0.0262704
-0.949981
0
-0.969796
-2.79317
0
-3.18905
0
-6.80014
-3.31416
-6.18631
-1.57384
-2.28926
-2.2865
-4.20097
-8.13896
0
-2.45665
-0.406706
-3.46345
-2.72266
-2.59984
-2.58302
0
0
-7.23354
-0.84838
-8.7227
0
0
0
-2.00478
-0.193265
-7.35826
0
-2.71688
0
-1.10041
0
0
0
-0.939931
-2.46042
-6.72986
-1.86552
-1.62668
0
-0.320145
-2.80066
-0.206904
-1.39687
-0.0384005
-0.341378
-1.84253
-0.954853
-4.06605
-0.334874
-1.48256
-2.85136
-5.441
0
-4.96188
-1.37702
-8.14262
0
-0.470019
-0.68965
-4.93932
-0.283193
-1.51211
-4.84316
-0.149027
-0.523637
-1.35123
-3.93396
0
-4.90308
0
-0.041043
-6.12094
-0.879837
0
-0.185982
-3.9244
0
-1.77916
-0.921337
0
0
-3.46754
0
-0.830021
-1.00179
0
0
-1.86632
0
-2.16271
0
-3.67018
0
-0.289438
0
0
0
-8.03218
0
-0.428113
-1.12695
0
-0.808084
0
-1.73756
0
-3.49523
0
-1.45322
-4.56547
-1.27025
-1.80403
-4.21024
-0.66937
-5.36872
-1.03355
-5.87282
-0.777594
0
-2.57382
-0.44015
0
-7.81903
0
-6.23608
0
-0.0962971
-11.1818
-0.722372
0
-1.48732
0
0
-0.117129
-0.796468
-1.77418
-9.58715
0
-0.974202
0
0
0
0
-1.5065
-8.31425
-4.91726
-3.96215
-0.502924
-1.61453
0
0
-4.80813
0
-1.86876
0
-8.31601
0
-1.78065
-6.26112
-1.42196
-4.23376
-2.05175
-3.09416
-5.27182
-4.50666
-2.45117
-10.2743
0
-0.793256
-2.89195
-2.90921
-0.602364
0
-4.49038
-1.57383
-0.903285
-3.71044
0
-0.0983126
-1.48423
-3.23603
-4.03698
-3.33982
-0.105107
0
-1.5858
0
-0.703527
-0.559382
-3.35852
-2.30963
-6.31751
0
-8.57272
0
0
-4.20054
-3.67822
-5.51184
-0.29535
-1.1216
-2.28822
-1.58432
-0.0364329
-4.54842
-0.513724
-3.00355
-1.30547
-3.81693
-1.06218
-5.96304
0
-1.68796
0
-1.13783
-0.0465324
-1.85038
-1.3672
-0.240607
-4.26135
-0.391768
-0.876391
-2.28088
-4.89788
-4.2018
-4.7166
0
0
0
0
-6.62361
-2.25767
-2.28742
-0.171908
-3.80285
0
-0.699477
0
0
0
-0.889747
-0.91957
-0.402531
-0.809864
-1.95324
0
-1.13425
-4.44658
-1.84326
-0.721019
-2.77477
-4.1849
-1.05278
0
-1.84207
-0.0591978
-0.96096
-7.11159
-0.521499
-0.0234214
-1.11869
-1.3156
-2.17033
-3.63864
-2.65426
-4.39602
-1.29665
-0.255336
-2.95302
-5.54803
-6.99716
0
-3.37778
-3.33866
0
0
0
-1.65643
-2.65334
-3.38737
-0.159971
-4.72524
-6.02393
-0.947568
-0.01989
-0.442653
0
-4.37634
-6.54918
-0.724651
-3.62161
-2.58002
-1.75275
0
0
0
0
0
0
0
0
0
0
0
0
0
0
0
0
0
0
0
0
0
0
0
0
0
0
0
0
0
0
0
0
0
0
0
0
0
0
0
0
0
0
0
0
0
0
0
0
0
0
0
0
0
0
0
0
0
0
0
0
0
0
0
0
0
0
0
-0.0689751
0
0
-0.0109136
0
-0.572566
0
0
0
0
0.00552523
0
0
-0.608519
-0.204705
-0.380368
-0.0430609
0
0
0
0
-0.393387
-0.392762
-0.0847087
-0.192547
0
0
0
0
-0.00481712
0
0
-0.0395559
0
0
0
0
0
0
0
0
0
0
0
0
-0.0798744
0
0
-0.764881
0
0
0
0
0
0
0
0
0
0
-0.405905
0
0
-0.218723
0
0
0
-0.193695
-2.12098
-2.64629
-0.636545
-0.0582486
-1.67088
-6.26588
-1.92733
-1.28382
-0.259786
0
-0.196807
-0.651609
-1.37744
-3.38053
0
-3.23579
-0.756288
-0.768355
0
-0.955581
-0.647525
0
0
-1.45986
-5.35182
0
-2.35648
0
-5.40141
-0.131665
-5.74716
-5.37782
-0.0179724
0
-6.69226
-0.193876
-2.87936
-0.270134
-3.40842
-4.88771
-0.551198
-4.56879
-3.77198
-5.10123
-0.644409
-2.56122
0
-2.97682
0
-4.69104
0
-0.40799
0
-7.59874
-1.48674
-5.48669
-4.05374
-2.33764
-2.05903
0
-5.30268
-0.333847
-2.43857
0
-1.20097
-2.81245
-0.94303
-4.15938
-3.97504
-2.43265
-1.58865
-3.17787
-0.249484
-5.5794
-2.03182
-5.30181
-0.412518
-7.82947
-4.58241
-0.0861237
-5.08224
0
-1.95446
-1.01083
-5.07492
-3.43814
-6.81397
-0.488429
-5.53956
-0.403436
-4.10071
0
-6.07374
-0.998403
-0.606539
-3.74289
-0.107673
-0.770439
0
-1.20595
0
-0.382236
-1.74884
0
-3.88439
0
-3.98726
0
-2.233
0
-0.489452
-1.75652
0
-5.42402
-0.0332209
-1.19686
-0.828578
-7.88749
-0.923618
0
-1.14088
-1.75136
-6.56189
0
0
-4.2599
-2.90422
-7.32434
-4.66983
-1.16297
-3.83666
-1.37335
0
0
-5.83715
0
0
-4.41004
-3.50049
0
-4.42167
0
-1.33335
0
-7.15927
-4.54857
-3.15745
-0.213001
-2.33148
-0.0768489
-3.00288
-7.40058
-1.69629
-6.3388
-3.44854
-1.54041
0
-0.173557
-3.91196
0
0
-4.82368
-1.01597
-1.84037
-6.60232
0
-5.16419
0
-8.50442
-0.131662
-2.85488
-1.28301
-3.97343
-0.136367
-2.69897
-3.91337
-6.4334
-1.46023
-13.4363
-7.64973
-5.87102
-0.235858
0
-0.438254
-0.106252
-1.65667
0
-1.06828
-6.66882
-0.446247
-1.37527
0
-8.27714
0
-1.7458
-0.293517
-0.441978
-2.21302
-4.46749
-3.23884
-4.4578
-1.44473
-4.38037
-3.06997
-5.80077
-3.2527
-1.98297
-4.16881
0
-7.24346
0
0
-4.11392
0
-8.12505
-0.825292
-3.97952
-2.01766
-7.40945
-6.8205
0
-1.99475
-1.02312
-9.23203
-8.47271
0
-10.2326
0
-8.98356
0
-5.87851
-1.71268
-1.56203
0
-2.52194
-2.91597
-1.78241
-5.99747
-1.17823
0
-1.95137
0
-2.80064
-0.690159
-4.97084
0
-6.13859
-1.87147
0
-3.72524
-5.05353
-4.78276
-3.36119
0
-0.0967487
-2.52636
-1.89624
-5.76886
-1.97651
-2.35752
-2.38698
-2.93813
-6.55038
-1.60725
0
-5.29533
-1.27714
-1.79083
-0.189194
-2.54373
-0.19167
-6.94488
0
-3.91897
-0.0728233
-3.16311
-2.09372
-0.592475
-3.92204
-4.75992
-4.84724
-2.69201
-3.78888
-2.5428
-3.96582
-2.05717
0
0
0
-0.495295
-5.52735
0
-0.753401
-2.40858
-1.2874
-5.84269
-0.248146
-0.299654
-0.951593
-2.80768
-0.577548
-1.04885
0
-1.02773
-0.467514
0
-2.61252
-5.50827
-2.44333
-1.66096
-6.66201
-3.31422
-2.20909
-2.12542
0
0
-1.52144
-0.495045
-5.33851
0
0
-4.74878
0
-5.00475
-0.87017
-5.28333
-0.0313014
0
-0.0334463
-3.58538
-0.0213424
0
0
0
-6.72398
0
0
0
-3.02982
0
0
-1.73803
-2.51242
-2.20083
-4.13413
-3.81721
-4.49904
-4.0009
-3.60733
-1.95635
-0.576642
-3.44283
0
-1.15225
-2.29145
-3.59117
-4.62844
0
-0.704185
-0.973
-7.70177
-1.41472
-5.3366
0
-0.508036
-7.13244
-4.97935
-0.993319
-5.92414
-1.0702
-0.544431
0
0
0
0
-1.027
-4.34995
-2.61533
-3.03714
0
-4.20876
-2.22824
-0.756807
-0.61926
-1.18007
-0.202705
-1.89353
-0.310125
-1.564
-2.36457
-4.39249
-6.13034
-1.13521
0
0
-3.86563
-0.914895
0
0
-1.64565
-0.110946
-0.638152
-0.14582
-5.06236
0
-1.81524
-1.33871
0
-3.21697
-6.22825
-0.520651
-9.14515
-0.629189
-4.62596
0
-1.12657
-3.18758
-4.94694
0
-4.0808
-4.662
-1.41744
-0.669596
0
-4.15
0
-4.83938
-0.681224
-1.01564
-0.411481
0
-0.559196
-4.19081
-9.79531
-2.10697
-2.06677
0
-4.37573
-2.63197
-5.30824
-2.46179
-2.22178
-3.7229
-4.3255
0
-3.31324
-2.44788
-0.272126
-2.39749
0
0
-4.53314
0
-6.473
0
-1.59704
-2.3762
0
0
0
0
-6.01552
-0.411572
-7.53499
-0.0933474
-0.450407
-1.28828
-0.269105
-3.62243
0
-2.95101
0
-4.22344
0
-0.977123
-4.19099
-6.75109
0
-2.1539
-5.77708
-5.03062
0
-4.27964
0
-1.24562
0
-0.185199
0
-1.24118
0
-7.97384
0
-1.40599
-1.88025
-0.140502
-3.5358
-11.29
0
0
-4.61931
-1.52019
-5.25685
-0.20444
-1.92285
-0.976416
-4.83172
-4.92637
0
-8.37015
-0.993934
0
-5.26065
-3.30044
0
-4.08683
0
-3.23428
0
-0.315832
0
-2.97686
-0.296884
-2.27753
-0.177319
-2.4424
-8.03008
-0.366306
-0.451091
-0.904035
-2.97419
-1.876
-4.62641
-5.32412
-1.44082
-7.48306
-2.57168
-2.12392
-2.82801
-3.06717
-2.13459
-4.91951
0
-4.1273
0
-1.84939
-2.57643
0
-0.0848056
-4.99705
-1.46577
0
0
0
-3.64178
-0.699213
-3.24608
0
-2.0455
0
-4.72121
0
-2.87665
-1.08678
-2.83022
0
-10.3003
0
-5.00609
0
0
-0.0853593
0
0
-6.91804
-1.98962
-6.00875
0
-1.9508
-2.11302
-4.70174
-3.68342
-5.59944
-1.35874
-2.27643
0
-3.25856
-1.66332
-2.69941
-2.35311
-6.03039
-1.47959
-3.14034
0
-2.66043
0
-4.54339
0
0
-2.46021
0
-6.06535
-0.43242
-1.3056
-1.18989
0
-3.51548
-1.01879
-4.59265
0
-5.95938
-0.304435
-3.7669
-1.13593
0
-0.723734
0
0
-4.3923
-2.84272
-5.02324
-0.636458
0
-3.8688
0
-4.19055
-3.90534
-2.41804
-1.37778
-4.87869
0
-5.08629
-0.514013
0
0
-5.75924
-2.82177
0
-2.9891
-0.273227
-6.935
-1.6347
-7.13252
0
-6.02971
-0.592469
-2.27076
-4.42444
0
-3.80926
-4.11808
-0.192837
0
0
-1.21255
-1.77296
-1.4972
0
-5.46328
0
-1.751
-1.20588
-5.45976
0
-0.816976
0
-4.22892
0
-6.52716
-5.09553
0
-8.45541
-4.66015
-3.12689
-2.14981
-3.39864
-2.7091
-4.62664
0
0
-4.84363
-0.879728
-4.07667
-0.999197
0
-4.75614
-0.687495
-6.14347
0
-3.56299
-0.738496
-6.30617
0
-4.17204
0
0
0
-5.97662
0
-6.98003
0
-0.219102
-5.44037
0
-2.68076
-2.3286
-4.00426
-2.41995
-0.033395
-0.724851
-2.71904
-1.02231
-0.115547
0
-1.71602
-3.3967
-5.67577
-1.76426
-6.80764
0
-0.110263
-4.328
-0.0641278
-6.51715
-7.68884
0
0
-1.68556
-4.85156
-1.55765
-7.11306
0
-4.6782
-1.08838
-0.209231
-0.577446
-2.81539
-5.27984
0
-6.4446
-3.89376
-4.48949
0
-4.15959
-3.16987
-0.32947
-2.58094
-4.44543
-3.3566
-3.31134
-5.46873
-0.737964
0
0
-0.299831
-5.31056
0
-5.00333
-4.28431
-0.730645
-1.79307
0
-2.98366
-1.45003
-1.58709
-0.284804
-3.90678
-4.78967
-1.29975
-0.137377
-4.74079
0
-0.00191256
0
-1.84546
0
-5.5764
0
-3.18672
0
-2.34241
0
-3.0785
-2.84919
-1.70435
-1.08995
-2.15586
-1.12429
-1.67049
0
-1.64397
-3.60708
-4.0529
-9.21868
-1.10463
0
-3.44739
0
-0.712573
0
-0.469671
-1.06887
-0.54584
-3.85163
-0.824976
0
-1.06369
0
-3.14947
-0.704105
-0.960147
-4.30383
0
-6.20333
0
-8.14252
0
-3.96149
-0.147158
-9.9159
-3.541
-0.969204
-4.6754
0
-4.84507
-1.02619
-3.28261
-0.584835
-1.03317
-4.59362
0
-3.01915
-1.08043
-0.390295
-5.66058
0
-7.93091
0
-3.8614
-1.79425
-0.231822
-7.8292
-0.192015
-2.76271
-2.25221
-2.12194
-0.983151
-1.97132
0
-4.867
-4.34128
-2.16527
-5.34576
-4.11093
-1.16713
0
-6.30616
-3.09836
-8.98961
-3.71043
-3.08324
-0.526845
-4.51882
-9.16229
-1.74451
-7.99147
0
0
-0.710785
-5.12461
-4.64078
-4.07135
-2.75295
-4.76932
0
-2.28225
-0.806913
-5.06824
-0.615928
-3.55573
0
-5.59214
-2.86549
-1.74379
-3.09323
-4.52232
-2.39592
-5.13225
-4.11425
0
-7.34828
-0.348341
-6.99711
0
0
0
0
0
0
0
0
0
0
0
0
0
0
0
0
0
0
0
0
0
0
0
0
0
0
0
0
0
0
0
0
0
0
0
0
0
0
0
0
0
0
0
0
0
0
0
0
0
0
0
0
0
0
0
0
0
0
0
0
0
0
0
0
-0.0885819
-0.419411
0.0235522
-1.20994
-0.981847
0
-1.91638
-0.724013
-0.972502
-1.96446
0
-1.3419
-1.64577
0
-0.623873
-0.738905
-0.322177
-1.10215
0.0505572
-0.602444
-0.651685
0
-1.62443
-0.504475
0.0428473
-1.20877
0
-1.87779
-0.992013
0
-0.51453
-0.802561
-1.12652
-0.872027
0
-1.37224
-0.856363
0
-3.74133
-0.155248
-0.00528284
-1.56649
0
-0.563885
-2.20821
0
-1.82101
-1.76221
-1.13621
-0.682024
0
-0.823071
-0.350449
0
-2.99851
-0.1864
-0.181085
-1.89104
0
-0.0868789
-2.67842
0
-1.99544
-1.29158
-1.11342
-2.71052
0
-2.02598
-3.01571
-4.07733
-1.41205
-6.06793
0
-0.693225
-2.41197
-5.4877
-5.08199
-2.55351
-1.83976
-3.63337
-1.22711
-4.79862
-3.44501
-0.0201753
-4.35889
-3.20116
0
-5.60249
0
-7.97647
0
-3.87165
-1.19492
-2.12117
-5.40706
-7.56564
-0.361493
0
-1.545
0
-5.19468
0
-2.4136
-3.2818
-0.735665
-5.44897
-0.170151
-0.78137
-0.657446
-0.497789
-1.05547
-0.0468716
0
-0.446236
0
-0.699204
0
-0.667922
-1.51003
-6.97761
-2.11373
-4.29951
0
-0.0854345
0
-1.88553
-5.14297
-0.337351
-3.14514
0
-7.07859
-1.70252
-5.62671
-2.0098
-3.0891
0
-0.486024
-3.21637
0
-0.0124309
-1.11176
-3.26051
-0.948323
0
0
0
-0.855336
-0.823523
0
-4.76004
-2.74972
-1.48852
0
0
-2.28802
-7.28858
-0.0576636
-2.89113
0
-0.728852
-3.00516
-0.56347
-3.99781
0
-3.11561
-0.832796
-4.51085
-0.83307
-0.338541
0
-3.92362
-5.09394
0
0
-2.54306
0
-8.24794
-1.02429
-4.99648
-1.30909
-6.32833
0
0
-7.38097
0
-0.786508
-3.04163
-2.08934
-5.74907
-3.19776
-2.17256
-3.93544
0
-1.1523
0
0
-2.5515
-2.33863
-4.85048
0
-13.5946
-1.16734
-3.6818
-3.45394
-5.03258
0
-2.84493
-0.699089
-2.9539
-0.0658588
-5.18626
0
-0.249726
0
-1.31683
-2.5898
0
-7.73978
-2.43492
0
-1.61616
0
-2.24486
-5.09252
-5.37487
-3.91647
0
-3.4659
0
-1.03672
-2.82555
0
0
-3.44167
0
0
-5.71363
0
-12.2676
-0.921371
-0.751002
-2.18313
-2.33746
0
-2.44112
-0.952169
0
-1.51081
0
0
-1.25121
-7.25322
-0.664224
-2.54251
0
-5.00054
0
-3.69414
-2.68189
-2.86412
-2.72307
0
-6.67564
-0.691231
-4.68048
-3.84358
0
0
-1.1607
-0.754741
0
-4.46006
-0.823743
-1.01285
-1.44496
-1.76209
0
0
-3.71564
-4.17182
-7.81105
0
0
-5.64039
-3.44464
-4.33615
-0.248976
0
0
0
-9.49572
-1.52002
-2.65954
-0.0445501
-1.13275
-0.356389
-1.3193
0
-0.760765
-3.50773
-0.887061
-5.04217
0
0
-1.10205
-0.542567
-3.60918
-0.591068
-2.5277
0
-6.9445
0
-1.41171
-3.35322
-0.105939
-5.20398
-0.684117
-0.442151
0
-2.86843
-1.59579
-7.382
-1.8781
-9.55634
0
-0.0566003
-0.439663
0
-0.0857977
0
-2.05825
-0.110986
-3.92645
0
0
-6.08267
-0.202928
-0.949842
0
-1.40377
-2.00454
0
-0.274769
-3.56907
-4.67571
-6.79613
0
0
-1.62307
0
-2.79143
-6.70014
0
-0.848079
-2.51605
-4.91193
0
-2.83902
0
-3.96374
-6.33649
-0.56897
-1.67761
0
-1.19331
-6.75049
-2.15855
-5.74716
0
-6.45177
-1.83
-1.30274
-1.639
-5.91691
-0.748978
0
0
-0.541822
0
-0.808892
-3.75254
0
-3.40048
-0.258937
-1.85661
-1.23274
-1.07118
-2.11971
-5.90542
-0.725795
-8.66323
0
0
-8.90173
0
-9.0777
-1.31302
-9.26571
0
-9.58194
-1.23571
-6.92456
0
0
-2.07916
-3.07775
-1.9051
-1.90808
-5.4402
-3.78412
-2.47333
0
0
-2.6171
0
-0.520625
-0.950946
-0.472457
-0.566844
-1.91675
-6.91821
-0.813486
-4.79669
-1.05716
-3.52525
-0.393426
-1.17571
-2.44943
-0.632508
-4.57233
0
-6.6981
0
-3.67826
-0.770568
-3.42081
-1.23634
-1.27803
-3.28625
-4.38906
-3.43907
-7.28965
-4.47756
-3.65946
-1.25552
0
0
0
-1.9455
-0.894271
-13.5974
-0.87613
-13.0134
0
-3.43235
-1.65025
0
-0.549911
-4.40219
-1.53156
0
-6.28409
0
-5.68802
0
-7.07745
0
-4.43758
0
-4.07498
-0.968508
0
0
0
0
0
0
0
-1.84754
-0.576968
-3.3433
-2.68402
-4.0683
-2.48387
0
0
-0.323278
-0.375243
-2.53111
-3.55068
-0.416139
0
-1.83835
0
-0.701629
0
-7.65685
0
-5.75739
-0.256702
0
0
-5.18772
-2.70512
-5.58933
0
0
-4.84834
-1.55707
-6.20254
0
-4.01043
-0.357947
-0.866353
0
-1.36837
-2.09322
-12.2079
-1.66607
-2.6912
0
-1.11828
-4.34416
-3.41477
-3.05306
0
-7.54333
0
-8.67179
-5.04665
-4.59966
0
0
-3.1495
0
0
-2.51068
-3.47129
0
-0.55848
-1.1458
-1.26052
-2.84167
-0.212775
-0.073177
-2.07293
-2.23193
-3.77185
-3.01718
-0.319532
-3.29323
-2.74453
-2.26187
-0.961265
-5.5512
0
-4.34142
0
-2.39986
0
-5.99819
-4.34273
0
-0.154712
0
0
-6.2449
-4.41218
0
-0.891857
0
-11.5009
-2.04177
-0.228315
-1.20078
-3.41295
-2.25887
-5.50735
-2.69885
-0.958988
-4.10059
-5.30353
-3.73718
-1.31019
-0.560024
-5.63907
-3.39145
-8.01441
-1.42708
0
-6.22578
-1.71499
-7.43541
0
-5.47408
-5.55207
-11.2593
0
-4.68095
-0.603741
-1.12546
-1.27379
-0.291176
-6.95972
-0.0630636
-3.70636
-1.63753
0
0
0
0
-1.70732
-5.90049
-1.36166
-4.76947
-2.32342
-2.46677
-0.169127
-7.63409
0
-6.3612
0
-0.805658
-2.16707
-0.349268
-6.73898
-1.31905
-4.46105
0
0
-3.86815
0
-1.63765
-2.45814
0
-1.21077
0
-0.962468
-5.20052
0
-8.72021
0
-6.20067
-0.756342
0
-4.3436
0
0
-3.42621
-0.0438261
-0.458541
-0.757684
-6.87373
0
-2.8486
-0.498766
-0.778632
0
0
-3.72677
0
-2.83123
0
-7.05997
-1.60838
0
-3.00696
0
-3.98346
0
-5.58343
0
-7.81713
-3.46286
-0.330925
0
-1.01308
-3.73578
-0.416345
-5.84026
-0.379612
-1.6056
0
-9.21627
0
-4.51068
0
-0.445058
0
-4.26292
-1.47634
-4.60923
-1.43839
0
0
0
0
0
-0.138874
-2.72562
-1.96282
-7.93079
-0.437159
0
0
0
0
0
-2.18883
0
-1.80125
0
0
0
-3.55305
-3.94627
-6.79095
-1.22946
-7.20981
-3.45835
-6.86588
-1.8439
0
-2.2729
-0.40199
-0.652851
0
-4.91211
0
-0.196833
0
-11.1857
-0.127214
-5.90602
-0.56252
-0.0705767
-1.64252
-7.26624
-0.0591344
0
0
-1.34646
0
-1.30493
-0.827853
-4.44508
-0.846275
0
0
0
-7.79618
-1.00858
-0.971359
-0.310618
-4.99819
-5.44292
0
-2.27186
0
-1.99795
-0.146341
-1.9682
-2.04714
-0.415407
0
0
0
0
0
-1.27709
-3.46456
-1.37316
-4.21057
0
-1.05934
-4.02396
0
-3.13826
0
-4.47193
0
-6.55886
0
-2.08775
0
-5.18086
0
-5.49169
-2.41489
-6.24183
0
-1.71637
-4.16346
-4.41136
-2.07669
-0.731304
0
-1.51959
-3.50393
0
-14.0391
-2.15356
-6.13592
0
-3.7822
-1.90489
0
-0.772783
-4.47318
-2.29317
-1.19966
-1.05479
-7.1737
-0.428692
0
-1.09226
-2.1478
0
-8.85713
-1.44049
-3.81665
-1.48861
-0.430081
-6.24605
-2.18858
0
-2.97912
0
-5.01711
0
-9.14172
-0.170426
-3.76206
0
-5.16279
-0.745982
0
-0.301843
0
-4.73899
0
-3.63453
0
0
-3.46732
-3.11138
-0.845087
-4.72755
-5.30563
-1.8811
0
-0.366996
-0.0988184
-0.974227
-2.67949
0
0
-4.05957
0
0
0
-1.592
-6.40774
0
0
-3.42627
-0.458068
-0.241008
-6.71973
-0.0541201
-2.12387
-3.16955
-1.30491
-1.55084
-2.26909
-1.35769
0
0
-1.65608
-1.26199
0
0
-5.99301
0
-4.32855
0
0
-0.700893
-1.91611
-4.64086
0
-2.38116
0
0
-1.38609
-4.11755
-1.82776
-3.20399
-2.65663
-2.41987
-4.79282
0
-3.32765
-0.0709073
-1.32476
-2.69705
-0.508927
-4.34454
-0.656223
-0.79253
0
0
-3.32793
0
-2.96685
0
-3.0572
0
-2.85265
-0.474899
0
0
-0.792399
0
0
0
-3.83688
-3.14363
-8.3599
0
0
-1.02972
-4.70102
-0.632871
-9.43221
-0.680182
-2.52466
0
-4.8665
-1.10246
-0.850964
-1.43472
-3.469
-0.421107
-3.50376
-1.05689
-3.47445
-2.08595
-1.41384
0
-5.79637
-3.78482
-5.88747
-1.62866
-1.36477
-0.403993
0
-0.415729
0
-0.237958
0
0
0
0
0
0
0
0
0
0
0
0
0
0
0
0
0
0
0
0
0
0
0
0
0
0
0
0
0
0
0
0
0
0
0
0
0
0
0
0
0
0
0
0
0
0
0
0
0
0
0
0
0
0
0
0
0
0
0
0
0
0
0
0
0.0738055
-0.808655
0.00350515
-0.512555
-1.14861
0
-1.23978
-1.35886
-0.451823
-0.187274
0
-2.01192
-1.54414
0
-2.15465
-1.20558
-0.416031
-1.57986
-0.103139
-0.869183
-0.746868
0.0219957
-0.276635
-0.837257
0.135238
-1.31693
0.0194564