<?xml version="1.0"?>
<VTKFile type="RectilinearGrid">
<RectilinearGrid WholeExtent="0 32 0 32 0 32" Origin="0 0 0" Spacing="1 1 1">
<Piece Extent="0 32 0 32 0 32">
<PointData>
</PointData>
<Coordinates>
<DataArray type="Float32" format="ascii">
0 0.524874 1.04975 1.57462 2.0995 2.62437 3.14924 3.67412 4.19899 4.72386 5.24874 5.77361 6.29849 6.82336 7.34823 7.87311 8.39798 8.92285 9.44773 9.9726 10.4975 11.0224 11.5472 12.0721 12.597 13.1218 13.6467 14.1716 14.6965 15.2213 15.7462 16.2711 16.796 
</DataArray>
<DataArray type="Float32" format="ascii">
-5.03879 -3.62163 -2.20447 -0.787311 0.629849 2.04701 3.46417 4.88133 6.29849 7.71565 9.1328 10.55 11.9671 13.3843 14.8014 16.2186 17.6358 19.0529 20.4701 21.8872 23.3044 24.7216 26.1387 27.5559 28.973 30.3902 31.8074 33.2245 34.6417 36.0588 37.476 38.8931 40.3103 
</DataArray>
<DataArray type="Float32" format="ascii">
0 0.524874 1.04975 1.57462 2.0995 2.62437 3.14924 3.67412 4.19899 4.72386 5.24874 5.77361 6.29849 6.82336 7.34823 7.87311 8.39798 8.92285 9.44773 9.9726 10.4975 11.0224 11.5472 12.0721 12.597 13.1218 13.6467 14.1716 14.6965 15.2213 15.7462 16.2711 16.796 
</DataArray>
</Coordinates>
<CellData>
<DataArray type="Float32" Name="Scalar" format="ascii">
0
0
0
0
0
0
0
0
0
0
0
0
0
0
0
0
0
0
0
0
0
0
0
0
0
0
0
0
0
0
0
0
0
0
0
0
0
0
0
0
0
0
0
0
0
0
0
0
0
0
0
0
0
0
0
0
0
0
0
0
0
0
0
0
0.300298
-1.01445
0
-0.346098
-0.848462
0
-0.361867
-0.495829
-0.650067
-0.480482
0
-0.295262
-0.421394
-0.0476633
-1.37123
-1.03576
0.27326
-0.863326
0
0.00506221
-0.0284477
0
-0.344371
-0.592827
-0.199423
-0.153005
-0.100119
-0.346857
-0.696709
0.012369
-0.404699
-0.0901961
-0.335873
-0.966512
0
-2.76189
-0.354527
0
-0.255315
0
-0.106518
-0.920976
0
-0.114807
-0.759584
0
-1.19962
-0.0240629
-0.484315
0
0
-1.4617
-0.938112
0
-1.70359
0
0
-1.84207
-0.0542389
-0.18609
-0.163068
0
-0.443813
-0.522574
0
-2.4139
0
-3.47651
-4.92309
-0.717108
0
-2.80204
-0.154652
0
-1.50906
-0.171941
-4.88714
0
-0.336036
-1.62845
-3.58564
-2.12679
-0.977365
0
-1.7488
0
0
-1.79012
-3.31744
0
-3.14481
-1.233
0
-0.765586
-3.81789
0
-4.11599
-1.22429
-1.80999
0
-5.79937
-0.564496
-0.815867
0
-6.42919
-1.15039
-3.45505
-4.79763
-5.83174
0
0
-0.73712
-3.19089
-0.276528
-6.66879
-1.63246
-0.947428
-5.85915
-0.313736
0
-0.45579
-7.60887
-0.0449847
-1.93929
-1.10364
0
-0.442245
-0.43237
-1.02602
0
-7.09942
0
-5.2203
0
0
-2.2919
-1.36185
0
0
-2.64205
-3.559
-1.51298
-2.09837
-6.8991
-4.87885
-1.68009
-0.954688
-0.420837
-1.04246
-2.09915
0
-0.0661615
-0.331795
-3.08214
-2.16841
-8.60749
-0.439518
-2.75033
0
0
-0.2053
-1.18328
-4.08903
0
-2.28806
-3.58514
-0.492091
-0.402621
-1.01251
-3.94491
-2.36883
-1.04393
-3.06658
0
-0.645322
-0.390597
-4.75502
-0.785863
0
0
-5.92733
-2.65737
-0.293536
0
-0.782496
-3.74982
-0.59392
-2.21066
-4.29328
-0.175773
-0.0403956
-3.77326
-4.92414
-2.36547
-1.68469
0
-7.50327
-1.57914
-1.94532
-0.531395
0
0
-6.43902
-1.4842
-1.94598
0
-4.39807
-0.870889
-3.53499
-0.291732
-2.08873
-8.2984
0
-0.310688
0
-8.68678
0
-6.74298
-2.35447
-7.69584
-4.96301
-5.29298
-6.61536
-2.69517
-5.02159
-1.21977
-0.480121
-3.84214
0
-4.02013
0
-3.94815
-0.806703
-2.41726
-0.932159
-0.400945
-0.467541
0
-0.132645
-3.97056
0
-3.73647
0
-1.93582
0
-3.81464
-5.47784
-3.6173
-0.213208
-0.751065
-6.51377
-0.649785
0
0
0
-0.887124
0
-0.588981
-2.44667
0
-1.66096
-3.96327
-3.50401
-0.0765343
-2.43848
-1.6877
-2.72387
-3.62469
0
0
0
-6.02404
-4.26447
0
-6.36893
-2.85259
-8.18113
-0.458508
-4.3427
-0.560945
-1.43658
-0.177469
-9.08514
-6.25307
-2.01426
-9.63135
-2.57697
-0.803022
0
-5.55158
-2.2376
0
0
-6.01425
-3.02833
-1.34205
0
0
-4.35764
0
-0.492134
-3.82893
-1.9165
-1.07269
0
-3.49508
0
-2.35957
0
-0.19222
-0.665594
0
0
0
-0.621861
-6.3282
0
0
-2.8213
-0.287781
-2.54855
0
-6.04518
-2.85455
-4.70108
-0.915401
-0.769764
-1.00919
-3.93347
-4.5509
0
-8.7935
-2.48961
-2.91326
-1.38666
-5.01122
0
0
-4.81579
-1.5888
-4.07448
-3.2889
-4.62462
0
0
-0.106813
-1.19551
0
-8.10964
0
0
0
-0.751514
-6.37542
-1.77853
-4.43492
-2.01458
-0.303475
-2.05954
-1.8037
-0.69286
-2.31654
0
-9.87821
-0.311037
-1.10863
0
-1.99161
-3.45102
-2.83277
-4.31197
0
-3.90322
0
-1.45451
0
0
-0.41433
-0.593594
-5.47821
-4.05609
-2.3962
0
-5.37806
0
-1.79318
-1.88784
-2.64233
-0.0763317
-0.109654
-7.39797
-2.92352
-5.14575
-5.78448
-1.79729
-2.11381
-4.61129
-2.43375
-2.65451
-0.819602
-4.90172
-2.09674
-2.99416
0
0
-2.86612
0
-6.72681
-2.30012
-2.13582
-4.89496
-3.1953
0
0
-2.18476
-2.72169
-4.86217
0
-2.54239
-2.97652
-5.0597
-1.07639
0
-0.0195093
0
-4.74656
-0.0497247
-0.951986
0
-2.93888
-1.95128
-0.117443
0
-3.57415
-1.00215
-6.41695
-0.211222
-1.58188
-1.10321
-1.79808
-0.801581
-0.152977
0
-0.912658
0
-4.20562
-1.32762
0
-1.32715
-2.24867
-3.84037
-2.08457
-4.50389
-1.23633
-2.37491
0
-5.02506
0
0
-0.125623
-0.220178
-6.074
-0.454699
-2.70788
-2.97045
0
-6.3451
0
0
0
-1.53954
-3.73581
-1.08934
-0.721149
-1.23115
-3.87856
-4.67023
-3.21153
0
-1.75462
-5.0869
-0.786763
-4.09996
0
0
0
-3.22467
0
-1.47063
-0.133988
-0.0155372
-8.49814
0
-0.898377
0
-4.33461
-1.58846
0
0
-7.12908
-0.535246
-2.1418
-2.25814
0
-0.615468
-3.94996
-1.62685
-5.05908
-0.691599
-2.00845
0
-1.71326
-0.778201
0
-0.136912
-4.15233
-0.105594
-0.12403
0
-1.96097
-2.55903
-1.79706
0
-0.974366
-3.50905
-1.51697
-1.9132
-1.62086
-3.89109
0
-1.43619
-4.19131
-0.364261
-2.15508
-0.856686
-3.90576
-0.617038
-0.612766
-2.27739
-7.30654
-0.418892
-6.40933
-0.149243
-2.68169
-4.5347
-8.98796
-2.04616
-1.24302
-1.93935
-0.522424
-4.20716
-1.35983
-2.12875
-4.17847
0
-3.68529
-1.9474
-2.72995
0
0
-0.307084
-1.69478
-2.77515
-1.59466
-0.112539
-0.138936
-1.05858
-3.52858
-2.94072
-0.343849
0
0
-0.812097
-1.32763
-3.78147
-8.66017
-5.63379
-1.59356
-1.55627
-2.10951
0
0
-0.64671
0
-1.69958
0
-1.84894
-1.20221
-1.80712
-4.47544
0
-1.01492
-1.42562
-0.430612
-3.78258
0
-5.06291
-1.81971
-3.82039
0
-1.30387
-1.6782
0
-7.73507
-0.653481
-0.976477
-8.28253
0
-1.81438
-0.0903142
-2.84701
-2.71492
-2.76421
0
-1.93267
-2.03786
-1.74128
-4.41439
-8.15718
-5.34393
-7.54801
0
-0.666564
0
-1.49536
-3.40235
-1.34801
0
0
-5.94503
-2.89982
0
0
-3.59129
-3.26488
-2.0209
0
-2.83308
0
-0.683624
-1.19197
-0.119856
-2.55823
0
-1.05007
-1.16898
-4.20386
-0.0679231
-4.83133
0
-5.53412
-1.5377
0
-4.03666
-2.05644
-4.66995
-1.06742
-4.51292
-3.04047
-3.05557
-0.584699
-4.72249
-0.0347428
-2.66165
0
-2.77507
-3.62835
-2.60651
-3.44268
-1.77499
-1.57819
0
-1.89955
-1.58328
-4.05333
-1.66015
-2.23681
-0.665108
0
0
-1.74994
0
-0.735866
0
-4.81902
-5.39523
-0.384102
-0.77585
-2.11684
-4.12177
-2.02369
-1.80238
-2.46362
-2.65595
0
-1.01139
0
-1.69601
0
-10.9007
-0.875404
-1.67253
-2.82346
-2.71445
-4.23804
-3.03782
-1.13026
-1.1973
-7.41695
-0.552826
-1.844
-0.734118
-3.8308
-1.53722
-3.05408
0
0
0
-7.89029
-1.44772
-5.07812
-0.93977
-4.66363
-1.77014
-1.95958
-1.04166
-2.25497
-1.2067
-4.4061
-2.26443
-0.415106
-0.216469
-0.877126
-9.90948
-1.20921
-2.28362
-4.8453
-0.0400243
-0.629408
-0.280511
0
-3.44035
-2.50438
-0.594689
-0.387554
-3.28152
-0.231084
0
-7.05997
0
-7.19491
-4.75107
-5.43227
0
0
-10.2791
-0.074085
-2.24503
-0.167873
-4.18656
-0.51382
-7.32522
-2.27863
-0.867113
0
0
-2.1772
-0.262738
0
-4.78821
0
-2.31068
0
-0.842369
0
-5.78083
0
0
-7.76885
-0.640571
-3.61593
-3.12779
-2.98161
-3.47997
0
-2.26001
-2.81291
-1.05821
-1.0566
0
0
0
-10.3485
-2.71472
-1.04793
0
0
-1.95429
0
-7.5996
-0.154976
-3.61684
0
-5.08919
0
-2.11619
0
-4.62815
0
-6.08652
-2.07605
-3.23533
-1.04663
-4.45111
-0.608002
-2.00559
-1.52377
-2.65612
-4.62567
0
-3.55949
-5.92205
0
-3.33705
0
0
0
-1.93335
-1.48379
-2.54029
-0.740678
-0.524797
-1.47709
-3.66621
-0.847296
-1.73816
-6.19918
-5.92025
-0.141585
-5.8815
-0.892845
-3.45499
0
0
-6.25252
0
-4.58358
-1.4255
-0.728851
-9.16068
-0.226411
-1.19613
-5.75324
-0.842815
-1.51195
0
0
-5.64478
-0.356186
0
-4.03427
-2.08426
0
0
-5.91325
-1.85925
-1.74273
-3.18461
0
-6.93571
0
0
-3.29381
0
-6.67871
0
-1.29512
-2.11186
-8.64679
0
0
0
0
-3.10271
0
-6.15069
-0.43304
0
0
-6.19533
-0.804913
0
0
-2.55704
-7.07062
-0.94844
-6.40646
-4.57403
-5.97426
-7.46001
0
-6.85888
-1.3668
-4.53575
-4.96953
0
0
0
-1.75431
0
-3.17096
-0.117814
-2.60198
-0.17524
-6.76183
-0.196572
-7.70426
-4.81731
-0.230988
0
-5.87531
0
0
0
-7.31643
0
-6.93622
0
-3.76509
-1.8511
0
-2.78185
0
-3.01034
-5.83141
-2.78728
-2.35683
-1.6379
-3.14019
-5.30736
-2.48012
-1.85188
-4.06637
-5.98139
-3.59897
-7.44361
-5.27302
-5.28428
0
-12.5334
0
-7.84594
-4.15404
0
0
-0.896832
-0.778032
0
0
-2.24984
0
0
0
0
0
0
0
0
0
0
0
0
0
0
0
0
0
0
0
0
0
0
0
0
0
0
0
0
0
0
0
0
0
0
0
0
0
0
0
0
0
0
0
0
0
0
0
0
0
0
0
0
0
0
0
0
0
0
0
0
0
0
0
0
-0.208535
-0.938732
0
-1.64166
-1.87222
-0.158092
-1.52979
-0.864899
-0.139881
-1.52863
-0.0201484
-2.23722
-1.23764
0
-1.62073
-1.17816
-0.607948
-1.1924
0
-1.58043
-1.7199
0.0891287
-1.59913
-0.517856
-0.214508
-1.674
0
-1.15596
-1.19102
0.00137375
-0.48634
-0.498842
-0.199152
-0.977109
0
-0.166044
-2.42828
0
-0.326002
-1.14417
-0.265341
-0.500095
0
-2.98976
-1.08764
-0.398466
-2.65506
-0.178177
-1.16798
-1.87761
0
-0.340507
-1.14111
0
-0.768022
-2.35648
-0.337359
-1.9159
0
-2.01234
-0.444719
0
-2.67725
-1.58396
-4.17913
-5.85112
-1.88744
-3.6306
0
-6.68116
-3.70358
-4.0524
-0.602423
-7.19968
-0.350757
-1.36088
-5.19175
-1.55474
-8.01982
-2.21573
-1.93619
-4.62409
-2.71322
0
-4.6094
0
-4.13104
-0.598848
-4.23286
-2.94042
0
-3.13941
-6.47926
-1.02947
-0.693708
-1.48306
0
-1.74241
-5.04952
-1.18374
0
0
-6.29498
0
-0.864164
-1.48577
0
-2.66932
-2.3496
-4.43609
-7.72471
-5.11017
-2.15331
0
0
-6.95571
-2.25203
-3.67142
-2.22935
-9.01764
-1.89809
-0.573848
-1.19711
-3.10502
-2.04917
-3.48403
-0.275942
-0.0677408
-6.69765
0
0
-1.08147
-3.39757
-2.92209
-2.70928
-0.723128
-2.97203
-2.31045
-3.48498
0
-0.773155
-0.094814
0
0
-5.87536
-0.401052
-6.78153
0
-7.63817
0
-6.17308
0
-2.8795
-6.41732
-4.43172
-0.612572
0
-3.56692
-0.449348
0
-4.39142
-0.525357
0
-9.04214
0
-2.12091
-1.21157
-4.28329
0
0
-0.0337029
-0.940149
-3.14058
-4.84714
-3.99748
0
-4.02428
-0.680278
-6.74519
-0.78996
-0.894648
0
-8.60457
0
-5.25336
0
-2.64452
-8.11123
0
-3.56564
-2.76168
-1.05898
-3.44684
-1.66707
-4.22484
-1.06645
0
0
-8.59013
0
-8.45942
0
-1.86455
0
-3.02618
-0.720397
-3.8419
0
-1.64284
-3.97322
-3.01999
-0.00865375
0
-4.94099
-0.907165
0
-6.14432
-9.68172
-0.109759
0
0
0
0
-2.01578
-1.29987
-6.26681
-2.58166
-2.82737
-1.68331
-0.590214
-3.4388
0
0
0
-1.65226
0
-5.86664
-0.260577
0
-2.02657
0
-2.20794
-4.87623
-2.30035
-4.77732
-2.84283
-1.90436
-3.56226
0
-4.8084
0
-5.93181
-3.64593
-2.09096
-3.18154
0
-2.06044
-3.38971
-1.88319
-4.03347
-2.42957
-3.45819
-1.92231
0
-7.85545
0
-2.37545
-3.71841
-6.18679
-1.05412
-8.90002
0
-3.97458
-4.0601
-5.94865
-1.72996
-0.0984054
-2.70062
-0.258358
0
-7.12082
0
-6.0886
-1.19529
-1.20376
-0.238552
-0.551844
-9.03113
-5.86455
-4.55149
-0.00912438
-6.02309
0
0
0
-4.16732
0
-5.93741
0
-3.11619
-5.30583
-1.6148
0
-5.27748
0
-1.49116
0
-1.61332
-0.150923
-2.21734
-1.17392
-4.62209
-1.29232
-7.45213
0
-1.65231
-8.93398
-4.10849
-3.42453
-1.35201
-3.52735
-0.0224296
0
-1.03258
-1.82982
-4.52682
-0.583048
-3.91932
-2.91306
-1.93968
-0.966437
-1.4992
0
-1.77864
0
-0.425329
-3.25869
-1.80225
-0.735116
-4.04588
0
-0.422665
-1.00756
-6.24396
-4.83571
-2.13053
-1.15122
-4.50459
0
-1.84102
-8.13546
-5.45312
-1.64041
0
-2.0964
-0.851148
0
-0.01496
-1.1391
-0.926071
-2.50792
-7.48537
0
0
-0.0523373
-5.86968
-4.92434
-2.85029
0
-4.59099
0
-5.15505
0
-3.76822
-1.87005
-4.19449
-0.353327
-4.11741
-6.2104
-1.82784
0
-2.63449
-2.42616
-3.25894
-2.04897
-0.433187
-4.08246
-0.304531
-8.34987
-5.5601
0
-0.167086
-3.14647
0
-1.92979
-1.93914
0
0
-3.41168
0
-2.70779
0
0
-4.70622
-1.38498
-7.54183
0
0
-3.87065
-3.27997
0
0
-5.25525
-2.22164
0
-0.819181
-0.164613
0
-0.761337
-0.139666
-0.46147
0
-6.36031
-4.86354
-5.94185
0
0
-5.44547
-0.18927
-12.3687
-3.11541
-5.79515
-5.12033
-2.99501
0
-0.637262
-1.26274
-6.108
-2.63977
-3.89992
-2.29214
-0.442142
-2.67279
-0.605088
-2.06883
-0.220188
-3.91846
-4.74106
-0.52992
-5.82675
-1.17983
-1.25838
-5.08927
0
-3.25459
0
0
-3.04663
0
-6.30053
0
-3.93491
0
-2.90451
0
0
-1.35155
-3.41219
-3.31568
-4.89415
-4.63812
0
-2.17703
0
-9.92697
0
0
-5.00202
-1.72061
-1.01534
-0.125837
-1.89375
-0.11226
-1.71622
-3.51511
-1.23071
-7.98754
0
-5.6473
-0.385308
-4.80917
-0.795339
-2.57892
-4.99446
-1.9427
-3.40041
0
-8.78867
-1.01955
-0.230261
0
0
0
-1.27245
-1.19749
-1.29011
-0.204111
-0.124896
0
-1.86104
-0.184064
-3.85604
0
-7.2405
-1.88219
0
-10.7257
-0.197517
-3.9312
-1.16681
0
-2.63489
-3.86477
-2.51991
0
0
-4.79998
-0.998803
0
-7.08451
-0.906069
-0.250044
-5.91333
-4.76102
-5.10371
-0.911842
-0.704972
-4.74511
0
-0.83403
0
-0.648844
-0.419711
-0.962487
-2.50876
0
-0.946465
0
-1.1155
-0.182478
-5.8645
0
-0.879483
0
-1.37444
-3.83034
0
-1.69821
-2.23181
-0.595601
-0.860782
0
-1.84007
0
-2.72693
-1.56563
-1.615
-2.1914
0
-4.98804
0
-1.54174
-1.67869
-0.366668
-0.956127
0
0
-0.340065
-0.856555
-10.6632
-0.282355
-4.05591
-2.91034
0
-4.15964
0
-1.0065
-2.58802
-2.79465
0
-1.73166
-2.44962
-1.63998
-4.65371
0
0
-1.24155
0
-2.08801
-5.4175
-3.60393
-2.16474
-1.08802
-4.13296
-1.94298
0
0
0
-0.0307783
-2.29919
-1.18522
0
-2.11869
-2.07478
0
-0.145855
-5.29877
-0.431183
0
-1.4566
0
-3.0035
-5.90315
-2.4982
-3.79676
-0.977636
-6.08697
-1.27241
-5.76512
-0.182005
0
-6.36564
-1.87139
-4.89406
0
-2.13118
-0.748467
-2.85209
0
-4.96798
-4.29241
-1.89585
-1.03104
-5.57682
0
-4.98668
-3.19262
-3.81966
0
-0.715582
-7.37846
0
-7.11993
-2.37086
-0.646107
-0.678583
-1.47359
0
-0.728915
-3.55128
-0.787012
-1.51573
-2.55534
-0.993996
-4.74775
0
0
0
-6.8082
0
-3.4468
-2.02037
0
0
0
-6.1805
-0.619497
-2.13282
-2.85247
-3.5669
-3.45474
-4.22866
-5.5137
-4.6569
-5.30189
-0.280142
0
-4.21252
0
0
-0.635004
-2.47526
-3.34448
0
-3.11037
-0.854301
0
-11.4933
-5.53158
-6.80524
-1.23784
-3.27259
-5.45051
-0.217532
0
-2.07522
-5.17977
0
-2.36104
-2.14683
-1.96647
-4.86757
-10.1925
0
-7.2332
-4.60563
-5.1962
-2.27046
-4.49234
0
-0.0843074
-3.00638
0
-2.58771
-0.122274
-0.786983
-5.89662
-0.487
-7.19308
0
0
-5.00497
-2.92869
-3.97409
-0.937468
-2.42154
-2.52449
-6.80993
-2.41986
-7.90031
-2.31942
-3.09118
-3.711
-6.87401
0
0
0
-0.502079
-3.08901
0
-2.6355
-3.86046
0
-4.93699
-1.82639
-1.6122
-2.71021
-2.82323
-1.14935
0
-0.445614
0
-0.939958
-0.649332
-2.62866
-3.03591
-2.71766
-4.0716
0
0
-1.81047
-1.28578
0
-3.79635
-0.0339002
-1.31179
-2.58443
-5.48016
0
0
-4.68626
0
0
-5.02177
-0.939503
-3.35005
0
-0.862842
-2.66349
-0.952315
-1.75623
-7.05123
0
0
0
-3.27967
-0.278945
0
0
-3.23183
-5.83576
-1.31024
-4.84904
-3.12069
-4.13204
-4.66142
-0.15039
-3.36326
0
-4.59411
0
-5.03368
0
-4.70096
0
-3.77159
-0.37202
-2.66968
-0.0316151
-1.6949
-0.0919835
-4.41505
-1.36245
0
-3.52255
-2.10382
-6.86189
-2.08563
0
-3.58847
-0.331993
-0.21699
-4.63014
-0.618065
-5.80848
0
-0.0789795
0
-0.516412
-2.1084
0
-4.33993
-0.515335
-6.17677
0
-4.59486
-1.23745
-9.35532
0
-2.68762
-0.546849
-5.69689
-1.48604
0
-3.02766
-0.98909
-7.86319
-1.58703
-1.90286
-3.62377
-1.23476
-2.92791
-4.69459
-2.11184
0
-5.93276
-0.930122
0
-0.293473
0
-3.86175
-3.09415
-1.16456
-0.831239
-0.308029
0
-5.74359
-0.0214026
-0.470749
-3.1438
-1.71179
-2.28271
0
-1.31155
-2.08671
-0.829313
-0.0514322
-3.2428
-3.73069
-0.0722136
-3.82124
-1.39646
-6.72388
0
0
-2.32365
0
-0.988816
0
-6.39596
0
0
0
0
-1.85316
-5.19825
-3.7218
-5.19493
-3.01432
-6.27778
0
-0.754686
-11.3056
0
0
-6.78043
0
-1.25874
-6.86118
-5.70085
-0.884683
-1.66971
-3.75595
-2.29818
0
-5.53045
0
-1.93725
0
-4.31041
-1.94368
-1.09436
-0.620666
0
-1.88959
-1.37448
0
-6.74383
-0.0805102
-1.98359
-0.135299
-5.01711
-2.17131
-1.90485
0
-2.82661
-3.36852
-2.08109
-5.64541
0
-1.47375
0
-0.907362
-2.19774
-6.09768
-2.71577
-1.84666
-5.15051
-1.91317
-4.05108
0
0
0
0
0
0
0
0
0
0
0
0
0
0
0
0
0
0
0
0
0
0
0
0
0
0
0
0
0
0
0
0
0
0
0
0
0
0
0
0
0
0
0
0
0
0
0
0
0
0
0
0
0
0
0
0
0
0
0
0
0
0
0
0
0
0
0
-0.0479084
0
0
-0.553243
-0.00930194
0
0
0
0
0
0
0
0
0
0
0
-0.173705
0
0
-0.102404
0
0
0
0
0
-0.139502
0
-0.0550745
0
0
0
0
0
0
0
0
-0.0908432
-0.122123
0
0
0
0
0
0
0
0
-0.108092
0
0
0
-0.317692
0
0
0
0
0
0
0
0
0
0
-2.21924
-2.4351
0
-0.955026
-7.43738
0
0
-1.37021
-0.116498
-1.33542
0
-5.29705
0
0
-1.08605
0
-1.7288
-2.4081
-3.48131
-6.20237
-1.25875
-3.39884
-2.1036
-0.374437
-1.75284
-4.90879
-0.91039
0
-3.46614
-0.662934
-3.80372
-3.10347
-3.5894
-3.86571
-4.21494
-0.439197
-0.631492
0
-0.420525
-0.549131
-1.41881
-3.14612
0
-4.13589
-4.11671
-1.20953
-1.2619
-0.651656
-0.718406
-6.18151
-2.03972
-1.40785
-2.8542
-1.93904
-0.625245
0
-0.339843
-1.48672
-0.451159
-1.84336
0
0
-5.58421
-8.35092
-0.0135871
-3.98813
-1.73046
-1.26253
0
-0.602639
-2.77825
-0.719649
-1.05829
-3.66644
-0.769747
-1.89924
-1.63287
-1.80876
-1.80852
-1.45086
-1.72608
-1.38698
-0.563714
0
-0.787435
-3.19421
-0.323313
0
-4.05156
0
-7.30718
-1.90309
-9.05138
-5.64327
-4.3053
-3.19168
0
-3.46685
-2.14725
-4.55976
-0.940036
-6.08507
-0.980252
-8.16334
-2.46538
-6.35633
-3.14947
-4.95416
-3.40846
0
-4.36934
-3.01187
-1.93101
-0.171769
-1.71745
0
-4.07353
0
-5.39727
0
0
-6.97511
0
0
0
0
-0.198869
-0.959305
-0.854634
0
-6.26664
-0.299958
-6.31117
-2.28368
0
-3.00757
-3.12915
-1.4174
-5.15789
-0.159989
-4.7038
0
-1.57031
-2.1186
-5.7718
0
-4.31089
-4.7767
0
0
-3.4214
0
-4.11073
0
-1.22374
0
-8.08755
-2.54263
-7.54922
-2.76836
-3.28711
0
0
0
-4.77521
-2.0394
-3.86375
-2.92988
-5.00796
-2.9553
-3.6647
-2.59187
0
-1.64349
-7.05508
0
-1.87169
0
-1.04751
0
-0.721691
-0.0408042
0
-4.53216
-0.506892
0
-2.56494
-4.15764
0
0
-2.23807
-3.69284
0
-4.28085
0
-4.24339
-1.60627
-0.889317
-6.27018
-6.29455
0
0
-5.40735
-1.9886
-0.426081
0
-0.0293308
-2.18539
0
-4.55939
0
-4.88289
-0.567086
-0.206664
-3.30297
0
0
-1.19849
-1.58177
0
-2.20391
-3.67983
-2.05233
-5.03774
-1.56182
-6.40063
0
0
-0.975409
-6.2586
0
-1.63562
0
0
0
-2.88346
-1.20889
-6.04924
0
-1.78064
0
-7.66124
0
-4.78941
-6.7203
-1.56946
0
-10.077
-0.208451
-0.104431
-1.50066
0
-1.76134
-4.25074
-4.80122
-1.15425
-0.484391
-3.46494
-0.306421
-3.73292
0
-3.06408
-6.71376
-0.754122
-0.582906
-2.12475
-4.29507
-3.47531
-5.18475
-2.22945
-3.54813
-3.04563
0
-0.0802133
-5.453
-3.53266
-0.760516
-11.4789
0
-0.0321411
0
0
-0.203252
-4.56337
-5.54802
-1.25729
0
-0.338422
-3.3203
-2.9962
-0.618858
-3.89496
0
-3.09802
-2.43878
-4.84893
0
0
0
-3.28418
-2.90251
-0.96448
-1.11591
-5.45692
-4.78082
-2.67321
-3.17424
-2.72777
0
-9.48582
0
-2.43721
-3.38387
0
-1.52326
-2.63466
-5.69842
-5.92564
0
-3.36545
-1.16861
-1.67083
-0.348358
-2.81998
-2.19242
0
-5.96906
0
-0.558639
-4.84486
-3.59605
-1.09246
-9.22621
-0.297941
-5.98457
0
-4.89681
0
0
-0.941668
0
-2.08357
0
-8.70404
-3.19607
-1.04775
-5.87174
0
-0.203734
-1.13134
-5.10404
-3.11341
-6.54911
-6.18543
0
0
-3.05919
0
-1.65413
-1.30446
0
-11.4036
-1.03699
-3.85126
-0.313688
-0.256949
0
-0.586311
0
-4.07222
-2.757
-4.58494
0
-2.41802
-0.558962
-2.84295
-0.969991
-4.84354
0
-0.98284
-0.144284
-3.16738
-0.746088
-3.58224
-4.27036
0
-3.18259
-4.60352
-1.577
0
-7.1215
-9.87309
0
-4.62381
0
0
-5.20986
-1.00077
-9.74649
-0.38694
-0.403505
-7.55366
0
-0.500443
0
-1.16781
0
0
-5.26868
-0.589559
0
-4.71603
-1.51214
0
-0.331971
0
-4.97806
-0.707317
-3.45463
-0.401524
-4.72335
0
-0.630326
-3.78328
-1.43044
-2.02531
-1.27091
0
-4.03271
0
-3.38754
-1.3426
-4.55703
0
-0.934168
-0.378823
0
-6.24017
-1.31971
-8.34054
-0.679224
-3.31006
0
-5.79934
-5.21074
-0.0774151
-4.78499
-1.4261
-3.37271
-0.804177
0
-9.74169
0
-2.89387
0
0
-0.30341
-8.50009
-1.31236
-5.24888
-5.10587
-3.86946
-0.923764
-2.39727
-8.42752
0
-0.21872
-2.95559
0
-1.95769
-0.318297
-2.55082
-1.34766
-1.10758
-3.5176
0
-4.55361
-3.11819
-5.34018
0
0
-4.62117
-2.71321
-1.44776
-2.86551
-2.27757
-0.357306
-2.37405
-4.84274
-0.816079
-6.89189
0
-6.8751
-0.818702
-3.22582
-1.78502
-2.38932
-2.22946
-2.34999
-3.61023
-0.383205
-5.80785
0
-0.564814
-3.03819
0
-6.94961
0
-2.85488
-3.9049
-1.31771
-7.20852
-3.11706
-3.27029
-2.40527
-2.9078
-2.55448
-5.96782
-1.5022
-0.761899
-0.0638861
-0.363267
-3.52995
0
-0.599357
-5.26377
-0.375932
-1.54708
-1.2307
-3.57464
-2.94114
-4.02092
-0.810582
-6.92082
-0.813495
-1.86535
-0.460074
0
-6.25597
-0.920315
-9.93143
-0.0278114
-6.74489
-2.74263
0
-1.96022
-0.444496
0
0
0
-2.96569
-9.36462
0
-1.44626
-4.72058
-0.382968
-5.77628
0
-2.54333
-0.307218
0
-0.445112
0
-0.892192
0
-1.98568
-3.27242
0
0
-3.19207
-1.31966
-2.25262
0
-0.6687
0
-2.26106
-0.241833
-0.177354
-0.26263
0
-3.7279
-1.496
-1.60679
-1.51644
-4.27963
-1.17661
-0.564214
-0.817834
-2.90544
-3.12751
0
-5.51971
-4.90004
-1.97356
0
-2.05827
-1.1329
-0.0461031
-7.3228
-0.554062
0
-3.06098
-4.41494
0
-5.3057
-1.71282
-3.0559
0
-4.12458
-0.746531
-5.76926
-0.410554
-3.77751
-0.894534
0
-3.70544
0
0
0
-3.63693
-0.272665
-3.98308
-2.27918
-0.00801791
0
-5.71757
-1.88663
-3.78982
-5.78644
-0.719397
-1.76312
-2.93834
-6.39906
-1.69328
-0.472196
-0.947549
0
-0.778393
-1.26524
0
-5.90656
0
-5.97534
0
-6.15989
-2.85994
-3.66915
0
0
-0.897531
0
-2.22952
-0.826215
-0.653129
-0.636212
-3.17816
-2.38749
-6.70178
-4.24102
-3.86524
-2.33729
0
-1.74679
0
0
-5.13254
0
-2.45288
-5.26145
-2.45427
-8.00534
-0.632073
-2.10694
0
-3.78304
-0.383186
-1.10633
-8.59534
0
0
-6.229
-1.68789
-4.45472
-6.20479
-0.371809
-5.63825
-0.222593
-0.00791892
-0.163831
0
0
-5.18747
-3.29206
0
-0.149227
-5.45259
-4.13755
-2.37413
-2.04563
-1.84607
0
-1.51963
-1.78541
0
-4.25544
-5.29801
-2.23253
-5.24634
0
-1.39628
-7.66429
-2.32772
-2.32285
-0.0972654
-2.56839
-0.515608
-2.64043
0
0
-2.1248
-0.41899
-2.94022
-4.81356
-1.51691
0
0
-0.0595353
0
-0.646038
-5.86811
0
-0.397198
-0.729802
-3.75187
-7.49306
-3.43344
0
-7.46158
-5.00094
-4.23027
-6.6239
0
-3.55343
0
-1.246
-7.37866
-1.47334
-2.40427
-2.34304
-4.5597
-0.255185
-1.14841
-1.31614
-2.44098
0
-2.9674
0
-0.519931
-0.426858
0
-4.96275
0
-3.10022
-3.4205
-3.79479
-8.56453
-2.26268
-3.3302
-3.42405
0
0
-7.25183
-1.25157
0
-4.24942
0
-2.81966
-2.93652
-3.00803
-0.763193
-4.00358
-4.89395
-0.187383
-0.754728
-0.753066
-3.08323
-1.80512
-1.15811
0
-5.14032
-7.68821
0
-0.658027
0
-1.25685
-1.2355
-0.608459
-2.90594
0
0
0
-2.93614
-0.0741563
-5.68974
-1.84666
-8.93279
0
0
-4.57021
-0.829378
-10.176
-1.21853
0
-2.62791
-3.71605
-0.488586
0
-3.10054
-5.55737
-1.9154
-4.80721
-2.4529
-3.16612
0
0
-2.039
-1.97858
-2.15611
0
-5.5663
-0.135937
-8.24894
-0.0594891
-10.2792
-0.916422
-3.66367
-2.86608
-3.23644
-4.2167
-2.79552
-0.316765
0
0
-0.172522
-0.213749
0
-5.99867
-6.21029
-2.88694
-1.5373
-1.78016
0
-6.83447
-1.07707
0
-1.85589
-4.66394
0
-2.82987
-3.91804
-2.84256
0
-0.190593
-4.9122
-2.56804
0
-0.809271
-2.81605
-6.3714
-3.45018
-6.52015
-0.905271
-6.27787
-1.89375
-1.76068
0
-5.84328
-2.38575
0
-0.947922
-2.56854
-1.94784
-2.63838
-1.35841
-1.8092
-3.90794
-3.97374
0
-7.64739
0
-3.59997
0
0
-0.395089
0
-4.29962
0
0
0
0
0
0
0
0
0
0
0
0
0
0
0
0
0
0
0
0
0
0
0
0
0
0
0
0
0
0
0
0
0
0
0
0
0
0
0
0
0
0
0
0
0
0
0
0
0
0
0
0
0
0
0
0
0
0
0
0
0
0
0
0
-0.0275994
-1.3199
0
-1.29374
-0.765154
0
-0.876102
-1.52451
0.19211
-1.12572
0
-1.24059
-1.58755
-0.0225822
-1.38141
-0.627937
-0.559924
-1.47113
0
-1.30355
-1.35238
0
-0.933583
-0.813667
-0.925679
-0.761576
0
-1.53965
-0.763861
0
-2.00088
-1.44886
-0.863109
-0.346319
0
-1.38
-0.333779
0
-1.36737
-0.183572
-0.834547
-1.40012
0
-0.366735
-1.78228
0
-0.245677
-1.07783
-0.165384
-0.338722
0
-1.68015
-1.9098
0
-2.9845
-0.125552
0
-3.79862
0
-0.417798
-2.71431
0.0560893
0
-0.795492
-2.26214
-3.51085
-2.39461
-0.875566
-4.92315
-1.21077
-1.26426
-0.442238
-3.87663
-2.15276
-3.58718
0
-0.994814
0
-2.9123
0
-1.15265
0
0
0
-0.416328
-3.00523
0
-5.60078
-1.25463
-0.822369
-2.98029
-5.55897
-0.694287
-1.41143
-2.56069
-0.358875
0
0
-0.809831
-0.527218
-1.88342
0
-3.20676
-2.1636
-2.80507
0
0
-0.829354
-1.36174
0
-7.7512
-2.43392
-1.03644
-0.636383
-1.33794
-1.46501
-3.61608
-0.515275
-5.57671
-1.12457
-1.62576
-0.717286
-0.907667
-1.01401
-0.992184
-0.847505
-2.21723
-0.293533
-3.62774
-1.78565
0
-3.49122
-2.75467
-2.56739
0
-2.07324
-0.643451
-3.03361
-0.0754594
-4.65477
-0.00643012
-0.862643
-0.451422
-1.21942
-0.871235
-2.0503
-1.70537
0
-3.22451
-0.275097
-7.64437
-2.6906
-1.13342
-1.04356
-5.43081
-2.82525
-1.85637
-4.54603
-0.848315
-1.37404
-1.23756
-6.00356
0
-6.23701
-0.0525636
0
0
0
0
0
0
-5.04452
-4.29346
-9.05567
-0.981296
0
-0.943417
-0.287296
-4.94497
-0.157119
-2.9114
-1.69134
-0.920961
-5.15664
-2.27741
-0.137546
-2.06677
-5.46977
-1.03379
0
-2.43775
-3.42279
-1.3513
-4.12238
0
-6.04272
0
-1.88207
-8.17776
0
-2.84844
0
-4.77512
0
0
-1.13213
-5.1044
0
0
-9.31659
-0.190039
0
-8.24642
-1.36704
-7.53368
0
-7.86921
-2.03528
-2.63498
-3.68422
-3.9146
0
0
-3.47885
-2.5174
-1.25849
-7.41256
-4.55621
-0.709235
-0.100979
-10.1774
-1.18365
-6.06578
0
-2.10278
0
-9.63418
-0.0261459
-0.532777
0
-7.66469
-2.46348
-1.21691
-1.25458
-2.05244
0
-1.31138
-0.259034
-4.21572
-1.32334
-4.97351
-0.157891
-11.3619
-3.16502
-4.57894
-0.765208
0
-6.33486
-0.831337
-2.37701
-4.91558
-6.72001
0
0
-7.7696
-6.43992
-8.1442
-2.22954
-2.52495
-3.966
-2.25941
-3.91719
-1.29552
-0.0379577
-2.68781
-2.22637
-4.20245
0
-2.79201
-0.16601
-1.764
-6.62166
-0.741544
-3.269
-3.24679
-2.70647
-1.18564
-0.364705
-0.608365
-0.721043
-1.53752
-7.9773
-0.0664296
-0.434336
-0.715806
-5.9186
-0.00483387
-5.01561
-1.60627
-0.527895
-4.56588
-0.214809
-1.63497
-2.24317
-6.24529
0
-2.66867
-4.55454
-1.20265
-1.17758
-0.843376
-4.2049
-5.25183
-2.34855
-2.68028
0
-6.40831
-0.848732
-2.73102
-3.53017
-6.53163
-3.20745
0
-4.16218
-6.56706
-5.55332
0
-3.00877
0
0
-3.54913
0
-0.333092
0
-3.17899
0
-8.39281
0
-7.90303
-1.92921
-2.53274
-0.708291
0
-0.684913
-7.26097
-0.135956
-9.34992
0
-1.56885
-1.96601
-3.60861
-3.87304
0
-1.65143
-1.92927
-3.14006
-2.70394
0
0
-2.2158
-0.532232
-3.09653
0
-4.76546
-0.13528
-3.534
-3.59164
-0.818563
-6.61075
0
-5.95674
0
-10.4537
-2.12752
-1.31561
-3.10396
-1.49353
0
-6.69704
-0.296521
-0.231025
-5.42998
-2.03942
-4.58956
-4.7285
-1.23952
-5.27094
0
-3.28519
0
-5.83274
-0.250404
-0.290644
-7.20008
-1.57286
-1.36384
-0.62195
0
-3.24423
0
0
-1.44426
-3.57313
0
-2.76879
-3.93771
0
0
-0.815606
-0.840456
-2.55964
-5.85636
-1.61882
0
-0.299692
-0.135292
-2.47056
-0.352102
0
-9.52644
-4.21401
-3.60089
0
-2.85053
0
0
0
-7.43206
-1.23105
-6.06033
-1.90777
-7.83782
-3.35629
-1.5651
0
-1.72194
0
-6.49197
-0.0139174
0
0
0
-4.71631
-0.857792
-2.2513
-6.37974
0
0
-0.308197
-2.17306
-2.66732
-4.23477
-6.01054
-4.07568
-3.01231
0
-1.21476
0
-3.55162
0
-1.25236
0
-0.345024
-6.89949
-1.57999
-2.64118
-5.09622
-2.17615
-2.06755
-2.48948
-4.17507
0
-6.19746
-3.67721
-6.34058
-2.32608
-0.405524
0
-5.22979
-0.154112
-0.252393
-0.435279
-0.720883
-0.0941354
-1.88395
0
-2.89155
0
-5.30336
0
-4.1506
0
-1.84731
-0.874112
-2.64892
0
0
-3.95278
-6.32098
-3.27432
-5.32998
-1.06486
0
-1.7451
0
-2.84008
0
-3.37247
-2.3257
-1.39597
-4.01378
-2.62931
-3.64143
-2.64572
-5.03212
0
-0.659235
-5.90561
0
-5.21557
-0.79595
-4.17694
-1.57892
-3.33381
-1.11767
-0.854945
-0.943182
-3.71695
0
-5.66998
0
-0.404758
0
-3.6225
-2.54759
0
-5.40609
-1.73731
-0.779028
-2.1262
-1.78081
0
-1.25503
-0.534841
-0.386671
-3.50172
0
-3.53868
-0.180107
-3.24526
-2.1644
-1.06569
-2.87115
-5.80026
0
0
0
-3.32931
0
-0.599453
-1.49677
0
-0.487073
-0.226842
-1.26425
-0.533314
0
0
-3.77376
-0.290778
-1.83115
-1.16401
-3.56124
-0.345983
-4.18539
-4.0764
-4.44378
-1.84281
-2.09469
-8.99456
0
0
-1.46134
-5.05208
-4.40827
-3.23909
-1.12873
-2.0685
-2.33431
-0.516626
-2.49007
-7.19891
-1.5436
-5.80245
-1.28447
-3.22804
-1.56539
0
-0.458888
-1.98368
-4.04428
-3.01645
-3.59461
-1.34022
-0.0773527
-1.06838
0
0
-1.45446
-3.19439
-3.62602
-3.95162
-6.48664
-8.76642
-3.16206
0
-5.28657
0
-0.829873
-1.76508
-3.05929
0
-2.26846
-1.79966
-0.0980556
-2.14624
-1.50649
-2.04999
-3.46589
-1.69019
0
-4.57557
-2.26992
-0.649127
-0.894423
0
-1.25347
-3.48351
0
-2.73462
-7.67802
0
-3.52893
-0.733867
-6.246
-0.828889
0
-5.07658
-1.36892
-5.78605
-2.49155
-1.31979
-1.35325
-1.28621
-1.90789
-0.710286
0
-1.78486
-0.87417
0
0
-2.54033
0
-8.23006
-8.85968
-0.195001
0
-4.54944
-2.01378
-0.0241488
-1.38229
-0.0491046
0
0
-2.49075
0
-4.78101
-1.8148
-0.760553
-1.38891
-0.64989
-7.14537
-0.720553
-4.63395
-0.573174
-2.9122
0
-4.94402
0
-1.7804
-4.82024
-0.417821
-0.627461
-2.09674
-3.41347
-0.370171
0
-0.954134
-3.53446
-3.37674
-0.404599
-0.29067
-0.560722
0
-1.40678
-1.92472
-0.749453
0
-0.324611
-0.272935
-2.28987
-0.85231
-4.59007
-4.60985
0
-5.0782
-5.62807
-6.40842
0
-5.4041
-2.20601
0
0
0
-5.73405
-0.522594
-3.40696
-1.61176
-2.75399
0
-0.488936
-3.86695
0
-0.0194577
-4.68334
-0.741774
-7.06443
-1.66874
-3.69207
0
-5.82345
-0.613273
-3.03234
-4.88159
0
0
-6.28789
-1.83865
-3.11862
0
-0.081882
-3.776
-8.3655
-0.386597
-4.67488
0
-1.05635
-6.19568
-0.269707
0
-0.1669
0
-1.90251
0
-2.98994
0
-2.90063
0
-3.79343
-2.65544
-2.39826
-3.61969
-2.26152
-5.64825
-0.279387
-4.46921
-3.53311
0
-4.03006
0
-0.649726
-8.97552
-1.07567
-7.39168
0
-4.85251
-1.82008
-0.640952
-5.86266
-2.7917
-2.6191
-3.34554
0
0
-0.954716
-6.35694
0
-0.552079
0
-0.141441
-5.9821
-0.546537
0
-4.05997
0
-11.179
-0.150894
-10.607
-0.890428
0
-1.96164
-2.45513
-2.37995
0
-0.599748
-0.106534
-4.00864
-0.723619
-4.03252
0
-9.06459
-3.89942
-9.57586
-1.47433
-7.08
-0.266123
-2.84518
0
0
-3.60615
-1.05682
0
-1.83851
-3.11989
-4.24523
-3.0168
-2.80185
-3.35468
-1.35105
-5.65101
0
-5.57231
0
-7.59933
0
-0.696064
-2.34232
-1.10935
-0.113293
-0.229232
-1.18582
-1.17554
-0.409806
-0.366508
0
0
-4.95358
-0.470971
-4.04449
0
-1.54771
-0.896421
-6.97511
-2.01602
-0.309707
-2.50354
0
-0.512458
0
0
-7.29876
-4.39961
-5.10536
-0.69471
-0.915256
0
-4.75826
0
-3.87507
-1.43262
-7.8233
0
-0.111839
-2.90066
0
-0.0735644
-0.441674
-2.52168
-2.1152
0
0
-6.81319
-1.1244
-0.128545
0
-0.153761
-3.43845
-1.09937
-0.627141
-1.98736
-2.41471
0
0
-3.32046
-6.41326
-4.70893
-5.2909
0
-5.67238
0
-3.44411
0
-1.86444
-2.52418
-0.202089
-2.41421
0
0
-3.25306
0
-3.27007
0
-4.5983
-2.87017
0
0
-8.10467
0
-2.68632
-3.55845
-3.22205
-3.67763
0
0
-3.04856
-1.29456
-5.52904
0
-3.87529
0
-0.11558
-2.50673
-1.25577
-0.110726
-1.27739
0
-2.17648
-3.10757
-0.0954051
-5.67439
-10.5683
-3.72156
-4.20789
-5.26583
-1.7533
-6.04104
-8.81364
-0.0390645
-7.00268
0
0
0
0
0
0
0
0
0
0
0
0
0
0
0
0
0
0
0
0