<?xml version="1.0"?>
<VTKFile type="RectilinearGrid">
<RectilinearGrid WholeExtent="0 32 0 32 0 32" Origin="0 0 0" Spacing="1 1 1">
<Piece Extent="0 32 0 32 0 32">
<PointData>
</PointData>
<Coordinates>
<DataArray type="Float32" format="ascii">
0 0.524874 1.04975 1.57462 2.0995 2.62437 3.14924 3.67412 4.19899 4.72386 5.24874 5.77361 6.29849 6.82336 7.34823 7.87311 8.39798 8.92285 9.44773 9.9726 10.4975 11.0224 11.5472 12.0721 12.597 13.1218 13.6467 14.1716 14.6965 15.2213 15.7462 16.2711 16.796 
</DataArray>
<DataArray type="Float32" format="ascii">
-5.03879 -3.62163 -2.20447 -0.787311 0.629849 2.04701 3.46417 4.88133 6.29849 7.71565 9.1328 10.55 11.9671 13.3843 14.8014 16.2186 17.6358 19.0529 20.4701 21.8872 23.3044 24.7216 26.1387 27.5559 28.973 30.3902 31.8074 33.2245 34.6417 36.0588 37.476 38.8931 40.3103 
</DataArray>
<DataArray type="Float32" format="ascii">
0 0.524874 1.04975 1.57462 2.0995 2.62437 3.14924 3.67412 4.19899 4.72386 5.24874 5.77361 6.29849 6.82336 7.34823 7.87311 8.39798 8.92285 9.44773 9.9726 10.4975 11.0224 11.5472 12.0721 12.597 13.1218 13.6467 14.1716 14.6965 15.2213 15.7462 16.2711 16.796 
</DataArray>
</Coordinates>
<CellData>
<DataArray type="Float32" Name="Scalar" format="ascii">
0
0
0
0
0
0
0
0
0
0
0
0
0
0
0
0
0
0
0
0
0
0
0
0
0
0
0
0
0
0
0
0
0
0
0
0
0
0
0
0
0
0
0
0
0
0
0
0
0
0
0
0
0
0
0
0
0
0
0
0
0
0
0
0
-0.43939
-0.742946
0
-0.0643008
-0.193491
0
-0.92108
-0.595555
0.185458
-0.640907
0.0175557
-0.346533
0.0875123
-0.264518
-0.751412
-0.210452
-0.0618951
-0.0803616
0
-0.0357495
-0.892956
-0.00531213
-0.484852
-0.0879484
-0.231838
-0.4458
0
-0.743488
0.0881654
0
-0.098284
-0.295268
-0.608691
-0.239605
0
-1.02881
-0.302996
0
-0.601601
-0.160488
-0.130808
-0.55898
0
0
-0.472375
0
-0.406446
-1.10042
-0.888428
-2.20307
0
-1.88148
-0.618704
0
-1.26552
-0.00512124
-0.00244093
-0.394464
0
-0.0793389
-0.696849
0
-0.27433
-0.402201
-0.0273128
-3.81256
0
0
-6.33055
0
-0.439995
-3.23938
-0.528693
0
-4.72497
-3.22758
-4.88271
-3.96416
0
-0.0104966
-3.70176
-5.0105
-0.796075
-1.82341
-2.00529
-3.43995
0
-1.49312
-2.93648
-3.10094
0
0
-3.30067
0
-4.2701
-2.62346
-0.266538
-5.56806
0
-2.38195
-2.10196
-4.31747
-4.01409
-7.63389
0
-0.830936
-0.566632
0
-4.26436
0
0
0
-0.522475
0
-4.38457
-3.63931
-3.04797
-2.03118
-3.0323
0
-1.8859
-5.00581
-0.261841
-9.2124
-0.196606
-3.75876
-0.858658
-5.54086
0
-6.12787
-1.43173
-3.19857
0
0
-3.39334
-0.787344
-2.99989
-4.34765
-5.80325
-1.156
0
0
-0.364006
-4.36367
-5.00286
-0.95625
0
-1.24359
-1.12902
-1.75495
-5.15857
-0.51763
-4.39898
-7.15346
-2.4094
-0.10044
-0.697993
-5.90833
-1.96848
-0.124374
0
-5.59402
0
-3.37021
-0.938029
-3.51351
-0.531127
-5.79075
-1.79415
0
0
-2.56883
-1.97779
-1.69771
-0.7888
-1.0849
-0.49117
-0.102788
-4.35921
-0.891874
-2.29794
-0.918061
0
-3.45772
-0.350308
-5.02704
0
-2.59237
0
-9.31199
-3.41936
-5.1637
0
-3.21807
-0.71956
-0.0857901
0
-0.250998
-5.13077
0
-7.71869
-0.817857
-5.82606
-0.668897
-3.11595
-1.68545
0
-4.71784
-1.01362
-5.0406
-1.67714
-0.325583
-1.3716
-5.19014
-2.69633
0
-2.22467
-0.279059
-5.01724
-0.394918
-1.43862
0
-4.33075
0
-0.673092
0
-4.59242
0
-3.74905
-3.51707
-2.18815
-0.148642
-0.307432
-4.9899
0
-1.78229
0
-3.90827
0
-4.04424
-2.92781
-4.95851
-4.8829
-2.14622
-3.40158
-5.42506
-1.10418
0
0
-0.144469
-3.87359
0
0
0
-9.13638
-0.666044
-2.40237
-0.72473
-4.64389
-0.966604
-1.33365
-1.76418
-5.58727
-7.90998
-0.443851
0
-5.25762
-6.57649
0
-2.56034
-5.13915
-1.11455
-4.9271
-0.901915
-1.09442
0
-1.95668
0
0
-2.63209
-1.33927
0
-1.31511
0
0
-5.09491
-1.16209
0
-4.71058
0
-8.24246
-0.491649
-1.03251
0
-10.5256
-2.31804
-5.45259
-1.29874
0
-1.74107
-4.10856
0
0
-0.311751
-1.79826
0
-4.92416
-0.548357
-3.49986
0
-11.3243
-1.87411
-0.586371
-0.705607
-0.745058
-4.79643
-1.78937
-3.46118
-0.38576
0
0
-2.19625
-3.00638
-3.25955
-4.41672
-4.62082
-0.273039
-5.09601
-0.641138
-6.82943
-0.283247
-2.77471
0
0
-5.44694
-9.19796
-2.12253
-5.13128
-2.66488
-4.09249
0
0
-0.982415
-3.65454
-0.28793
-0.550664
0
-3.05847
-3.53391
-4.80259
-1.41356
-2.96387
-3.77138
-0.25702
-1.09707
0
0
-0.517722
-3.81982
0
-3.0181
0
0
-1.90315
-0.243149
-3.81911
-1.10919
-4.08448
0
-2.3427
0
-2.81361
-2.53908
-0.613232
-5.51286
-1.15266
-2.80369
-6.77385
-1.07847
0
-1.76229
-2.39716
-2.17875
0
-3.27224
0
0
-2.07859
0
0
-4.75686
-1.28691
-6.59437
-2.13727
-5.62402
0
-2.98398
0
-0.125731
-5.09564
-1.03156
-3.9947
-1.9124
-2.61958
-1.84409
-3.81096
0
-0.825033
-4.16188
-0.519409
-3.55486
-7.77714
0
-0.341962
0
-0.0439693
-6.53337
0
-4.04716
-1.46436
-3.79839
-3.71911
-7.68891
-4.00898
-3.96037
0
-6.70794
0
-0.743511
-5.56991
-2.60899
0
0
-0.874443
-0.0701263
-2.03482
0
-7.81987
0
-2.62972
-1.17768
-8.19139
0
0
-1.94308
-2.92759
0
0
-5.03403
-3.81751
0
-11.1792
-5.11168
-3.11525
0
0
-3.143
-2.44695
-9.34083
0
-3.29739
0
0
-8.18737
-7.46581
-0.868921
-1.41119
-4.99784
-1.49094
-0.410242
-1.8057
-3.80658
0
-1.48848
-2.74258
-2.53636
-2.13531
-3.23867
0
-0.30887
-5.71262
0
-7.00051
-1.30186
-7.07546
0
-2.0464
-0.0647479
-0.742949
-5.90241
0
-4.02298
-5.28232
-7.31723
-3.38674
0
-2.31882
-2.03157
0
-0.0619541
-0.824592
-5.32232
0
0
-2.25597
-1.59087
-5.01169
-4.22859
0
-3.23556
-3.02227
0
0
-3.37333
-1.47171
-6.30985
-4.6518
-3.65609
-3.32177
-0.448358
-6.2983
-0.825931
0
-1.7652
-0.221155
-2.69928
-2.65315
-3.06283
-4.13203
-0.827667
-0.0916663
0
-3.18731
-1.08722
-0.983916
-0.361652
-8.07358
-0.538507
-5.99279
-0.0160549
-0.939761
-3.66481
-2.5
-4.25254
-8.48598
0
-4.53198
-0.964044
0
-1.2795
-13.3688
-0.278123
0
-1.33806
-2.58436
-2.43056
0
-0.159953
-0.799034
-4.49573
-3.8429
-1.08447
-5.33284
0
0
0
0
-9.78014
-0.335756
-2.14867
0
0
-2.96471
-1.68155
-5.39224
0
-0.541558
-2.09565
-0.167154
-1.09802
0
0
-1.53885
-3.61142
-0.0936939
-3.85688
-0.579983
-2.08998
-2.0285
-5.54702
-1.15587
-4.98543
-2.47917
-4.45211
-7.34626
0
-6.32225
-1.46464
0
0
0
-3.57046
-0.684628
-3.52796
-1.50971
-0.564055
0
-4.95242
0
0
-0.485125
-3.09935
0
-5.34142
-0.539783
-1.89289
0
0
0
-1.34455
0
-1.51941
0
-6.45799
-0.750019
-0.435256
-1.73901
0
-6.3186
-3.57895
-0.181286
0
-5.22453
-6.51846
0
-3.23176
-1.85671
-0.209635
0
-3.35262
-4.57216
-0.566322
-1.4129
-6.35858
-2.54247
-3.3192
-2.82761
0
0
-2.25984
-1.91437
-3.05102
0
0
-7.7945
0
-0.884727
-0.469155
-1.05758
-1.46359
0
-6.0613
0
-2.16182
-0.300608
-4.46849
-2.36751
-0.543499
-6.40346
0
-3.23485
-3.89429
0
-2.08446
-2.77154
0
-6.26791
0
-10.598
0
-11.6988
-5.88147
-8.68353
0
-5.44854
-6.58532
-3.14217
-4.26066
-2.99686
0
0
-8.22881
-1.14009
-3.38401
-7.51509
0
0
-0.286941
-0.534724
-2.62231
-1.60291
-0.120586
-2.81102
-0.908561
-3.64852
0
-0.445658
0
0
-4.8067
-6.11484
-1.59545
-0.937673
0
0
-0.588142
0
-0.00375441
-1.27854
-5.76777
-2.27677
-7.68976
-0.254538
-1.85679
0
-6.69037
-0.79558
-0.182119
-1.77585
-2.66767
-4.15814
-3.41181
-0.37393
-4.42964
0
0
-5.60869
0
-3.0093
-7.52537
-1.78272
-2.46105
0
-2.09442
-6.53838
-1.76146
0
-2.68629
-1.24319
-1.42635
0
-0.120765
-2.69779
-0.0804886
-1.7646
0
0
0
-2.47389
-0.567429
-6.61339
0
-5.06547
0
-4.83498
0
-3.306
0
-1.50143
0
0
-4.49276
-0.623783
-7.84347
0
-8.50154
-1.27508
-4.34051
-1.00972
-1.03223
-2.02678
-2.26453
-3.43217
-1.5011
0
-3.46858
0
-2.68508
-3.25758
-1.58155
-2.50519
-0.531565
0
-8.05559
-2.3494
0
-2.81245
-1.64659
-2.89365
-1.25827
-5.58415
0
-1.71581
-4.14426
-0.0543607
-6.91563
-0.643335
0
-1.0123
-4.57182
-2.63524
-0.252738
-0.761246
-3.38093
0
-3.6982
0
-0.850033
-0.00288376
-2.89765
-1.22886
-0.691473
0
-4.91258
-2.84876
-9.99872
-0.512361
0
-0.27998
-2.09856
-7.97202
-0.112222
-1.9449
-5.68267
-0.486818
0
0
0
-0.324168
-6.18569
-1.10734
0
0
-3.06802
-0.250807
-5.1551
-1.0519
-4.05289
-2.65476
-2.97852
-0.810504
0
-2.4527
-5.49463
-3.05044
0
-1.67875
-1.82387
0
0
-3.07871
0
0
-2.91388
-5.2519
-1.53589
-7.42723
-1.33984
-5.33823
0
-1.1936
-0.156795
-0.283062
-2.01789
-5.88122
0
-0.451738
-0.406773
-2.29497
0
-0.232131
-0.3779
-9.0382
0
-0.302075
-0.222841
-1.37065
-1.15604
-5.45007
-0.995636
-6.83189
-5.04713
-5.19869
0
0
-1.16147
-2.36917
-0.544207
0
0
-5.64551
-2.84849
-1.45517
-2.58572
0
-0.0653987
-1.17075
-1.56894
-1.55999
-3.93041
0
-1.47305
-1.2603
0
-0.295399
-2.3557
-5.37244
-4.69878
-3.27159
-1.23936
-1.06622
-1.23174
-0.628764
-3.94234
0
-3.17065
0
0
-3.98292
-2.53222
-3.36528
-1.46651
-1.46404
-9.60355
-0.803298
-6.36695
-0.614479
-3.14324
-2.08635
-5.46274
-1.94972
-1.46321
-2.25141
-4.32505
0
-6.55956
-1.27569
-0.659231
-1.19027
-3.21889
-10.6491
-3.84941
-3.43197
-1.39559
-3.64862
-0.616192
-0.211038
-1.45454
-4.42979
0
0
0
0
0
0
0
0
0
0
0
0
0
0
0
0
0
0
0
0
0
0
0
0
0
0
0
0
0
0
0
0
0
0
0
0
0
0
0
0
0
0
0
0
0
0
0
0
0
0
0
0
0
0
0
0
0
0
0
0
0
0
0
0
0
-0.799334
-0.992419
-0.0216478
-0.9593
-2.33595
-0.0243537
-1.73982
-0.426111
-0.591691
-1.57907
0
-1.75521
-1.13876
-0.223327
-1.73749
-1.18586
0.15227
-0.913207
0
-1.42083
-0.986629
-0.0983043
-1.46826
-0.745259
-0.669984
-1.69443
-0.325535
-1.38355
-0.924476
0
-0.721784
-1.6002
-0.0509562
-1.20193
-0.0389982
-0.763409
-2.21205
0.0248201
-0.520092
-1.09848
-0.83323
-3.73938
0.0668272
-3.5363
-0.826652
-0.797408
-4.43922
-0.00648762
-0.0152509
-1.56224
0
-0.68024
-2.77202
-0.182415
-0.0115868
-1.65464
-0.293334
-0.58332
-0.312253
-5.34222
-3.92152
0
-3.27407
-0.462205
-3.42881
-4.24993
-2.08561
-4.25334
-5.79414
0
-5.42828
0
-5.22395
-1.56831
-0.825658
0
-5.6273
-2.43885
-5.54199
-5.06233
0
0
-1.95224
-2.45121
-2.533
-1.32793
-7.093
-4.13834
0
-10.3203
-4.03342
-4.55734
-7.42982
-6.84674
-3.66913
-9.54394
0
-2.72803
-8.19254
-5.63172
-0.348133
0
-0.290729
-1.23635
-3.3381
0
-3.60144
-2.71064
-1.34909
-1.61688
-6.97536
-2.93496
-3.22841
0
-1.50709
-0.0989893
-0.083235
-2.36616
0
-5.67845
-0.482948
-1.30899
-3.07818
0
-3.77248
-0.363285
-1.73928
-1.94868
-7.93001
-3.37067
-0.131315
-4.64185
0
-1.95107
-0.379715
0
-5.50136
0
-4.59654
-0.745185
-11.4853
-3.78652
-3.99029
0
0
-2.75198
-1.32661
-0.761815
-0.31683
-1.26958
0
-6.25606
0
-1.28945
0
-9.31691
-4.15116
-2.931
-4.40607
-0.822855
-1.84312
-1.39168
0
-8.28868
0
-10.1248
0
-1.28638
-2.29081
-1.16327
-1.54466
-3.77239
-1.34953
-2.05887
-1.55964
-1.69921
-5.28318
-1.42098
-4.61643
-0.331897
-1.73824
-4.1523
-4.48819
-2.16372
-0.698363
0
-5.06853
-1.01632
0
0
-1.79419
-2.93127
-2.79092
-2.41842
-1.10464
-0.0607039
-2.6522
-1.30559
0
-3.77887
0
-3.97445
0
-2.47133
0
-3.96448
-2.52523
-3.41373
-6.12207
0
0
-1.79185
-5.79648
0
-5.52883
0
-3.13978
0
-0.602394
-1.29842
-7.31567
-5.65071
0
-2.30846
-10.9382
-0.927456
-7.80716
-2.29008
-5.0381
0
0
-4.24259
-2.0991
0
-1.42497
-3.19156
-6.04462
0
-3.9458
-3.65936
0
-1.7045
-2.59936
-6.2312
-1.54163
-2.22487
-1.35975
-5.51673
-5.58834
-5.23522
-1.14347
-1.10883
-5.45359
0
-1.50948
-1.78307
0
-2.28381
0
-5.26592
-0.39971
-0.479553
0
0
-6.25309
-0.469351
-3.89444
0
-2.98825
0
-6.84245
0
-5.516
0
-1.09152
-1.14612
-3.92329
-2.11201
-1.29781
-5.24548
-0.513919
-10.141
0
-7.54432
0
-0.0960365
-0.208534
-7.63233
-0.0567796
-3.5237
0
0
-5.28901
-1.18551
-2.07665
-0.943026
0
-2.35104
-7.13856
-0.257844
-1.12837
-0.407167
-6.11298
-0.156079
-4.4781
0
-0.948549
-1.35207
-1.29903
-0.0692458
-2.92549
0
0
-0.206546
-4.57575
-1.67377
-1.78567
-6.8129
-0.302427
-6.64217
-2.06511
-0.791838
0
0
-3.17682
-2.69385
-0.930988
-3.24571
0
-3.89769
-0.820902
0
-4.36844
-1.34277
0
-0.514936
-2.08944
0
-1.58986
-4.42079
-3.71574
-4.14411
-0.467427
-1.71674
0
-2.42555
0
-2.00147
0
-2.42384
0
-4.43638
0
-3.84845
-1.8783
-3.80653
-2.31713
0
0
-6.53759
-5.24655
0
-9.21086
-5.66878
-0.437104
-3.19557
-0.398164
-3.79251
-0.327058
-4.67739
-0.635803
-4.64456
-1.06875
-0.595681
-1.68167
-3.22568
-5.31794
-0.774849
-2.71385
-1.73295
-1.44186
-4.18212
-0.621657
-5.29788
-4.07544
-2.06794
-1.33372
-4.56744
-4.87707
-8.61798
-3.9323
0
-0.293852
-0.62947
-0.4228
-3.86329
-9.42348
-4.6908
-1.26367
-2.06733
-6.36574
-1.28667
-3.46756
-0.485532
0
-1.29957
-2.5754
-2.18021
0
0
0
-0.727527
-3.36513
0
-10.5806
0
-1.18554
0
0
0
-2.59725
0
-0.909586
0
-7.06683
0
-3.86689
-3.56468
-2.44121
-1.35346
-4.15092
-4.4672
-0.389831
-3.45268
-0.0754252
-3.73752
0
-0.119109
-2.78196
-3.24505
-2.10629
-2.72364
-3.03171
-1.63393
-0.648932
-1.24496
-7.62792
0
0
-2.26861
-6.1299
0
-1.26958
0
-5.06802
-1.44399
-0.466533
-1.13064
-3.1459
-0.214397
-3.71242
-0.457824
-5.41506
-0.253289
-0.75852
-6.68667
-4.58981
-7.231
-2.90804
-7.35003
0
-1.58717
0
-0.6112
0
0
-7.80901
-2.68436
-3.43324
-2.97012
0
0
0
0
0
-6.63097
-0.966845
-5.99805
-0.552485
0
0
-3.74966
-0.384124
0
0
-3.64326
-0.575408
-0.714745
-1.33597
-2.02669
0
-0.844504
-5.09164
-5.43531
-4.64406
-4.77911
-0.842856
-4.33335
-0.390698
-4.92988
0
-9.18227
0
-3.33695
-0.257467
0
0
-0.728085
-1.76526
0
-1.23188
-6.85044
-1.92811
-6.90041
-0.510157
-2.03926
-8.71281
0
-3.40325
-1.03993
-5.97003
-1.88667
-5.34338
-0.206735
-3.23457
-2.79289
0
-0.779126
-0.672851
-2.31402
-0.549796
0
-0.152107
-0.463684
0
-4.77786
-0.427757
-7.15979
-6.84286
-0.931869
-0.178203
-2.10634
-4.32085
0
-0.355523
-3.15402
-7.03452
-1.55561
-1.44962
0
-1.21593
0
-3.39507
-1.76578
-3.47835
-9.17032
-1.27782
-2.97226
-0.513021
-3.22337
0
-9.39901
-5.17478
-0.0481771
-2.74273
-5.20742
-3.10597
-4.02698
-5.81215
-1.3371
-9.61275
0
-0.161661
-5.6612
-5.25023
-3.09618
-0.608601
-1.80986
0
0
-2.99813
0
-2.51282
0
-1.00811
-1.72319
-0.852309
-0.0457463
-1.60617
-2.15289
-4.14909
-9.70966
-0.682219
-0.258295
-0.532772
-3.3415
-0.756538
-4.16014
0
-2.49155
-0.905523
0
-3.24332
0
0
-7.28282
-3.51032
-7.54065
-5.8473
-4.14692
-4.41779
-3.08604
-1.27616
-3.36605
0
-8.1889
-3.13841
-5.84441
0
-1.21291
-10.0005
-0.766577
-4.32011
-2.31172
0
-7.37433
0
-3.79546
-0.0650886
-0.212413
0
-4.31126
-1.48253
0
-2.09534
-8.48711
-0.27906
-6.26759
0
0
-4.31423
-0.910251
-11.3687
-1.45717
-5.81156
-1.4415
-1.298
-2.21301
-0.252036
-0.424103
-2.85148
-0.44675
-1.83547
-7.95744
-0.540417
0
-0.813915
-4.02531
0
-5.86928
-6.06335
-0.437273
0
-5.72081
-4.63025
0
-1.18314
0
0
-1.08596
0
0
-2.27493
-3.12072
-2.55424
-6.35594
0
0
0
-4.30182
-1.22136
0
-6.04286
-2.06798
-0.49849
-1.0212
-9.71673
0
-11.5625
0
-8.81406
0
-0.0661104
-5.3458
-3.14226
-3.65793
-7.11023
0
-6.05826
0
-1.90675
0
-0.35082
-7.11287
0
-5.17167
-1.36248
-1.78892
-6.42164
-0.942504
-6.11623
0
-3.27363
-9.23226
-0.0580827
-3.36822
-0.966765
-1.7803
-7.73118
-3.6453
-0.532682
-0.203852
-0.220715
-2.73349
-5.05015
0
-3.7984
-1.90686
-0.0685283
-4.58603
-0.00849872
-0.943169
0
-6.79136
-0.803349
-1.71253
-6.25195
0
-1.03513
-0.971261
0
-1.33399
-0.459566
-0.153975
-2.14456
0
-5.9411
0
-1.0811
-8.67259
-1.35516
0
-1.02017
0
-7.43737
0
-3.01157
0
0
-0.865012
-5.4904
-0.712431
-0.427262
-1.93941
0
-3.32143
0
-1.40758
0
-1.2625
-1.07614
0
-0.233222
-5.8416
-0.0685223
-5.69527
-1.24034
-5.60969
-0.421997
-5.1655
-4.25674
0
-5.73776
0
-2.97905
-0.355267
-2.08606
0
-4.89206
0
-5.17154
-5.05195
-2.77523
-6.04159
-0.400795
-5.17918
-0.814912
-3.73741
0
0
-3.56546
-0.0715073
0
0
-2.69488
0
-4.65978
0
0
0
-4.22714
-5.66925
-1.68656
-0.745296
0
0
-2.80926
-5.06184
-5.08082
-2.47073
-2.80415
-2.2856
-0.0905399
0
-1.10021
-8.14618
-8.80034
-2.86789
-7.14692
-6.68085
-2.9083
-2.04539
0
-4.80346
-2.15962
-6.41078
-3.93647
-6.17049
-3.27408
0
-3.82683
-0.0572774
-3.85963
0
0
-0.0468924
-0.76759
0
-2.9946
-3.31298
-1.51865
-0.780638
-6.78792
0
-0.758836
-0.896124
-0.33381
0
-1.1407
0
-2.3667
0
-4.76968
-4.94721
-0.425744
-6.12499
0
-4.54141
-1.97366
-2.66336
-1.3622
0
0
0
-6.0666
0
-5.44062
-3.09335
0
-3.33187
-0.621295
-0.0863594
-0.208427
-5.10819
-4.01141
-0.867604
0
-0.903678
-1.75678
0
0
-1.70662
0
-0.0262369
-3.0807
-0.406736
-3.7837
-3.37467
-2.70283
-0.684415
-6.17338
-0.338588
-0.340927
-6.7386
-0.0715599
-3.16055
-0.482163
-3.13161
-0.0608221
-2.02228
-2.25119
-3.31675
-1.26553
0
0
-1.56339
0
-5.12011
-1.90903
-1.49559
-0.938366
-6.49791
-1.43028
-7.88745
-0.271683
-7.19898
-1.31598
-5.04997
-1.49083
0
-4.80016
-1.77398
-5.90781
-1.45349
-4.8813
-0.197517
-0.0230252
-7.12191
0
-0.434004
0
-0.950606
-1.16119
-3.33021
-5.26187
-3.43957
-6.57529
-2.22864
-2.90432
-2.94238
0
0
0
0
0
0
0
0
0
0
0
0
0
0
0
0
0
0
0
0
0
0
0
0
0
0
0
0
0
0
0
0
0
0
0
0
0
0
0
0
0
0
0
0
0
0
0
0
0
0
0
0
0
0
0
0
0
0
0
0
0
0
0
0
0
0
0
-0.53005
0
0
-0.0606176
0
0
0
0
0
0
0
-0.448924
0
0
0
0
0
0
0
-0.0542151
0
0
-0.127136
0
0
-0.0275678
0
0
-0.0641108
0
0
0
-0.15552
0
0
0
0
0
0
0
0
0
0
0
0
-0.132863
0
0
0
0
0
-0.172951
0
0
0
0
-0.522265
-0.080085
0
0
0
-0.519194
-1.58003
-0.714431
-3.85154
-2.14073
-0.116323
-2.8402
-1.61214
0
-1.28857
0
0
-1.67246
-1.40424
-0.261288
-3.94257
0
-3.34032
0
-0.285438
-6.72133
0
-1.31321
-2.33714
-7.44191
-3.97957
-0.6865
-5.41266
-1.41645
-2.32806
-0.647999
0
-0.420372
-0.0923066
-0.527984
0
-7.03021
-1.76039
-5.59791
-1.77376
-2.15099
0
0
-1.1383
-0.821995
-0.0450961
-1.4388
0
-1.0245
-1.09832
-1.92308
-2.25159
-0.889183
-3.16694
-1.90214
-1.43328
-1.66305
-0.97403
0
-0.718445
-0.830264
-0.856627
0
-6.43807
0
-1.70609
-1.16817
0
0
-0.621148
-0.244516
-4.27394
-2.03692
0
-0.0955839
-3.33411
-2.06539
-2.52874
-0.0850239
-4.84068
-3.14447
-2.21378
-0.335009
-3.90228
-2.82529
-1.57136
-4.12863
0
0
-7.76346
0
-1.00144
-0.195378
-1.50629
-0.537714
-2.37016
-3.04194
-1.0248
-1.79074
0
-8.87098
0
-10.3312
-8.64628
-0.788275
-4.02524
-4.06244
0
-0.694977
-2.12061
0
0
0
-3.22342
-0.983966
-4.679
-2.83477
-3.00483
-0.792835
-1.41069
-7.81927
0
-5.64514
0
-9.16642
0
-5.22191
-1.65265
-0.476113
0
-6.6223
-0.602205
0
-5.29152
-1.25262
0
0
-1.25937
0
-2.78293
-0.917333
-4.89037
-1.66586
0
-0.739201
-0.125257
-7.79861
-0.0808073
-3.25724
-3.75576
-3.70581
-3.03776
-0.979283
0
-7.7176
-3.67274
-0.324883
0
-4.30097
-1.16795
-0.76429
-0.757472
-0.958027
-4.68262
0
-5.79124
-3.96151
-2.48099
0
0
-7.74203
0
-1.67833
-0.18338
-0.0584647
0
-5.04148
-6.69833
-0.563901
-1.64942
-2.59797
-1.98137
-0.776759
-2.93159
-1.66176
0
-3.58875
-4.37033
0
-0.11981
-5.38904
0
0
-5.01761
0
-0.456294
0
-2.08653
-3.68201
-2.82672
-3.0312
0
0
0
-3.9677
0
-0.90525
-6.58531
0
-0.718437
-5.65956
-0.55892
0
-0.356124
-1.01188
-0.204519
0
0
0
0
-1.02627
-3.85445
-1.72927
-1.99645
0
-0.429089
-3.65882
-4.29642
-2.33352
-1.51371
-1.3283
-0.824081
-4.16995
-0.90387
0
-5.45548
-5.87519
0
0
-3.72543
0
-9.46997
-7.35272
-2.24682
-8.02803
0
-6.96938
-4.44234
-6.11488
-1.97581
-5.41413
0
-5.01418
-1.1117
-4.00551
-0.576474
-4.84405
-7.47396
-5.20649
-2.63208
-0.591178
-1.29137
-1.78022
-0.053025
-4.399
-1.83937
0
0
0
0
-6.60189
0
-4.60907
-0.737998
-3.10615
0
-2.35056
-0.254592
-2.97101
-1.8709
-0.140336
-0.277702
-0.474741
-5.01731
-1.65574
-2.48559
-5.33634
-0.472582
-1.35925
-2.31276
-1.29558
-0.52321
0
-4.30396
-2.62514
-2.8502
0
-7.22991
0
-2.5389
-2.20956
-8.47823
0
-0.401776
-0.825141
-1.21919
-0.0648338
0
-6.92726
-0.113893
-6.50523
0
-0.990981
-6.97107
0
-5.87946
-0.764077
-4.32265
0
-0.714478
-0.781595
-1.7588
-5.97585
0
0
-1.09495
0
-7.10017
0
-5.32446
-0.989054
0
-0.0752757
-0.246039
-0.828353
-1.62101
-2.06027
-5.33121
-1.86151
-2.85782
-2.46121
-1.88288
-2.6966
-3.21221
-3.42965
-1.05433
-0.395279
0
-5.33564
0
0
-3.81416
-2.02856
-3.40386
-1.68609
-3.83421
-1.70799
-3.28259
-0.812981
-4.50134
-4.3326
0
0
-0.287557
0
-6.30822
0
0
0
0
-0.651955
0
-4.81533
-6.00626
-2.58482
-1.21937
-0.219472
-3.85109
-0.0488653
-2.859
-1.99298
-5.09892
0
-5.402
-5.27734
0
-1.58518
0
-3.73248
0
0
-2.08106
-0.969288
-1.14916
-2.21259
-0.153491
-2.14911
-1.45201
-2.16032
-1.44005
-3.77467
-1.50535
-0.0842583
-1.12845
0
-0.835503
-2.64283
-6.76001
-6.04343
-6.94631
-5.36976
-5.48283
-2.28013
-1.66109
-3.84165
-0.469765
-0.52384
-10.7483
0
-10.6335
-0.828004
-2.46929
-0.43663
-2.71482
-1.12733
-1.65505
-6.2363
0
-2.75121
-2.50574
0
-1.76498
0
-3.51865
-2.94158
-2.00078
-10.2496
-2.1887
-6.22464
0
-2.87588
-6.96795
-1.19449
-5.56302
-1.48357
-1.5833
0
-0.108611
-9.03234
-1.19458
-4.97401
-1.6581
-5.302
0
-3.4788
0
-4.64213
-3.90524
-3.8011
0
0
-4.99576
-0.0730791
-1.69931
-1.83618
-2.83907
-2.71856
-0.671853
0
-5.00045
-0.829005
-2.42668
-1.3608
-4.07837
0
-0.943553
-0.454425
-4.50541
-1.51988
-2.50813
-6.71091
0
-7.99176
0
-1.07283
-5.91305
-3.05642
-2.90798
0
-2.28039
0
-4.59687
0
-2.72598
-4.13283
-4.53491
-1.50975
-8.01
-0.110481
-4.13535
0
0
0
-4.10773
-1.6028
0
0
-4.39705
-2.0738
-5.94378
-5.59911
-0.831347
0
-5.81375
0
-1.05873
0
-2.19938
-3.57046
0
-1.72942
-5.534
-1.44581
-0.542442
-5.64394
-2.78854
-2.57895
0
-2.23401
-0.17254
-7.76057
0
-5.94295
-0.39989
-2.21387
-0.426321
-0.124188
0
0
-3.30511
-0.624182
-1.51912
0
0
-3.83132
0
-3.97857
-0.984712
-2.10585
-1.31152
-0.803776
-4.86852
0
-1.13459
-0.667211
-0.195654
0
-0.383165
-0.550553
-2.71594
-1.03561
0
0
0
-2.28962
-0.36999
-1.3609
0
-3.76437
-1.34521
-5.11692
-0.24711
-0.441339
-0.959691
-0.894602
-1.90864
-0.0181668
-0.995599
-1.17531
-0.0217574
-1.70736
-0.670812
0
-3.51677
-5.51718
-3.12882
-5.11555
0
-1.01795
0
-4.57819
-0.76354
-3.20947
-1.24248
0
-2.3073
-0.559634
-4.99876
0
-0.561203
-1.59448
-3.5014
-0.282937
0
-4.81964
-1.96659
0
-7.94372
0
-3.71381
0
-6.37182
0
-9.15013
-1.27324
-0.925864
-4.0917
-1.25058
0
0
-0.245188
-1.15916
0
-3.70926
-2.36427
-0.978598
-1.00889
-4.75674
0
0
-5.83268
0
-0.896925
0
-0.585214
0
0
-5.53207
-0.990958
-2.37921
-3.45683
0
0
-1.201
-5.75993
-0.0284944
-3.69507
-4.73365
-2.70621
-0.575226
0
-5.43308
-1.03445
-1.59886
-6.64149
-0.315259
-2.86173
-1.08303
0
0
-2.04501
0
-5.69801
0
-3.49076
-2.02493
-5.5206
-2.51139
-3.71401
-2.6472
0
-10.0319
0
-1.35669
-0.0700305
0
0
-6.29285
0
0
-0.462967
0
-0.0364216
-1.84057
-0.91928
-1.03534
-2.56019
-0.145448
-3.43296
-4.13451
0
-1.80446
0
-3.99915
0
-3.5927
-1.3439
-4.0087
-6.29503
-6.17262
-0.177795
-0.469638
-3.60385
-3.64009
-8.78333
-0.178596
-0.0994189
-6.87852
0
-3.9158
0
-7.83909
0
-5.32159
0
-2.53649
-0.36966
-4.3232
0
-4.48493
-0.946101
-4.38554
0
0
0
-0.992288
0
-0.567248
0
-0.135658
-0.442704
-0.0221705
-4.37839
0
-0.583298
-1.1369
-2.01469
-1.00087
-1.94825
-0.136197
0
-2.92374
-1.16541
-5.45154
-5.10151
-1.24377
-4.19149
0
-9.05494
0
-3.60109
0
-1.8064
0
-4.76438
-0.577198
-2.49922
0
0
-6.78191
-2.72164
-0.991229
0
0
-2.68981
-0.74637
-2.20678
0
-3.47633
-4.50512
-0.467899
-0.0782756
-2.88107
-2.06649
-0.586876
-2.06812
-2.0524
0
-1.86679
-4.77436
-3.84831
-5.066
-1.37011
-3.13003
-1.53733
-6.19511
-1.44607
-1.84534
-1.64216
-4.51357
-1.14118
-4.55657
0
-7.8269
-0.226068
-3.73595
-1.22341
0
-2.01602
-3.8439
-0.911727
-4.60545
0
-3.80998
0
-4.02911
-0.601636
-1.84478
-3.97394
0
-2.79605
-0.622619
-3.43749
0
0
-2.23788
-0.566823
-7.13962
0
-8.93707
0
-2.11065
-1.31368
0
-2.94071
-2.22759
0
-6.63445
-8.68871
-0.868866
0
-0.621238
0
-4.58103
0
-3.94349
0
-3.97908
0
-13.7067
0
-7.84999
0
0
-2.24211
-5.87887
0
-1.4788
-0.357849
0
0
-4.27509
-3.06234
-2.79782
-5.30008
-1.66149
0
-0.832355
-3.15425
-2.74234
-4.23995
-1.01659
-1.15403
-1.39958
0
-7.59309
-0.779454
-2.11866
-0.153736
-2.80093
-1.21464
0
-3.40183
0
-0.789146
-4.43167
-1.76874
-0.958003
0
-6.7171
-4.05602
-7.17425
-9.25735
-0.871318
-7.9482
-6.7287
-8.28701
-3.247
-3.37951
-4.51268
-0.0734406
-5.05906
0
-6.52755
-0.439716
-6.5193
0
0
0
0
0
0
0
0
0
0
0
0
0
0
0
0
0
0
0
0
0
0
0
0
0
0
0
0
0
0
0
0
0
0
0
0
0
0
0
0
0
0
0
0
0
0
0
0
0
0
0
0
0
0
0
0
0
0
0
0
0
0
0
0
-0.391929
-1.99393
-0.042074
-1.33164
-1.81639
-0.372351
-1.06483
-0.992733
-0.150144
-1.11463
-0.414841
-1.93041
-0.605345
-0.00751654
-1.80275
-0.655037
-0.180206
-0.958735
0
-0.924508
-1.17573
0
-1.95671
-1.08225
0.267265
-1.1727
0
-0.958798
-1.1215
0
-1.25545
-0.768458
-1.46666
-3.60713
0
-3.53927
-0.182354
-0.816419
-3.3263
-0.351859
-0.271318
-1.78203
0
-0.785206
-1.93962
0
-0.248966
-1.46772
-0.262398
-0.157976
0
-1.09687
-0.386025
0
-1.81435
-0.257137
-0.317445
-1.23164
0
-0.689134
-2.72224
-0.100914
-0.768281
-3.03864
-3.44817
-6.2936
-4.70903
0
-5.67497
-0.848746
-0.750717
-2.3797
-2.30547
-5.71155
-0.740407
-5.92771
0
-1.7582
-2.54955
-3.67783
0
-1.99253
-3.89362
-2.27364
-3.5356
0
-5.43317
0
-0.0565656
0
-5.90451
-0.150244
-5.27651
-0.0387629
-2.54453
-3.32114
-4.51752
-3.31665
-5.75787
-5.0421
-0.859963
0
0
0
-1.05902
-5.92551
-2.9345
-0.833115
-6.0805
-1.43136
-3.40756
-1.51241
-3.03419
-5.7727
-0.737206
-0.673559
-5.60476
-1.73963
-1.72488
-7.89208
-5.66146
-1.50033
-7.31352
-3.8011
-0.384374
-5.18955
-4.84016
-0.670168
0
-2.58083
-0.0755146
-4.87723
-0.0408603
-1.56515
-0.872801
-1.71678
-0.862953
-9.04704
-1.29516
-7.71738
0
-6.7305
-3.4679
-0.103197
-0.852681
-6.33141
0
-5.04863
-0.0952112
-0.056314
0
-4.02397
-1.15591
-1.32639
-3.1893
-1.83741
-1.85593
-0.816918
-0.382642
-1.31237
-3.80582
0
-3.87985
-2.47817
-2.56008
0
-0.198882
0
-11.237
0
-1.78084
-5.96397
0
0
-4.67119
-0.933137
-2.43465
-0.0250632
-3.04621
-4.03605
-3.11027
-0.111143
-2.67939
-0.12492
0
0
-0.948606
-2.4627
0
-0.297445
0
-4.4577
-4.14145
-3.06187
-3.05153
-3.11397
-1.67408
-0.0549206
0
-0.944312
-2.48154
-2.2634
-4.2892
0
-0.340079
-0.12437
-1.40574
-5.92206
-3.42623
-6.84083
-4.41419
0
-0.472058
-3.6967
0
0
-3.92109
-8.5351
-1.87453
-3.58603
-1.31844
-5.57824
0
0
-0.529059
-8.52822
-1.18375
-2.84777
-1.39257
-2.23334
-0.518011
0
-4.07464
-1.45429
0
-3.25334
-4.89882
-8.94739
-7.12988
-7.07578
-0.288918
0
-4.34129
-1.97559
-5.85094
-0.672835
-5.77415
-0.576934
-3.30656
0
0
-4.15773
-2.66366
-0.155298
0
-2.92457
-1.84337
-0.155819
-2.90546
-0.280353
-6.40469
-0.402779
0
0
-1.34315
-7.14339
-0.195999
-7.45622
0
-4.50653
-0.319195
0
-2.80618
-2.44457
0
-3.28264
-3.81242
-7.65149
0
-5.48714
-0.366979
-0.960779
-3.58766
0
-4.36166
-1.62786
-1.87621
-4.00312
-5.86538
0
-0.149927
0
-3.94008
0
-3.06097
-2.97915
-1.35581
-0.431747
-4.74505
-4.66983
0
-5.11382
-1.63958
-1.15135
-4.45785
-1.29456
0
-4.62805
0
0
-0.403189
-0.244215
-2.18827
-1.10928
-5.38001
-1.24189
0
-0.47008
-3.57501
0
-1.55782
0
0
0
-7.32345
-2.35833
-3.74963
-2.06039
-0.126464
0
-5.14503
0
-6.39179
0
-6.64519
0
-2.6903
0
-2.12064
-5.28984
-0.306834
-1.35389
-4.15467
-1.33099
-4.68731
-3.50567
0
-0.756278
0
-0.930029
0
-8.75955
-3.28085
-4.25793
-2.04
-4.02268
-1.70926
-0.70999
-0.678579
-0.138094
-4.32104
-1.69535
0
-5.91187
-0.181701
-0.853547
0
-3.35046
-6.18912
-5.49787
-2.18697
-7.38909
-1.30816
-1.46424
-1.80443
-3.94996
-0.310574
-1.96474
-3.73547
0
-0.133401
-0.182781
-2.15277
-2.41519
-3.93479
-2.09911
-0.487131
-5.49673
-5.09773
-8.91714
0
-0.240231
0
-0.554733
-2.8703
-5.81013
-7.85406
-2.78427
-7.29688
-3.77893
-4.11554
0
-6.02944
-0.6335
-2.91675
-1.03441
-0.783394
0
0
0
-4.73776
-2.14087
-1.89594
-2.41111
-6.97126
0
0
-1.40591
-5.26234
0
0
-1.51612
-0.097677
-6.17013
-0.952797
-5.56453
-3.46177
-7.32158
0
0
-2.41868
-3.19916
-1.33902
-2.30371
0
-5.08617
0
-0.456605
-0.814632
-7.24477
-2.16353
-0.369525
-4.20312
-3.9293
-0.566797
-0.650806
-3.01416
0
0
0
-3.26627
-0.673644
-1.14505
-3.36022
0
-4.077
-1.82038
-7.33426
-0.931198
-6.60383
-1.36509
-5.14198
0
0
-9.32487
-6.52452
-1.8644
-6.58832
-1.8896
-6.38955
0
-6.56278
-0.27
-0.50568
-0.64838
-0.313635
-5.10731
-2.23179
-5.8256
0
-0.464121
0
0
-0.0557396
-5.00278
0
-5.84095
0
-5.75543
0
-2.53328
0
-2.42928
0
-6.95232
0
-0.801942
-1.248
-0.594982
-4.58957
0
-2.23205
-2.82307
-3.04912
-2.00092
-1.78293
-7.01575
-1.02716
0
-4.75913
-1.25835
-5.38467
-2.34814
-0.642298
-0.0974444
0
-0.395118
-4.54889
-4.33932
-6.78078
0
0
-1.24753
-5.53052
-0.760658
-1.12188
-0.921779
-6.34028
0
-8.78465
0
-5.18506
0
-0.568491
0
-0.353148
-1.00007
-1.71805
0
-1.38228
-1.90543
0
-2.37557
-0.0835188
-2.08219
-0.500544
-6.73367
-0.654989
-0.703342
-0.961876
-0.466791
-7.05552
0
-4.2257
0
-0.669564
-0.844248
-1.793
-0.557076
0
-2.39176
-0.335453
0
-4.98539
-0.37069
-7.69798
0
-6.38836
0
-11.7869
0
-6.54089
-2.84821
-3.87891
-0.782993
-2.69842
-1.03331
-0.881905
0
-3.67606
-3.55377
0
0
-0.252758
-5.00659
0
-3.73687
-6.31537
-0.0955188
0
-4.5322
-2.69664
-5.86701
0
0
-3.05059
-1.0185
-0.514689
-1.28515
-7.0584
0
-4.33134
-1.59887
-4.99343
-1.27497
-3.29872
-7.40676
-2.97026
-10.3872
-1.50207
-7.01948
-2.40462
-4.99461
-6.87722
-6.31104
-1.2954
-0.706136
-1.90628
-4.36195
-0.145696
-5.05864
-0.127149
-7.66596
0
-2.26037
0
-5.58953
0
-5.8558
-0.491017
-7.89409
-3.03664
-1.09595
-4.6282
0
-2.2668
-2.50063
-0.611724
-4.02149
-0.586062
-2.5078
-1.06073
-4.69696
0
-5.35016
0
-6.39903
-1.08426
-5.27823
-0.142537
-2.97462
-1.41135
-2.22361
-1.66181
-1.51717
0
-3.65147
-0.107104
0
0
-1.28455
-4.08449
0
-4.17846
0
-0.226825
-4.64171
-1.78805
0
-1.30173
-6.86584
0
-1.12949
-2.47991
0
0
0
-0.380759
0
-2.69133
0
-0.0621909
-1.39236
-5.92228
-1.30617
-4.63986
-1.09053
0
0
-1.51425
-0.611765
-4.8917
-1.3287
-2.63713
-0.958506
-7.5993
-1.08705
-4.88896
0
-3.54533
-2.06593
-0.198711
-1.51321
-1.69923
-0.0422091
-1.23827
-5.4105
-2.80064
0
-0.264263
-0.458569
0
0
-0.684039
-2.77042
-0.531096
-1.11347
-3.52738
-1.54903
-0.822219
-5.17914
-2.13977
-8.96778
0
-7.71997
0
-2.90858
0
-1.5315
0
-7.00105
0
0
0
-4.22663
0
-2.4135
0
-1.69498
-2.26359
-2.72387
-1.1962
-5.17838
-4.59255
-0.990054
-3.25624
0
-5.44232
-5.03631
-0.0532028
-4.19745
0
-1.16941
0
0
-3.55536
0
-8.10947
-0.209127
-0.607655
-0.402242
-0.0708023
-3.80738
-1.29069
-1.53697
-3.05847
-1.86578
-1.80833
0
-1.38603
-2.56313
-2.62787
-2.13458
-2.96605
0
-6.13264
0
-6.42596
-1.70986
-2.20116
0
-3.99374
-2.07148
-3.70392
0
-6.21493
-0.472564
-14.7857
-2.07619
-7.77109
0
-6.1468
0
-4.28071
-3.92954
-1.64162
-1.09643
0
-1.22631
0
-3.33494
-4.44401
-4.5088
-5.07747
0
-0.791965
0
-0.297798
-1.89568
0
-6.62265
0
-2.83009
-0.240738
0
-5.67976
-4.15977
-0.74852
0
0
-1.64272
-2.30222
-1.99381
-3.44845
-3.46312
-2.13807
-2.98356
-2.39897
-2.4554
-0.830578
-1.18564
-0.312032
-0.596399
0
0
-1.11107
-3.86937
-2.37661
0
-6.90477
-4.20178
-7.16825
-0.323854
-2.52696
-4.45355
0
-9.59826
0
-1.22704
-6.96528
0
-0.100149
-5.35075
-2.10548
-1.39171
-1.23895
-3.76049
0
0
-0.908354
0
-4.16178
-5.47291
-0.56565
-4.8371
-0.484205
-5.6537
0
0
-7.31267
0
0
0
-2.90745
-4.83162
-2.6496
-0.73728
-0.247187
-4.76543
-3.5494
-2.73569
0
-0.0895188
-3.63924
0
-7.32036
-4.76063
-4.33801
-1.95053
-0.323013
-5.29508
0
0
-0.913735
-4.94472
-3.97582
-7.79861
0
-2.99369
0
0
0
0
-5.94369
-3.06133
-0.020253
0
-8.20802
0
0
-7.69462
-3.35648
-2.48851
-4.97055
0
0
-6.13472
-0.59757
0
0
-7.64749
0
-6.01367
0
0
-1.61172
-3.36493
0
-5.3955
-4.56393
-0.214018
-5.51261
-1.87822
-4.86115
-4.61519
-3.08664
-5.53062
0
-2.25166
0
-0.842394
-5.5224