<?xml version="1.0"?>
<VTKFile type="RectilinearGrid">
<RectilinearGrid WholeExtent="0 32 0 32 0 32" Origin="0 0 0" Spacing="1 1 1">
<Piece Extent="0 32 0 32 0 32">
<PointData>
</PointData>
<Coordinates>
<DataArray type="Float32" format="ascii">
0 0.524874 1.04975 1.57462 2.0995 2.62437 3.14924 3.67412 4.19899 4.72386 5.24874 5.77361 6.29849 6.82336 7.34823 7.87311 8.39798 8.92285 9.44773 9.9726 10.4975 11.0224 11.5472 12.0721 12.597 13.1218 13.6467 14.1716 14.6965 15.2213 15.7462 16.2711 16.796 
</DataArray>
<DataArray type="Float32" format="ascii">
-5.03879 -3.62163 -2.20447 -0.787311 0.629849 2.04701 3.46417 4.88133 6.29849 7.71565 9.1328 10.55 11.9671 13.3843 14.8014 16.2186 17.6358 19.0529 20.4701 21.8872 23.3044 24.7216 26.1387 27.5559 28.973 30.3902 31.8074 33.2245 34.6417 36.0588 37.476 38.8931 40.3103 
</DataArray>
<DataArray type="Float32" format="ascii">
0 0.524874 1.04975 1.57462 2.0995 2.62437 3.14924 3.67412 4.19899 4.72386 5.24874 5.77361 6.29849 6.82336 7.34823 7.87311 8.39798 8.92285 9.44773 9.9726 10.4975 11.0224 11.5472 12.0721 12.597 13.1218 13.6467 14.1716 14.6965 15.2213 15.7462 16.2711 16.796 
</DataArray>
</Coordinates>
<CellData>
<DataArray type="Float32" Name="Scalar" format="ascii">
0
0
0
0
0
0
0
0
0
0
0
0
0
0
0
0
0
0
0
0
0
0
0
0
0
0
0
0
0
0
0
0
0
0
0
0
0
0
0
0
0
0
0
0
0
0
0
0
0
0
0
0
0
0
0
0
0
0
0
0
0
0
0
0
0.0854695
-0.574599
0
-0.696627
-0.224821
0.0125661
-0.168687
-0.195009
0.435186
-0.552796
0
-0.516466
-1.19072
0
-0.626984
-0.374628
0.0226133
-0.364316
0
-0.211501
-0.100137
0
-0.2783
-0.159196
0.0997199
-0.353891
0
-0.856251
-0.708245
0
-0.425146
-0.260192
0.0610776
-0.032805
0
-1.58163
-0.0308139
0
-1.26266
-0.61593
-0.423136
-0.470454
0
-0.249073
-0.758962
0
0.01278
-0.261918
-0.887012
-0.19482
0
-1.93472
-0.152176
0
-0.882955
-0.633272
0
-0.316618
0
-0.439631
-0.677775
0
-0.427775
-0.406377
0
-2.36029
-0.485778
0
-8.11762
-1.30807
-7.41261
-1.90781
-1.09133
-4.23696
-1.6234
-6.84376
0
-3.58087
-0.32951
0
-0.67822
-1.40272
-5.66677
-0.246124
-4.68101
-0.168335
-2.43307
0
-2.51383
0
-0.239353
-1.67279
-1.48197
0
-3.93218
0
-4.35696
-3.65018
0
-0.380683
-3.11601
-2.04691
-3.47648
-1.28062
-3.79874
-3.50392
0
-1.54353
0
-0.433432
-3.74825
0
-0.178282
-6.48357
0
-7.79001
0
-7.17221
0
-6.37162
0
-5.48386
0
-2.99156
0
-8.7264
-2.39607
0
-1.13788
-1.09675
0
-6.6685
-1.27465
-3.3843
-1.42306
0
-0.433237
-1.91769
-6.82218
-0.476879
-4.14348
0
-3.80975
0
-4.41816
0
-2.06949
-1.09646
0
0
-3.58849
0
-2.84218
-1.62153
0
-3.53427
-4.53462
-0.926023
0
-2.72086
-6.98429
-0.584639
-5.15023
-5.22817
-0.983541
0
-2.67762
0
-1.33165
-0.330448
-2.95894
0
-2.60376
0
-1.7711
-1.79012
-0.775109
-5.19917
0
-4.70491
0
-3.43571
-3.17208
-1.36597
-2.75789
-5.26408
-0.754972
-0.281203
0
-1.11881
-5.96126
-1.29582
-5.26468
-1.28708
0
-2.00611
-1.1969
0
-0.0217452
0
-1.20434
-3.31117
-3.95857
-1.10408
0
0
-6.07082
-2.42061
-0.94125
-5.20759
-0.708384
-6.4942
-1.55789
-2.53814
-6.19948
0
-2.52305
-3.83994
-1.7216
-9.32203
-2.97972
0
-3.13675
-3.19153
-1.0661
0
-3.32692
-2.61324
-1.37944
0
-0.0157699
-1.29941
0
-4.61644
-2.12465
0
-2.60322
0
-6.59481
-2.03271
-5.28207
-0.801727
-5.29254
-2.01801
0
-4.89336
0
-2.42226
-0.028766
-4.01615
-11.1652
-0.137629
-1.45065
-4.50919
0
-0.59454
-0.224281
-1.5246
0
-5.7392
-2.92775
-4.6926
-7.54519
-1.09447
-2.85404
-6.92851
-1.24594
-6.89525
-2.95441
-7.33545
-1.41799
-0.902595
-2.27328
0
-2.47352
0
-6.99193
-0.0768997
-3.80322
-2.51092
-2.80611
-1.35571
-0.613207
-1.01891
0
-4.32029
-0.690762
-4.7776
-0.126661
-5.64237
-3.15467
-3.5667
-0.14919
-2.60043
-0.338348
-5.01377
-0.327622
0
-2.6878
-0.941541
-8.69426
-3.58978
0
-4.7547
0
0
0
-1.59819
-2.84051
-4.58363
-1.28725
-1.9277
-1.94524
-4.47902
0
-8.51976
-0.230115
-4.28534
0
-3.79136
-4.29194
-0.673188
-2.31658
-7.88257
0
0
-0.112655
0
-1.93343
-2.97199
-0.578102
-0.0825366
-5.2973
-0.37676
-5.13878
-2.978
-1.85079
-7.6934
-5.67963
-3.75741
0
-2.51251
-1.68649
0
-3.05667
0
-3.15507
-1.45656
-4.44981
0
-2.5877
-0.681737
-0.052099
-3.13992
-1.98313
0
-1.62805
-6.19952
-2.32518
-2.23871
-3.90551
-2.25781
-1.4877
-2.08563
-2.30888
-6.59888
-0.365781
-4.99055
-1.83942
-7.03338
-1.16929
-6.47308
0
-3.80861
-2.26332
0
-2.25803
-6.06941
-0.192081
-7.31426
0
-4.00372
-4.21595
-1.10254
-1.43571
-1.82897
-5.16539
-1.5314
-0.858803
0
-2.59832
-4.9521
0
-0.648321
-3.67967
-0.504006
-2.01528
-5.51116
-1.76087
-3.90692
-0.640475
-5.72652
0
0
0
-0.400082
-2.62698
-4.33541
-1.29738
-1.56915
-0.33466
0
-1.74232
-4.7062
0
-4.79824
-4.20083
-2.34469
0
0
-0.70455
0
-1.67917
-6.1628
-0.0753508
-2.0575
-0.256508
-2.6707
0
-2.72757
0
-1.31303
-4.51769
-1.24762
-4.35789
-0.506653
0
0
-4.27037
-5.6467
-3.53901
0
-3.48703
-2.24177
-1.09526
-2.36873
-4.91275
-3.44488
0
0
-2.01898
-4.60897
-2.39198
-1.37526
-0.0875158
0
-0.224608
-1.57511
-4.54857
-0.969183
-1.09583
-1.51879
-0.526315
0
-4.61521
-0.999388
-4.23945
-1.07764
-5.00424
-0.275395
-4.42442
0
-4.21983
-1.39391
-2.06664
-0.936144
-1.11978
-1.25333
-2.22883
-1.28289
-1.48126
0
-0.903881
0
-8.64836
-4.22651
0
-7.75787
-1.51294
-5.89421
-4.00704
-6.81492
-0.485218
-0.633652
-0.533766
0
0
-2.66541
0
-6.17996
-1.01514
-0.339283
-1.18283
-1.92712
0
-0.151784
-0.0911082
0
-3.15267
0
-1.81342
0
0
0
0
-5.84272
-0.892871
-0.686708
-5.04054
0
-2.15294
0
-1.93234
-2.15144
-1.47128
-0.799122
-3.4792
-3.80652
0
-8.75668
-2.37692
0
-0.307714
-2.88239
-4.41224
-1.15693
-4.29053
-3.30893
-1.39083
-0.502143
0
0
-1.06236
0
-2.33036
0
-1.84145
-0.801829
-2.80378
-0.400968
-6.48428
0
0
0
-3.45161
-1.91746
0
0
-1.43983
-1.10008
0
-1.12296
-4.7846
-0.109661
-0.412103
-4.99108
-3.72148
0
0
-8.36692
0
-6.42119
0
0
0
-2.53391
-3.46863
-2.255
-3.67017
-4.15643
-4.49443
-1.63384
-2.18991
-0.725496
-0.105415
-3.90323
0
-8.47114
-0.345864
-3.27182
-0.0168303
-0.294772
0
0
-1.50678
-1.367
0
-1.7443
-0.66202
-1.1988
-0.609264
-2.35987
0
-0.933992
-2.52765
0
0
0
-1.74096
-0.769651
-1.84637
-1.29667
-1.31267
-4.83481
-1.83432
-2.80998
-2.52335
-0.920229
-4.54953
-1.58617
0
-6.06677
-3.23566
-0.38942
-0.303776
0
-5.40333
-0.546624
-6.29515
-2.5731
-4.98792
-3.96561
-0.0828646
-0.653254
-1.54235
-3.56165
0
-4.66072
-2.79317
-3.23397
-1.46134
-0.40248
-2.79169
-6.04129
-1.78986
-7.77527
-1.42457
0
0
-0.424797
0
-5.93088
-0.895309
0
-2.82858
-2.06456
-7.82006
-2.13251
-0.945807
-0.369451
-4.01295
-1.43166
0
0
-5.97588
-2.70931
-1.21906
0
-3.49338
-2.99594
-1.75711
0
-3.21202
-9.03437
-0.682669
-6.7297
0
-0.489173
-2.29796
-1.06349
-6.74415
-3.9961
-3.20694
-1.55874
-0.0728925
0
-1.5359
-2.65465
-0.108725
-1.8738
-0.666019
-6.76732
-0.286647
0
-3.87053
-0.0991634
-3.82401
-2.17621
-0.603049
0
-3.46498
-3.39812
-3.57293
0
-1.09087
-2.66074
-1.01915
-5.15757
-0.121347
-0.430277
0
-1.27802
0
0
-3.00799
0
-3.23272
0
-4.01665
-1.12042
-5.52661
-0.963861
0
-5.87344
-3.65914
-0.229968
0
-5.47476
-4.89543
-2.89548
-2.90001
-2.39005
0
-0.215243
-1.97658
-0.387879
0
-3.17924
-0.548355
0
-2.19431
-0.108501
0
-3.11516
-1.59721
-2.34941
-3.88923
-2.30486
-2.27118
-2.04416
-1.5566
-0.597819
-4.77866
0
0
-0.330792
0
0
0
-1.04934
-1.03612
0
0
-2.29222
-0.873606
-12.8824
0
-1.43759
-0.0450992
-2.33123
-2.19632
-5.41451
-3.49014
-7.0435
-0.358154
-4.79905
0
0
-12.3829
-1.45859
-0.0995592
-4.60616
-3.0793
-2.07289
-0.724355
-4.13185
-7.509
-8.35268
-4.22214
-0.162332
-5.08569
-0.201636
-0.095368
0
-9.79776
0
-6.41876
0
-3.05237
-0.371232
-5.89012
-1.00309
-3.98217
-6.45441
-2.67183
-8.1285
0
-1.39137
-4.09948
0
-3.56323
-8.8067
0
-4.38726
-0.952542
-2.41775
-1.93037
-0.79757
0
-1.15692
-5.08178
-0.527219
-1.96912
-5.56183
-0.129981
0
-1.40016
-7.76725
-0.527535
0
-1.71457
-1.00322
-0.172652
-0.125041
-0.356055
-0.36447
-2.45746
-0.0564991
-2.81779
0
-0.538815
0
-0.311353
-0.00209838
0
-1.91552
0
-0.254089
-7.00296
-1.65935
0
-2.20495
-2.50508
-5.10073
-0.873618
-1.61074
0
-4.1852
0
0
-2.19031
0
-6.08069
0
-5.04354
-1.64415
-3.79493
-3.03908
-1.21949
-0.804328
-4.21887
-1.34434
-7.41043
-1.98785
-3.19882
-0.311599
-4.35717
-4.38584
-3.10196
-1.96763
-3.11186
-1.93339
-4.02142
0
-2.58716
-2.77342
-7.30499
-2.17092
-2.27175
-0.164758
-5.24209
-4.74701
-1.7927
-0.102905
0
-2.79373
-1.25546
0
-0.558941
0
-7.75776
0
-9.21885
-0.122999
-12.8688
0
-6.84929
0
-3.47613
-4.08808
0
-2.53109
-4.41072
-2.73652
-4.17665
-5.5728
-0.80561
-6.46389
0
0
-0.996064
-7.09893
-1.23464
0
-1.09831
-4.54273
0
-2.81073
-3.75496
-1.74146
-2.87622
-2.70779
-2.77476
0
-2.23447
0
-5.89492
-1.33575
0
-7.71729
0
-2.13952
0
-4.33759
-1.56441
0
-6.35874
-3.17142
-5.3559
-9.30171
-3.81334
0
0
-5.8222
0
-4.1085
0
-1.98356
-0.960869
-7.57649
0
0
0
0
0
0
0
0
0
0
0
0
0
0
0
0
0
0
0
0
0
0
0
0
0
0
0
0
0
0
0
0
0
0
0
0
0
0
0
0
0
0
0
0
0
0
0
0
0
0
0
0
0
0
0
0
0
0
0
0
0
0
0
0
-1.02845
-1.34256
0
-1.45451
-1.6244
0.0386474
-0.771546
-0.309313
-0.214002
-0.9773
-0.268086
-1.39877
-0.119844
0.0608798
-0.989935
-0.574334
-0.16936
-1.10616
0
-1.5785
-2.14725
-0.84781
-2.15528
-0.933187
-0.540797
-1.62178
0
-1.25675
-1.22554
0
-1.38443
-0.52738
-0.285287
-1.96162
0
-0.578875
-1.25429
0
-0.203977
-1.58394
-0.428794
-2.07757
0
-2.04811
-0.879234
0
-2.28703
-0.716102
-0.70429
-3.98494
0
-1.0771
-3.20047
0
-1.56917
-1.99099
-1.2723
-0.779743
0
-1.50898
-0.204705
0
-1.38319
-0.00928287
-2.95591
-0.0274118
-3.08714
-6.08458
-4.35406
-1.90695
0
-2.06813
-2.62777
-5.12464
-0.586523
-3.13091
-2.20811
-2.89341
-0.719288
-8.66877
-1.58456
-6.15951
-1.03423
-4.31597
-2.4518
-1.08093
-10.3491
0
-3.75386
-3.37982
-4.0257
-3.65235
-3.80607
-3.67967
-2.40042
-3.4308
-1.60316
-1.14067
-4.40331
-3.29593
-0.0672857
-1.76897
-1.13388
-2.59472
-0.585584
-3.66748
-0.921117
-3.92416
-1.39968
-0.662373
0
-3.51113
-1.98022
0
-1.19205
-0.27812
-1.14473
0
-1.04139
-0.228028
-0.302599
-1.38236
-2.79484
-0.961189
0
-2.20093
-1.21369
-5.06973
0
-3.40801
-2.96928
-4.5962
-0.655743
-3.71768
0
-0.721373
-1.50144
-1.57424
-3.75325
-8.26546
-0.415696
-5.0354
-0.439049
0
0
-1.50161
-4.9444
0
-7.68928
-0.568525
-0.17183
0
0
0
-1.8122
-1.43833
0
-3.81295
-0.419835
-2.15453
-4.53386
-1.71404
-3.1588
-0.0498451
-3.20088
-2.31196
-3.30302
-2.80966
-3.13079
-3.30257
0
-4.46966
0
0
-8.78135
-2.83198
-7.44852
0
-6.1921
0
-0.101713
-1.02384
-1.30494
-2.91903
-1.05702
-0.27648
-0.311327
-4.61912
0
-0.830823
-0.996037
-0.106122
0
-3.2294
-3.87416
-0.640672
-6.49895
-2.10101
-7.76962
-3.90806
-2.5443
-0.0241691
-0.170709
0
-6.75893
-3.52946
-0.718266
-2.07799
-3.23363
0
0
0
-5.52274
-0.996317
0
-1.39518
-6.56351
-1.46006
0
0
-2.54834
-4.95698
-1.25764
-3.37219
0
0
-4.7483
-2.22416
-0.859212
-5.37685
-0.250982
-4.18587
-2.02539
-0.102361
0
-6.28235
0
0
0
-0.184579
0
-0.419189
0
-4.00631
-0.237937
0
-1.83635
-1.75263
-2.67469
-3.19662
0
-0.851709
-1.15924
0
-3.95733
-5.22641
-5.76546
0
-2.6778
-0.21245
-3.88192
0
-0.154403
0
-0.986419
-1.10466
-4.73443
-3.67714
0
-0.0904028
0
-7.72362
-1.30572
-0.775604
-3.94891
0
-2.12078
0
0
-4.73925
0
-5.91388
-0.909642
-5.85989
-6.19016
-1.91224
-3.18896
-0.512103
0
-1.35704
-1.20824
-0.144583
-2.48389
-2.92813
-4.1041
-2.62368
-5.44003
-0.176182
-1.78578
-0.312834
-2.46822
-0.425142
-3.01919
0
-3.45441
-5.28057
-8.87525
-0.987302
-3.14264
-0.181361
-3.33953
0
-2.67817
0
-4.99088
0
-1.10842
-5.05617
-4.77765
0
-0.0694093
-1.46901
-1.11868
0
-0.137627
-5.29509
0
0
0
-2.12133
-2.59895
-6.29876
0
0
-6.3629
0
-9.15352
-1.02602
0
-0.384915
-0.849484
-2.95911
0
-5.3963
-4.09354
0
-0.956418
-1.02269
-1.49061
-0.0329298
-3.30863
-1.22077
-3.99379
0
-0.846548
-3.97967
-5.67105
-3.5214
0
-4.91895
0
-1.7209
-1.88243
-5.50099
0
-2.35807
0
-8.64994
-0.0170016
-0.254992
-0.507107
0
0
-1.08252
0
-0.222788
-1.55098
0
-6.13178
0
-3.67068
-0.359665
-0.814235
-0.284962
-0.270748
-3.21334
-0.328415
-0.197408
-2.74951
-0.569122
0
0
-4.67514
0
0
-0.399627
-4.44439
0
-0.0108531
0
0
-4.3854
-2.13167
-8.26677
0
-1.97985
0
-0.862831
-5.5339
-0.348834
-2.29817
-2.18705
-5.14571
-1.94102
-4.56472
0
-2.94957
-1.61257
-3.48211
-1.74942
0
-7.4049
0
0
-4.02089
-0.887393
0
-2.05416
-0.784938
-3.6759
-0.725314
-5.52637
-0.0830013
0
0
-1.31938
-0.898859
-2.18176
-0.113485
0
0
-3.95119
-0.439122
-0.553856
-3.4017
-1.76137
-2.53329
0
0
0
-3.10922
-1.204
-0.907917
-3.74615
0
-4.37163
-1.34502
-7.85103
0
-2.89969
-6.65378
-1.74026
-5.19784
0
-2.37592
-1.17155
0
-0.19082
-3.64913
0
-4.53993
-2.77276
-1.40907
-2.33556
-0.73099
-2.12337
-1.65959
-3.29448
0
-2.37609
-4.33113
-3.57935
-5.21306
-4.01142
0
-2.47847
0
0
0
-1.12659
0
-7.41855
-0.389438
-4.45607
0
-5.39674
0
-5.74799
-0.993218
0
-0.994778
-5.90814
0
-3.06633
-6.58876
-5.22911
-3.3852
-8.58285
-2.63002
-2.98239
-0.96664
-2.93837
-3.15803
-7.60526
-0.661829
-2.99977
0
-0.581882
-8.22231
-0.194597
-2.26472
-0.405803
-0.419792
0
-0.402636
-4.60959
-1.7509
0
-1.34247
0
-3.27679
-6.72262
-0.841561
-2.607
-1.22859
0
0
-1.27941
-3.71226
-0.72425
-4.69343
-0.216585
-7.84988
-4.22795
-2.13665
-1.25789
0
0
-2.82167
-1.03325
-0.122822
0
-10.6101
-1.00671
-3.40207
-2.33795
-0.690018
-6.64258
-5.80734
-4.78257
-9.3933
0
0
-5.73383
-2.72396
-5.52915
0
-6.87808
-0.822671
-0.0386287
-1.49132
-4.26085
0
-6.214
-1.54044
-0.613011
-1.39536
-0.597958
-2.0506
-1.0725
-0.208551
0
-0.27822
-1.89422
-4.53528
-2.57918
-0.641911
-1.06922
-4.48396
-0.574232
-3.4552
-2.88506
-8.00389
-7.43132
-1.14831
0
-7.2222
-0.330541
-5.77764
-2.77937
-3.79467
-2.34123
-1.61376
-2.44243
-0.767588
-5.19836
-1.88462
-2.16181
0
-2.56013
0
-0.435268
-0.891327
0
-0.753048
-4.22666
-2.16923
-5.68077
-3.97437
-1.24374
-4.60356
-0.0858793
-0.654459
0
-6.86122
0
-3.34948
0
-3.67342
0
-0.792309
-2.83584
-3.68743
-7.7843
-1.35991
-3.19257
-2.70168
-1.24895
-1.80037
-4.22086
-5.01319
-1.28539
-4.65208
0
0
-2.82655
0
-3.94918
0
-0.155776
-6.26399
-0.179182
-3.31477
-1.86054
-5.90751
-4.01939
0
0
-1.71659
0
-0.275636
-0.17288
-4.02077
-2.91194
-0.866133
0
-5.58047
-1.82425
-4.93099
0
-0.324115
0
0
-4.77329
-0.23319
-2.57052
-0.492881
-2.8626
0
-1.47336
0
0
-2.16237
-1.67155
-8.49036
0
-1.04159
-1.13968
-1.43868
0
-3.16292
0
-3.32438
-0.806471
-1.99505
-0.0663079
-2.08461
0
-9.89094
-1.21867
-4.23024
-0.638351
-2.92408
-8.98288
-0.946158
-1.96196
-0.26633
-1.28987
-7.10545
-7.15913
-0.573238
-7.16057
0
-4.53001
0
-4.42545
-5.04352
-3.77579
-2.45019
-1.25554
-1.15155
-4.44345
-1.61689
-1.46779
-1.85598
-7.37708
-0.849939
-5.75685
-1.03912
0
-4.31587
-0.95302
-4.53112
0
-5.30794
0
-0.322655
0
-3.5939
0
-3.0004
-0.860281
-1.78167
-0.596102
-0.790789
-3.40335
-0.680912
-3.44989
-0.00390232
-1.19202
-0.784013
-2.10316
-0.729318
-1.54574
-3.95432
-1.946
-1.79205
-0.454304
-5.92922
-2.17635
-1.94158
-4.61256
-0.282628
-3.95199
0
-0.62826
0
-6.65449
-5.8785
-3.03187
-0.175304
-0.997363
-0.314969
-1.18181
-1.35427
-0.530035
-0.698281
0
-0.298303
-0.422664
-7.17656
0
-1.67956
-3.15421
-2.46381
0
-0.409315
0
-1.20045
-7.57288
-1.52642
-0.677983
-9.20368
-0.860996
-2.85392
-0.331732
-0.0729258
-4.33556
0
-0.406764
-2.38036
-0.264452
-8.54992
-0.169207
0
-0.0738474
-2.61634
-9.98211
-4.04323
-11.2332
-0.33737
0
0
-5.47179
0
0
-8.93767
-0.643712
-13.2332
0
-1.15239
0
-2.15621
-4.44456
-2.90409
-6.24969
-7.09482
-1.80002
-6.74594
-0.83553
-1.37781
-1.64487
-7.65455
0
-3.27901
-1.45398
-4.38769
-0.621547
-0.500255
0
-5.93864
0
-1.82223
-1.89943
0
-4.16991
0
-10.7539
0
0
-1.23548
0
0
-4.25321
-1.25999
-5.03483
-1.45951
0
-5.49449
-1.16907
-3.49109
-0.780833
-5.75072
0
0
0
0
0
-7.75237
-1.4592
-2.10312
-0.79086
0
-3.28477
-3.05285
-4.1569
-2.32779
-1.77404
-3.70892
0
0
-4.55379
-0.424312
-2.00723
-6.03048
0
-0.538201
-1.729
-4.78184
0
-0.5525
0
-2.12595
0
-8.53262
-2.45752
0
-5.4146
-1.43962
0
-1.85029
0
-0.0270162
-0.845565
-0.52391
-0.150247
-8.56695
-6.46086
0
-5.06659
-3.13109
-2.69051
-0.682211
-2.22861
-1.21668
-4.40944
-0.170624
-0.312012
0
-7.93839
0
0
-0.205365
-4.71978
0
-2.53821
-1.26594
-5.46685
-1.61933
-0.756568
-6.17168
0
-5.70487
0
-5.3051
-1.19016
-1.63682
0
-6.02594
0
-1.10753
-1.52677
-2.64855
-1.40788
-0.970686
-2.17406
0
-0.111124
-1.14999
0
0
-4.4327
0
-3.93146
-4.82569
-5.48149
-1.76411
-7.45399
-1.34954
-1.72433
0
0
0
0
0
0
0
0
0
0
0
0
0
0
0
0
0
0
0
0
0
0
0
0
0
0
0
0
0
0
0
0
0
0
0
0
0
0
0
0
0
0
0
0
0
0
0
0
0
0
0
0
0
0
0
0
0
0
0
0
0
0
0
0
0
-0.0499254
0
-0.116682
0
0
-0.178142
0
0
0
0
0
0
0
-0.473624
0
0
-0.388662
0
0
-0.209538
0
0
0
0
-0.171434
0
0
0
0
-0.0819128
0
0
0
0
0
0
0
0
0
0
-0.079673
0
0
0
0
0
0
0
-0.0497953
0
0
-0.169381
0
4.66313e-05
0
0
-0.637441
0
0
-0.367917
0
0
0
-1.16374
-2.27226
-5.70224
-0.412422
-0.321148
-2.54871
-4.95497
-1.3734
-0.0353918
-2.8854
-0.483268
-1.96548
-0.622123
-5.20361
0
0
0
0
-3.88374
-1.14728
0
0
0
-0.925833
-2.26793
-7.38206
0
-2.87928
0
0
-5.58564
-1.18356
-2.75186
-1.73054
-2.16272
-0.265683
-3.00758
0
-2.84324
-3.88582
-3.99856
-5.26884
-1.3195
-0.360209
0
-1.61206
-2.64065
0
-0.11821
-3.17819
-0.399248
0
-2.17283
0
-3.30305
-5.49196
-4.01605
-1.47402
-2.22715
-2.86445
-5.87134
-0.392923
-2.86906
-1.00715
-2.16306
-0.5295
-0.112916
-0.849794
-3.67013
-8.05396
-2.62758
-4.69781
-1.02307
-1.94887
-3.38199
-3.95532
-2.45512
-6.63424
-0.96693
-6.99988
-1.3043
-5.99542
-1.43926
-4.36303
-0.234424
-2.12511
-2.53424
-0.689883
-3.68482
0
-3.44611
-0.228294
0
-1.41437
-7.78977
-0.802959
-3.65685
-1.79476
-1.38151
0
-0.826705
0
-1.17821
0
-0.611466
-0.33917
0
0
-0.558624
-4.35124
0
-0.624973
0
0
-2.85531
-3.58056
0
-0.2676
-7.59902
0
-1.23144
-2.98571
-1.25033
0
-5.8013
-4.43204
0
-7.14971
0
0
-0.0125271
-1.99054
0
0
0
0
-1.58799
-2.42248
-3.81748
-2.19922
0
-0.145707
0
0
-1.33132
-1.64408
-0.0593701
-4.44011
-5.26063
-3.20839
-3.35809
0
-6.63166
-6.07565
-4.61601
-5.98453
0
-2.90167
0
-3.7342
-3.47931
-6.30663
0
-3.20342
-0.470533
-4.87046
0
0
-0.416856
-4.43789
0
-1.86721
0
-8.60563
-0.546437
-4.26225
-1.06659
-6.57396
-6.79302
0
-2.70599
-1.71198
-0.557992
-5.08086
0
0
-2.66875
0
-3.03757
-2.71744
-2.71373
-6.26162
-1.97043
-0.543566
-3.80641
0
-5.64404
-2.07935
-4.24543
-1.23635
-2.89969
0
-0.331825
-1.12928
0
-6.36359
0
0
-3.65422
-0.717363
-0.182433
-1.16134
0
-6.16164
-1.04674
-0.947522
0
-2.00343
-2.52498
-2.84701
0
-6.48088
0
-3.76581
-4.24701
-2.89089
0
-7.88772
-1.21372
0
-1.25743
-0.194226
-4.34937
-2.46265
0
-1.56915
-2.2508
-1.80279
-0.751332
-5.18635
0
0
0
-1.0777
-1.01923
-1.37636
-3.32374
-2.0546
-2.82449
-1.02378
-3.38356
0
-7.27044
-3.01097
0
-3.6822
-6.84367
-1.18643
-2.77874
-2.83506
0
0
0
-6.16972
-0.112048
-5.24308
-2.59205
-0.510427
-3.64389
-2.21617
-0.0817917
-0.50923
-0.917625
-4.67027
-4.90231
-1.86356
-0.879096
-2.76876
0
-1.81565
0
-0.763686
-0.680988
0
-3.76528
-2.70741
-3.00666
-1.13886
-1.1387
-1.27917
-3.22911
-0.493719
-0.482407
-7.97238
0
-5.19817
0
-1.98122
-3.76146
0
0
-6.56574
0
-2.71474
-6.55088
0
-6.85416
-0.77893
-8.12559
-1.9204
-7.89424
0
-4.34121
-0.255842
-7.71917
0
-2.54611
-0.191673
-3.74492
0
0
-2.12873
-3.64398
-2.56068
-0.245929
-0.860751
-1.511
0
-1.94026
-4.85283
-5.99871
-2.04712
-0.420155
-2.95255
-1.36998
-2.18274
-2.18549
0
0
-0.404794
-1.97574
-2.10239
-0.233436
-0.798854
0
-1.89298
0
-3.26788
-2.24594
-0.496666
0
-9.15842
-2.39977
0
0
0
-3.42164
-0.099444
-7.70143
-0.978876
0
-0.243445
-1.47195
-5.72464
-6.01941
-1.41432
-2.52486
-0.519447
-2.80181
-1.27779
-8.33737
-6.77418
-0.0608452
-3.88164
-3.28735
-5.57597
0
-4.82282
-2.30426
-2.16095
-1.00666
-0.487753
-1.54286
-5.30098
-2.3757
-2.22648
-2.9082
-4.4114
0
-1.94935
-0.731458
-1.42553
0
-6.96789
-1.25361
-5.70662
-1.56465
-0.0551003
-0.394024
0
-3.97996
-4.59996
-2.32312
-3.75654
-3.00964
-3.92484
-2.53968
-0.701353
-2.52481
-0.557077
-5.56171
0
-8.52506
0
-6.94466
0
0
-2.94933
-0.474223
-1.49619
0
0
-5.04969
-5.51007
-5.86815
-1.87578
-2.72229
-5.38934
-1.35414
-0.855505
-9.43585
-0.999256
0
-3.62945
0
-6.58385
0
-4.12171
-0.297095
-1.07326
-0.264822
-7.50059
0
-0.138427
0
-2.22647
-3.47975
-1.64009
0
0
-2.55848
0
-3.84362
-7.3188
0
0
-4.14778
0
-8.25858
-6.5601
0
-0.658513
-0.126049
-0.388652
-4.33842
0
0
-0.118598
-3.4792
-0.614905
-5.84456
0
-2.66337
-0.693425
-3.21476
-0.65785
-0.709576
-1.50664
0
-2.57315
0
-0.0177248
-2.20099
-5.67373
-3.97192
0
-6.23049
-2.14996
-0.792541
-5.08935
-2.54035
0
0
-5.14969
0
-5.80589
0
-0.603952
0
-0.734824
0
-1.28019
-0.0594795
0
-1.82615
-3.23927
-1.64466
-5.44269
-6.45525
-4.17439
-3.78254
-0.422705
0
-7.49656
-0.458219
0
-6.70665
-0.446219
-6.88236
0
-0.757148
-1.9753
-5.54265
-3.54272
-1.32533
-1.83169
-3.39416
-1.95546
0
-0.706429
-6.25851
-2.99359
-0.41755
-0.256464
-2.40356
-1.42149
-7.20661
-2.03806
0
-2.69548
-2.51778
-0.64608
0
-0.840584
0
-2.06901
-0.187835
-4.37872
0
-3.56466
0
-1.68905
-1.98065
-2.75633
-0.100487
-1.16695
-5.68424
-5.67453
-4.56082
-2.62465
0
-1.27536
-6.29607
0
-8.43222
-0.339696
-3.26149
0
0
-4.52006
-5.81729
0
0
-4.68869
-0.0811759
-2.74146
0
0
-1.07653
-6.95655
-4.53637
-7.81745
-3.3195
0
-4.47284
-5.58018
0
0
-1.24394
0
-0.164592
-2.4054
-3.77698
-4.26515
0
-7.69877
0
-6.55871
0
0
-3.41388
-0.971437
0
-3.48487
-1.96701
-0.237452
-3.22324
0
-3.9987
-2.40673
-4.33924
0
-0.877915
-1.62072
-2.9203
-1.67564
0
-4.20596
-6.20976
-1.75095
0
-4.36926
-2.15181
-3.39692
-6.43396
-2.59124
-3.30949
0
-0.555469
-3.65726
-1.69706
-4.93653
-1.38091
-8.80447
0
-2.53631
0
-8.3043
0
-1.75597
-4.38671
0
-7.94344
0
-6.14109
0
-2.02586
0
-1.93755
-3.87296
-0.0959717
0
-1.30954
-0.288567
0
-3.08161
-0.738549
-0.082699
-0.121847
-3.76462
0
0
-3.82374
-6.34631
-4.70885
-10.2464
0
0
-2.5783
0
0
-5.1573
-1.53899
-6.70006
-2.16243
-0.447889
-0.122941
-2.53986
-2.97314
0
-4.25132
0
-2.08823
-1.40934
-2.9219
-1.41708
-4.12723
-1.29575
-2.36048
-0.372022
-2.30635
-1.43293
-5.88412
0
0
-0.356652
-1.58694
0
0
-6.07466
-1.00306
-6.15118
0
-0.0504143
-0.374451
-3.45592
-1.84892
-1.95429
-4.83997
0
-0.870192
-1.28521
-3.65493
-1.37125
-6.87343
0
-3.70527
-4.17794
-2.31195
0
0
-9.72359
0
-9.40875
-0.0277801
-5.5173
-1.88307
-0.162862
-0.300176
-1.38802
-5.78437
-0.111285
-5.29473
-0.0371837
-4.60146
-6.06982
0
-4.46512
0
-4.51187
0
-8.08226
-1.34545
-1.23585
0
-0.364138
-3.52833
-2.34055
-6.10017
-0.827972
-7.83106
-0.448902
0
-0.368965
-2.42797
-0.330148
-0.88485
-2.13015
-1.44755
-3.22456
0
-1.90494
0
0
-1.55616
-3.15801
-6.01601
-3.0116
-0.0520607
-1.28637
-1.27523
0
-1.53725
-2.03031
-0.675296
-3.42638
0
-1.67718
0
0
-0.302819
0
-0.744875
-1.35374
-5.36341
-1.27778
-4.92642
-1.29984
-2.98102
-3.8851
0
0
-4.51257
-9.04513
0
-0.300693
0
0
-6.42785
-2.80907
-2.19434
-5.54544
0
-4.51264
0
-0.385664
-3.91411
-0.227476
-1.39908
-0.851258
-3.24906
-1.09974
-3.7877
-6.92992
-2.18363
-1.42998
-5.42245
-8.22249
0
-2.72503
0
0
-9.35351
-1.08395
-0.372564
-0.296921
-6.55643
-2.31766
-7.2053
0
0
-1.34075
-0.268736
0
0
-4.92301
-0.693303
-0.403789
-5.0646
0
-1.1443
-2.19021
0
-2.10726
-0.27602
-2.87972
-0.663535
-8.80693
-0.585339
-3.41218
0
-1.7586
0
-2.88017
-0.228721
0
0
-9.03733
0
0
-4.87963
-1.04865
-1.33277
-5.96303
-1.85836
-3.47857
-2.8419
-4.99453
-1.47875
-6.22222
0
-4.65934
-2.42758
-2.05003
-1.32932
-4.52797
-2.05195
-2.91762
-0.0982219
0
-4.68427
-1.093
-9.93728
-3.19599
-0.93315
-7.07697
-7.99311
-3.60572
-7.09577
-8.43066
-0.350489
-3.71948
-2.61259
0
-1.98658
-7.47933
0
0
0
0
0
0
0
0
0
0
0
0
0
0
0
0
0
0
0
0
0
0
0
0
0
0
0
0
0
0
0
0
0
0
0
0
0
0
0
0
0
0
0
0
0
0
0
0
0
0
0
0
0
0
0
0
0
0
0
0
0
0
0
0
-0.218992
-1.74715
0
-1.93355
-0.492832
0
-0.415119
-0.566286
-0.272464
-1.07552
0.0445098
-0.71817
-1.3675
0
-1.20495
-1.04844
-1.75911
-1.7825
0
-1.77845
-1.39686
0
-1.23892
-0.367684
-0.3214
-0.64449
-0.0681756
-0.663176
-0.887891
-0.0267742
-0.837058
-1.44443
-0.487082
-0.554468
0
-1.42628
-1.14587
-0.0338925
-3.99416
-0.302611
0
-2.20477
0.0360328
-1.06564
-2.41259
0.0164744
-0.395429
-0.330833
-0.265805
-0.00221181
0
-3.50974
-0.97633
0
-1.63464
-0.643941
0
-5.02639
-0.109197
-0.685709
-0.637191
0
-0.126676
-1.34657
-7.41359
-1.90376
-3.89003
-1.22713
-5.81425
0
0
-3.62103
-1.32951
-4.71132
0
-7.70333
-0.3534
-1.00763
-5.30452
0
-2.81943
-2.38047
0
-2.56103
-6.98066
-1.94722
-4.59295
0
-1.5358
-1.96081
-0.883453
-3.38747
0
-1.26429
-1.81294
0
-2.57228
-0.613124
0
-2.38241
0
0
-0.558993
0
-2.79276
-0.128908
0
-2.61084
-2.12723
0
-0.682258
-2.93877
-1.75665
-1.71083
-1.9038
0
-2.21896
0
0
0
-0.812742
-1.09605
-1.99818
-4.99067
0
-3.16958
-3.34987
-1.90647
-1.27739
-3.10215
0
-5.47433
0
-1.86818
-1.19839
0
-5.58558
0
0
-4.15836
0
0
-5.77113
-0.326594
-1.54742
0
-4.04547
-3.02703
-0.467433
-0.416399
-1.15688
-2.45805
-0.46935
-2.85328
0
-1.08972
-0.437877
-3.90651
0
-2.07269
-3.11281
-2.68928
-6.30167
0
-3.38372
-4.70846
-0.279198
-3.71584
-5.05353
-8.49889
0
-6.02187
0
0
0
-4.11556
-2.41596
-4.54726
0
-2.07296
-2.6542
-2.57134
0
-3.44475
-1.14219
0
0
-5.37577
-0.974718
-0.412959
-0.80462
0
-1.5806
-6.25939
-2.06482
-4.13573
-0.0741271
-4.98018
-1.98716
-0.579494
-0.357802
-1.10704
0
-0.98809
-6.16244
0
-3.80807
-0.245064
-1.04021
0
0
-1.18413
-0.234655
-0.668069
-1.7593
-6.75218
0
0
-0.165623
-1.49917
-7.47979
0
-5.54093
0
-0.803435
0
-0.718725
-5.26901
-1.84393
-0.261412
-0.0404465
-2.41629
0
-5.35908
0
-5.64631
-0.659142
-3.70115
-3.48674
0
-6.00975
-0.33573
-1.88084
-1.98827
-1.87745
0
-1.95439
-0.119939
-2.39027
0
-3.36266
0
-11.1871
-2.5813
-6.71222
-2.07191
-1.22068
-0.462649
-0.0214185
-1.52018
0
0
-2.30107
0
-1.83864
-2.96201
-3.80385
-1.42499
-1.16345
-2.36483
-1.98746
-5.2615
0
-2.04187
-0.21919
-4.4255
-8.24632
0
-2.588
-0.907434
-7.5456
-1.8613
-8.22245
-2.84464
-2.02748
-0.206864
0
-2.89965
0
-9.13934
-2.01476
-3.30677
-1.15424
-1.99173
-1.88289
-9.63432
-0.181225
0
-4.0837
-4.54425
0
-8.2155
-2.41537
-1.87896
-3.78631
-6.56906
-2.31877
-2.67121
-4.74132
-3.01488
-0.958731
-1.97949
-4.28097
0
-10.6312
-1.28694
-1.28389
-0.338409
-3.00615
0
0
-5.90064
0
-4.06013
-5.07336
-10.1961
-1.62478
-3.7121
-5.25891
-3.65379
0
-5.17065
0
-0.980983
-1.03179
-4.41128
-4.54897
-1.48579
-1.35278
-0.744271
-4.1089
-4.67667
-6.18069
0
-5.42719
0
-1.75476
-1.31913
-1.7135
-3.14333
-0.307699
-4.27105
-4.19822
0
-1.85943
-1.83867
-4.33446
0
-1.47751
0
-0.69888
0
-0.412086
-6.56876
-3.04541
-0.802841
-3.03077
-4.43742
0
-1.5586
0
-3.61812
-0.865496
-0.345655
-0.23406
-0.952023
-1.90962
0
-3.12032
0
-2.13875
0
-0.216359
-0.104946
-3.44825
0
0
0
-2.35376
0
-2.20271
0
0
-0.92904
0
-1.06921
-0.412822
0
-0.462702
-2.27848
-2.04704
-6.13235
-3.94594
-3.69721
-5.84693
-2.93343
-5.97651
-10.3462
0
-6.46079
0
-3.26981
0
-7.12463
-3.34284
-0.0244015
-2.30986
-5.35844
-5.22324
-0.882279
-2.49985
0
0
-7.21132
-3.81005
-4.47402
-1.89404
0
-1.84699
-2.7281
-4.91288
-0.371299
-4.39127
-0.906616
-1.49496
0
-3.08517
-0.951206
0
-2.07991
0
0
-2.30083
-0.389655
-0.9613
0
-3.27125
0
-5.09196
0
-3.29978
-2.64203
-2.12499
-3.08586
-0.0499689
0
0
-3.49832
-1.06282
0
-5.38387
-1.59559
-0.418782
-0.76279
-5.23385
0
0
-0.467773
0
-3.9589
-1.95244
-0.375148
-0.847352
-2.93685
-1.83859
0
-1.14312
0
-7.8731
-0.104564
-3.92703
-2.17183
-1.09653
-7.71676
0
-9.32224
0
-0.0590617
-1.74457
-0.921295
-2.11285
-1.17456
-6.63327
-0.989118
-3.67453
-1.56044
-0.0367892
-0.820614
-4.24593
-0.543889
0
-5.34184
0
-7.59489
-1.12285
-5.37078
-2.66313
-3.54996
-3.06057
-0.0683326
0
0
-1.12151
-9.86984
0
-7.59613
-0.370397
-1.18871
-4.27457
-0.519614
-5.08815
-0.515585
-0.519454
0
0
-4.37506
-2.27578
-4.4202
0
0
-4.0368
0
-0.641083
0
-0.170414
-1.78354
-4.1706
0
-0.38041
-7.48881
-0.0290292
-12.1668
-0.639422
-8.13227
-1.50555
-6.21919
0
0
-1.48457
-4.12724
0
-0.77127
-3.14142
-0.278687
0
-4.1578
0
-4.40992
-0.975154
-1.6993
0
-4.51737
0
-2.76023
-3.23544
0
-1.75777
-4.47488
0
-1.72298
-2.87218
-5.64011
-0.583057
-0.714756
-2.86543
-0.948313
-0.815955
0
-3.4145
0
-0.147415
0
-0.64213
0
-7.93929
0
0
-5.96719
0
-2.55939
0
0
-5.0035
0
0
-1.28081
-3.32454
-2.28308
-1.66788
-4.21674
-0.409444
-1.95656
-2.03612
-3.20324
0
-5.60859
-3.17943
-5.36802
-3.81275
-4.29443
-1.32269
-3.1072
0
-2.01932
-4.36197
-3.0767
-0.00779418
-0.909764
-3.16523
-2.17422
-0.898321
-0.293731
0
-7.38129
-3.82259
-0.72942
0
0
-2.13896
0
-3.63321
0
-5.91063
-1.42981
-1.12939
-3.61874
-4.187
-1.38658
-3.61073
-4.6101
-6.77841
-0.3432
-7.64305
0
0
0
-2.02652
-3.80487
0
-1.02061
-0.82611
-6.30144
0
-5.07416
-4.35093
-2.18617
-2.80663
-4.68293
0
0
0
-0.924623
-7.46892
-7.45332
-3.84325
0
-5.96224
-0.462187
-8.71638
-1.76403
0
0
-5.61873
-3.94642
-1.1368
-3.44023
-8.34486
0
-3.47637
-0.507895
0
-0.00435951
0
-3.90405
-0.920897
-3.24951
-1.85492
0
0
-4.35986
0
-8.26023
-2.14869
-9.62429
0
-5.50388
0
0
0
-2.22485
0
0
-0.765188
-5.29681
-6.50429
0
-0.397616
0
-3.58414
-2.57808
-6.41776
-1.33931
-4.91945
0
-2.84895
-1.80885
-0.891703
-0.661106
-2.30319
-3.22196
-4.62478
0
-5.72778
-1.18778
-1.85724
-2.51838
-2.9376
0
-0.323979
-0.544611
0
-7.37118
-2.27633
-6.65648
-4.8307
-0.908426
0
-0.0852122
-1.58227
-0.951772
-2.82637
-0.999717
-1.01562
-2.73119
0
-1.90289
-4.90765
-0.371982
0
-0.549637
-0.383233
-0.00463824
-1.91299
-1.0944
-4.10867
-1.79131
-0.161773
-1.4331
-3.91887
-2.10031
-3.942
-3.13714
0
-2.2824
0
0
-1.70844
-6.43297
-7.40673
0
-8.15433
-2.6106
-3.46296
-0.266737
-5.20332
0
-4.29109
0
-3.24373
-5.55792
-2.08761
-2.60715
0
-8.95181
0
0
-0.25171
0
-1.05176
-2.55831
0
-4.91325
-0.36723
-3.81881
-1.99544
-1.86564
0
-0.664117
0
-0.19588
0
-0.929566
0
0
-0.679146
-4.40703
0
-7.00342
-1.9517
-7.51678
-1.38301
-1.68415
0
-4.56145
-4.4943
-2.08128
-5.27989
-2.18638
-3.42775
-5.23678
0
-3.20649
-0.915173
-1.20576
-1.53266
0
-1.14629
-2.08969
-5.51416
0
-1.17238
-1.39783
-5.23375
-0.64112
-3.86873
-4.07775
-3.03011
-0.680892
-0.854564
-3.3938
-0.669347
-7.1801
-1.4668
-7.59635
-0.913326
-7.28301
0
-0.80668
0
-0.185222
0
0
-9.06495
-4.98122
-0.226144
-6.93473
-0.466345
-0.153381
-1.31266
-8.39796
-1.33025
-10.5026
0
-1.09362
0
-0.353979
-0.254745
-2.6173
-0.107121
-4.8358
-1.06349
-2.42986
-0.309991
-1.31023
0
-1.67984
-2.25113
0
-0.878642
-8.72292
-1.92721
0
-0.834456
-2.41105
-3.24317
-2.34657
-5.44086
-3.91118
0
-7.71097
-0.133662
-0.457147
-0.599292
0
-1.90901
-0.89706
-7.3829
-4.5253
-7.29146
-1.69539
-2.59796
-2.93001
0
-3.41247
-5.17853
-5.54676
-2.31645
-3.89202
-1.73597
-7.189
-2.10579
-2.48362
0
-4.16106
-1.23809
-6.30701
-0.912363
-2.87221
-1.16042
-5.06319
0
-0.876967
-6.38712
-1.85674
0
-0.663138
-2.42771
0
-5.57471
-0.213039
0
-1.56473
-3.32236
0
-6.29261
0
0
-6.21515
0
-0.790942
-0.273833
-4.45048
-0.730882
-3.67077
0
-2.2202
0
0
-8.82661
0
0