<?xml version="1.0"?>
<VTKFile type="RectilinearGrid">
<RectilinearGrid WholeExtent="0 32 0 32 0 32" Origin="0 0 0" Spacing="1 1 1">
<Piece Extent="0 32 0 32 0 32">
<PointData>
</PointData>
<Coordinates>
<DataArray type="Float32" format="ascii">
0 0.524874 1.04975 1.57462 2.0995 2.62437 3.14924 3.67412 4.19899 4.72386 5.24874 5.77361 6.29849 6.82336 7.34823 7.87311 8.39798 8.92285 9.44773 9.9726 10.4975 11.0224 11.5472 12.0721 12.597 13.1218 13.6467 14.1716 14.6965 15.2213 15.7462 16.2711 16.796 
</DataArray>
<DataArray type="Float32" format="ascii">
-5.03879 -3.62163 -2.20447 -0.787311 0.629849 2.04701 3.46417 4.88133 6.29849 7.71565 9.1328 10.55 11.9671 13.3843 14.8014 16.2186 17.6358 19.0529 20.4701 21.8872 23.3044 24.7216 26.1387 27.5559 28.973 30.3902 31.8074 33.2245 34.6417 36.0588 37.476 38.8931 40.3103 
</DataArray>
<DataArray type="Float32" format="ascii">
0 0.524874 1.04975 1.57462 2.0995 2.62437 3.14924 3.67412 4.19899 4.72386 5.24874 5.77361 6.29849 6.82336 7.34823 7.87311 8.39798 8.92285 9.44773 9.9726 10.4975 11.0224 11.5472 12.0721 12.597 13.1218 13.6467 14.1716 14.6965 15.2213 15.7462 16.2711 16.796 
</DataArray>
</Coordinates>
<CellData>
<DataArray type="Float32" Name="Scalar" format="ascii">
0
0
0
0
0
0
0
0
0
0
0
0
0
0
0
0
0
0
0
0
0
0
0
0
0
0
0
0
0
0
0
0
0
0
0
0
0
0
0
0
0
0
0
0
0
0
0
0
0
0
0
0
0
0
0
0
0
0
0
0
0
0
0
0
0.280371
-0.0915645
0
-0.2507
-0.583079
-0.311124
-0.395061
-0.754604
-0.780625
0.303643
0.0154352
-0.371583
-0.125313
-0.180719
-0.817975
-0.460473
0.00462693
-0.252916
0
-0.0726667
-0.142687
0
-1.21949
-0.528725
-0.0214343
-0.0424055
-0.0863139
0.183424
0.0450032
0
-0.270856
-0.234297
-0.75251
-0.518412
0
-1.49982
-0.163637
0
-0.666332
-0.0328159
-0.0250825
-0.132107
0
0
-0.465597
0
-0.474527
-0.93556
-0.00650715
-1.17793
0
-2.3959
-0.249768
0
-1.16526
-1.77677
-0.0907928
-1.24152
0
-0.311273
-1.60767
0
-1.47396
-0.172922
-4.47784
-2.34759
0
-3.52662
-4.3075
-0.49104
-1.14542
-1.66464
0
-1.62023
-2.5509
-4.08025
0
0
-1.89096
-0.397636
-2.3743
-3.10869
0
-5.6905
-0.901846
-3.3725
-6.07511
-1.19354
-4.60154
-2.5908
-1.02691
-3.97582
-0.511941
-4.33056
-0.140883
-1.49074
-3.00376
0
-1.3059
-3.57032
-1.02962
-0.832537
-1.30867
-4.55582
0
-7.05436
-0.673566
-9.84771
0
0
-2.67408
-4.32037
0
-0.929547
-0.308306
0
0
-6.36574
0
-2.87007
-0.647094
-2.4839
-3.66516
-5.92859
0
0
0
-2.0242
-7.54653
-2.28248
-4.71982
-1.51301
-3.4212
-0.643305
-2.75971
-6.35935
-1.47456
-3.20224
-3.71877
0
-0.263914
-2.51306
-1.77002
-2.12171
-1.93463
-0.58366
-1.36367
-3.28817
-4.13504
-0.752109
0
-6.27102
0
-6.8173
-1.15975
-1.55781
-2.42192
-5.20881
-1.54438
-0.3226
0
-6.30186
-1.23134
0
-1.60597
0
-3.76253
-3.38608
0
-4.9662
-3.38792
-0.208767
-0.640978
-6.93097
-3.19562
-2.82478
0
-7.12775
0
-5.81086
-1.5764
-1.73981
-1.54097
0
0
0
-6.14372
0
-0.0352471
-4.77582
0
-1.55494
-5.99253
-0.389065
-1.21635
-0.054422
-0.906537
-0.841747
-4.46664
-1.66332
0
-0.730869
-1.24796
0
-0.144231
-0.590962
0
0
-3.40717
-3.08924
-1.65903
-0.813243
-2.51336
-0.13527
-7.74675
-0.255812
0
-3.14291
-1.02533
-5.61687
-4.9422
-2.31153
-8.01155
-0.46422
0
-4.74497
-1.45526
-5.62936
0
-3.00309
0
0
0
-9.08444
-3.07697
-3.02542
0
-4.9408
0
0
-0.519414
-7.33165
-0.33497
-6.11797
0
-1.22256
0
0
0
-0.142248
-3.95434
-1.54015
0
0
-3.87861
-0.640562
-0.925674
-1.77449
0
-1.34004
0
-0.377608
0
-3.88688
-3.53652
-0.20014
0
-7.32099
0
-3.26707
-2.43634
-4.10226
-0.878297
-1.78201
-1.52914
-1.99512
-0.443634
-7.04436
-3.6256
-6.54189
-5.72634
-0.114989
-1.11884
-0.0742217
0
0
-3.96599
-0.693843
-2.2748
-4.17781
-0.358965
-1.97481
-4.55633
0
-6.14607
-2.35458
-1.1073
-4.33702
-0.393423
-1.56719
-2.04546
-4.73215
-3.14669
-3.39205
-2.02221
0
-2.85172
-3.88388
-2.67932
-1.90046
0
0
-1.51587
-0.442905
-4.54423
-7.19969
-1.13996
-4.15972
-3.64273
-0.728992
-0.422921
-7.0975
0
-4.26436
-5.32007
-2.79439
-2.60407
-6.62023
-4.24733
-5.91599
0
-1.89623
0
0
0
-3.72481
0
-8.1083
-0.451534
-9.25872
0
-8.6809
-3.92696
0
-0.932361
0
-1.77769
-2.38726
-0.258825
-7.94461
0
-3.78256
0
-0.201274
0
-0.298092
-1.39841
-1.6294
-0.020109
-1.31656
-1.97102
-6.15157
0
-6.84892
0
-12.4156
-0.134096
-3.49584
-5.55529
-3.79892
-7.96989
0
-3.20734
0
-3.41
-0.466628
-1.70367
-0.812705
-2.52242
-2.62045
-0.0987179
-5.92283
-0.516097
-5.16765
-7.98037
0
-4.52004
0
-0.218884
-7.36283
0
-0.603544
-0.314366
-4.41768
-0.300274
-0.912395
-0.0994267
-4.85034
0
-3.2947
0
0
-8.72479
0
-0.839597
-0.161839
-3.8952
-0.0915832
0
0
-6.43579
-1.21811
-10.9511
-0.035812
-4.22633
0
-1.3476
-6.06832
-0.322325
-4.46168
-3.18997
0
-1.42463
-1.26022
-5.4722
-1.30999
0
-6.62964
-3.98591
-2.31449
0
-5.56743
-6.38712
-0.663365
0
-5.68374
0
-4.03233
-2.82825
-0.670801
-1.24313
-2.86491
-0.00298887
0
-0.851832
-3.87852
0
-6.06098
-3.02997
-0.301437
-1.13424
-6.57212
-3.53607
-1.58588
-0.0820331
-0.135853
-1.90106
-1.41685
0
0
0
0
-5.14744
0
-2.05517
-1.83501
-2.72436
-0.155135
0
-0.691079
-3.51516
-0.346025
-2.403
-0.151798
-5.44289
-3.00758
0
-1.52712
-2.28181
-3.13081
-5.66357
-1.69672
0
0
-7.28415
0
-7.50857
0
-4.69242
-1.37361
-3.30754
0
-5.11281
-1.62396
0
-2.05083
0
-5.73185
-0.926846
-2.44397
0
0
-7.52857
-1.21938
-6.30907
0
-3.40538
-2.33869
-1.86305
-2.32174
-4.51122
-1.52852
-4.56503
0
-4.93977
0
-0.880887
-4.82634
0
-3.73039
0
-3.51457
-2.07115
-7.02051
-0.433984
-3.0358
-2.06291
-7.00143
0
-6.45659
0
-3.25678
0
-6.66462
-0.346385
-1.89415
-1.80675
-5.8698
-0.842044
-0.761224
-2.16813
-1.33311
-0.724652
-0.129143
-4.06219
0
-1.14204
-1.12921
0
-8.06663
-5.11612
-3.74521
-1.36287
-4.28814
0
-0.682797
-3.06837
-0.572449
-4.13083
-0.0740232
-9.26003
0
-0.562559
-6.15041
-3.72961
-4.00193
-0.841771
-2.54636
0
-1.82748
-0.377902
-2.29634
-0.251257
-3.38555
0
0
-2.2771
-0.181737
-4.78787
-1.0798
-0.89686
-4.19306
0
-5.73245
-0.641875
0
-5.60802
-0.258569
-7.35684
0
-1.40931
0
0
-6.09845
-2.56413
-2.27817
-2.62677
-6.58154
0
-0.788195
-0.937761
-4.69455
0
-1.57779
0
-6.18521
-2.89331
-2.44623
0
-4.4567
0
-7.76564
0
-5.16764
-2.89251
-6.5718
0
-1.66385
-1.73777
-0.730744
-1.76186
-3.94176
-0.464656
-0.557611
-5.01445
-3.27271
-4.9173
-1.94783
-5.40171
-0.249739
-2.76221
-1.49443
-1.6292
-5.82419
0
0
-6.28896
-0.940802
-3.91652
-8.36681
-1.25486
-3.25179
-1.10983
-6.87099
0
-6.416
0
-3.91245
0
0
0
0
-5.77769
0
0
0
-0.634998
-0.677519
-1.61285
0
-5.39187
-0.916096
-1.95581
-4.74929
-0.0977228
-2.80789
-5.40739
-3.73291
0
-1.68471
-2.55817
-4.49218
-0.0542606
0
-4.8353
-0.999732
-4.75826
0
-8.10755
0
-0.164449
-0.354123
-2.78856
0
0
-9.07141
-4.4321
0
0
-4.47581
-3.9605
0
-0.428186
0
-7.70906
0
-4.1818
0
-7.29416
0
-1.91419
0
-1.97274
-6.30159
-0.137336
-6.80106
-1.42456
-0.430696
0
-8.38252
0
-6.92099
-9.26187
0
0
-0.77622
0
-1.49193
-1.05585
-1.68888
-5.3558
-0.0297297
-7.68356
0
0
-4.70898
-1.9444
-8.48603
-1.70341
-6.81127
0
-6.4892
0
0
-5.73882
0
-0.71076
-7.13936
-5.67815
-8.39178
-2.44568
-10.1293
-2.86786
-4.03007
-0.43935
0
-0.464297
-0.636515
-3.17872
0
0
-5.66006
0
-6.05009
0
-8.32421
0
-1.97759
-2.77522
-0.915676
-0.776792
-1.06651
-6.13432
0
-9.35113
0
-3.64707
0
-2.13856
0
-8.48085
-1.11805
-4.01727
-1.08556
-2.07916
0
-9.24093
0
-10.9329
0
-0.564367
-3.44986
-0.395045
-2.30754
-9.8145
-0.511795
-9.15808
-2.01383
0
-5.99839
-0.468883
0
-0.163984
-1.40578
-1.58846
-0.903041
-8.23851
0
-1.60351
-3.60588
0
-4.74419
-2.33452
-2.18504
-3.4238
-0.475509
-8.73794
-1.68632
-10.7249
-0.732325
-4.89498
-0.155769
0
-5.76633
0
-0.614295
-0.136811
0
0
-3.05028
-1.23126
-4.67539
-0.932346
0
0
-4.36413
0
-2.04816
-1.8144
-0.646158
0
-5.49896
0
-6.15863
-0.178911
0
-5.35466
-6.15589
-6.18554
-0.0423044
-0.902162
-2.26284
-2.93848
-2.81328
0
-2.2561
0
-2.6236
0
-0.431371
-3.49775
-0.741745
-2.35709
-0.411012
-1.00104
-0.529387
0
0
0
-3.47918
-5.10184
-0.560107
-3.77651
0
-0.053791
-6.53107
-1.34069
-4.99138
-0.518404
-5.95057
-1.71062
0
-0.449501
-1.5353
0
-1.65786
0
-6.71518
0
-2.94696
0
0
-1.3645
-5.58201
0
-1.45052
-2.83293
0
-8.49778
-4.0112
-0.313103
-1.2557
-0.919663
-0.00662075
-2.75382
0
-9.60354
0
-1.75917
0
-4.50464
-9.47977
-1.70778
-4.17886
-1.74821
0
-5.92538
0
0
-1.73055
-1.43523
-1.68198
0
-0.252274
-3.64874
-4.25714
0
-0.913451
-1.60919
-9.01892
-0.960712
0
-0.98627
-7.78505
-0.5502
-5.2742
-1.21058
-0.927767
-1.4151
-0.373247
-3.62792
-3.45676
-1.25435
-0.0157501
-0.69422
-0.274584
-0.76948
0
-2.54511
-7.3537
0
-4.83165
-0.359088
0
-9.93715
-3.77011
-6.61288
-0.524038
-6.68899
-1.01543
-1.88972
-2.12812
-3.06223
0
-2.31622
-3.26955
-1.8256
-4.80371
-1.57721
-0.398487
0
0
0
0
0
0
0
0
0
0
0
0
0
0
0
0
0
0
0
0
0
0
0
0
0
0
0
0
0
0
0
0
0
0
0
0
0
0
0
0
0
0
0
0
0
0
0
0
0
0
0
0
0
0
0
0
0
0
0
0
0
0
0
0
-0.259268
-1.58302
0
-1.44552
-1.24978
0.034011
-1.4768
-1.59566
-0.119642
-1.1814
0
-0.956341
-1.40764
0
-1.6286
-1.0647
-0.59738
-1.0879
-0.0422587
-1.06884
-1.04383
0
-0.829354
-0.973462
-0.490917
-1.04717
0
-1.32946
-1.83588
0
-1.51115
-0.206178
-0.362807
-1.32023
0
-0.0858143
-1.47313
0
-0.521536
-2.16629
-1.77188
-0.378895
0
-0.617489
-0.287887
0
-2.15452
0
0
-3.0365
0
-0.775849
-1.90193
0
-0.240168
-1.95993
-1.38305
-1.80553
0
-2.18183
-0.34929
0
-1.05328
-0.189254
-0.954311
-3.39288
-3.52756
-1.63666
-2.74007
-3.11303
-4.81596
-1.05023
-4.75566
-6.28463
-2.49332
0
-5.17345
-11.0512
-4.50348
-5.80526
-4.18627
-4.36477
0
-5.47789
-2.43053
0
-5.79587
-1.57847
-2.56583
-7.88029
-2.65418
0
-2.05632
0
-4.103
-1.86741
-2.97908
-2.75361
-1.36693
-0.780279
0
-8.56554
0
-3.32605
-2.015
0
-2.85009
-2.80448
-2.22211
-6.25707
0
0
-6.94808
0
-5.43744
-0.110782
-8.91778
0
-0.348984
-0.957066
-0.197795
0
0
-2.06205
0
-3.66997
-2.39344
0
0
-2.30083
-6.55137
0
-7.2324
0
-2.25296
-1.40236
-0.940679
-4.10806
0
0
-2.66474
-1.70533
0
-4.60737
-2.79262
-2.22763
-3.3447
-1.05157
-1.17907
-4.2843
-4.19759
0
-3.07458
-2.9048
-0.170393
-6.17468
-0.349432
-1.0209
-3.63124
-5.55975
0
-0.201751
0
-7.28286
0
-2.88354
0
-0.888483
-0.353795
-0.366252
-0.0867082
-3.32239
-2.22957
-0.822865
0
-2.59237
-0.476809
-1.21714
-0.776759
0
-2.2317
-6.02713
-3.19624
-3.6997
-5.91577
-1.54169
-1.39394
-6.91807
0
-2.58951
0
-7.51792
0
-1.26882
0
-2.98763
0
0
0
-3.1581
-5.55834
-0.8067
0
-8.01636
0
-6.13319
0
-6.284
0
0
-3.03808
-1.4629
-1.50717
-4.91829
-0.761541
-4.03938
-2.59081
-3.30742
-3.68586
0
-0.156846
-3.16754
0
-0.0527894
-4.90323
-0.0926957
-0.79097
-0.426976
0
0
-6.73634
-0.467369
-3.97622
0
-4.45194
-3.68491
0
0
-2.34314
-1.02195
0
-0.674457
-0.196841
-1.43112
-2.45555
-1.34846
-2.29522
-2.88511
-4.61501
-1.52156
-1.87135
-0.170567
-6.67501
-0.0190758
0
-1.74364
-2.82332
-3.43265
-1.60019
-3.60597
-1.75262
-0.275739
-6.55674
-1.80755
-0.822284
-6.51409
0
0
-6.68868
-1.4522
0
-3.59217
-1.03985
-2.58417
-1.00687
-1.93438
-4.04074
-4.39522
-0.606903
-2.02525
0
-0.236175
-5.80379
-0.326291
-6.81519
-1.36035
-8.83501
-1.91305
-4.41489
-1.30462
0
0
-0.169651
-1.89141
-0.279555
-2.1395
-3.46293
-0.70753
-5.49158
0
-3.49202
0
-4.21692
-1.8607
-0.767512
-4.14788
0
-1.38918
-6.05657
0
-1.42229
-4.1387
0
-0.977954
-0.525704
-4.6346
-0.822604
-2.38108
-2.24003
-0.118342
0
-3.04548
-0.476456
-5.199
-2.51123
-0.639435
-3.16882
-2.22072
-0.299031
-1.74368
-2.46665
-8.73079
-3.62443
-5.14394
0
0
-8.41697
-3.15453
-1.23653
-2.00411
-0.810096
0
-4.29846
-0.191805
-9.04916
0
0
0
-0.0994587
-1.94423
-6.28735
-1.26906
0
-5.41335
-1.22631
-7.66939
-1.58747
-2.49225
-1.4217
-2.30217
-0.656157
-4.93453
-0.713855
-1.28392
-3.71182
0
-0.565201
-5.1463
0
-2.68538
-3.43268
0
-5.9187
0
-4.32965
0
-7.70437
0
-4.09931
-2.30121
-2.39731
-1.81166
0
-3.74411
0
-2.22417
-6.15609
-6.34224
-4.79921
-2.7382
-4.36502
-4.14026
-0.746769
0
0
-3.73446
-0.839504
-0.824845
-2.57995
0
-3.73746
-1.37747
-4.05802
-1.5183
-4.99423
0
-5.71269
0
-7.75214
0
-2.75783
-0.748946
0
-1.21687
-0.24865
-1.75187
0
-1.30983
-0.664903
-0.174896
-0.70072
-0.248339
-5.95896
-0.617389
-4.29505
-1.78984
-4.78077
0
0
-0.915451
-0.956178
-2.81833
0
-4.55265
-0.715781
0
0
-6.10194
0
-5.04625
-0.426238
-3.14633
0
-9.27676
-0.0831394
-3.78947
0
-2.93529
0
-2.38182
-3.03198
0
-4.16098
-2.28266
-4.25574
-2.46624
-1.37921
-0.481736
-5.0233
-2.4017
-1.47773
-3.09507
-4.93182
0
0
-1.94051
0
-1.49298
0
-4.51437
-1.97884
-4.31576
-0.529443
-0.0726976
0
-1.7471
-0.445038
-0.115511
0
0
-3.24433
-3.20428
-3.16803
-2.05365
-2.32315
-7.05947
0
-7.57906
0
-7.16061
-0.108414
-4.20437
-0.716256
-3.47507
0
-3.33904
-0.7887
-3.24883
-5.04859
-3.0385
-9.6742
-5.66556
-0.54431
0
0
0
-0.0463532
-1.11766
-2.45133
-3.29225
0
-2.08951
-0.130867
-5.23489
0
-0.552784
-0.202654
0
0
-1.21291
-1.71829
-1.91504
0
0
-8.01876
0
-5.91649
-0.0205877
0
-0.329229
-5.38083
-0.154676
-1.47285
-1.31799
-4.04888
0
-5.58884
0
-0.657782
-4.37365
0
0
-5.74923
-1.56144
-1.73193
0
-1.94247
-0.11565
-1.51352
0
-0.629002
-5.57583
-2.57893
-4.97394
-1.17838
-4.72455
-0.621535
-2.6522
-1.76642
0
-4.8259
-0.0653879
-10.6372
0
-1.44333
-1.64948
-4.45795
-0.641071
-3.84893
-3.34213
-0.318099
-1.16526
-4.55096
-2.61312
-6.39169
-1.09216
-8.07352
-2.91463
-0.604645
0
0
0
-0.706808
0
-6.71689
-0.550284
-1.06896
-4.08178
-1.26173
-2.22236
-2.2902
-1.14284
-4.95889
0
-1.28916
0
0
0
0
-10.5065
-0.484487
-2.00513
-0.846391
-6.67674
-3.60774
-0.717683
-1.48163
0
-1.23857
-1.84594
-3.84541
-1.15013
-3.56268
-6.96495
-0.448428
-0.315454
-0.427198
-4.82194
-1.93239
-4.31976
-3.88369
-0.0294944
-1.58274
-1.28397
-0.486678
0
0
-0.910285
-2.31009
0
0
-7.80637
-0.137498
-4.90462
-5.15636
-0.0839073
-0.117792
-1.15725
-2.28126
0
-0.254399
-7.82177
0
0
-1.61578
-0.424165
-2.54342
-3.54809
-5.64227
-1.60863
-4.36072
0
-3.31128
0
-4.03669
-1.40393
-3.78751
-1.39014
-6.27004
-2.13778
-1.38811
0
-9.95079
0
-4.27062
-2.98915
0
-0.683556
-3.67677
-2.74609
-3.11626
-3.17582
-0.0390646
-6.90911
-1.55822
-1.38949
-2.75442
0
-1.17996
0
-6.62377
0
-3.2189
-4.70248
-1.0128
-0.206246
0
-8.74482
-0.400797
0
-0.35849
-0.462348
-10.0784
0
-0.133528
0
-2.86359
0
0
-4.30151
-1.48203
0
0
-0.501716
-0.641664
-0.124273
-1.10743
-3.38278
-1.72034
0
-1.32759
0
-1.71552
0
-9.18659
-0.0526621
-3.55262
-1.33691
-2.70034
-0.971814
-4.98638
-1.85203
-2.64427
-2.2267
-3.29791
0
0
-3.23087
0
-0.422585
-1.07038
-7.61555
0
-6.57525
0
-8.67757
-1.75289
0
0
0
0
-0.24411
-0.041301
-4.33067
-5.15187
0
-2.86857
-2.77838
-1.88544
-7.1912
-2.06972
-2.86997
-0.890943
0
0
-1.29854
-0.900287
-6.7742
-0.990608
-4.23872
-2.0219
-5.37753
-4.02028
0
0
-5.80965
-0.328679
-6.14779
-1.99668
-2.71975
0
0
-4.34255
0
-7.07785
0
-0.394233
-0.47177
-3.8795
-2.88396
-2.9114
-1.80569
-1.09312
0
-0.952474
-0.297784
-1.32121
-4.30862
-1.76652
-0.119728
0
-2.96273
-5.43598
-4.04325
-3.64846
-2.19414
0
-3.86855
0
0
-5.12982
-4.06083
-2.66985
-2.50052
-3.3648
-0.601665
0
0
-1.8312
0
0
-3.67321
-2.77782
0
-1.80774
-4.49688
-3.9899
-1.8639
-1.62615
-0.68712
0
-2.17239
0
-7.14325
0
0
-1.62769
-2.99477
-0.234537
-1.03167
-0.94067
-2.13592
-0.515535
-1.04452
-2.21736
-2.46615
-1.62893
-0.0797426
0
0
-9.08297
0
-3.54548
-0.492564
-1.7233
-0.507591
-1.21641
-4.39797
-1.84461
-1.65979
-0.760589
-0.0598261
-0.860557
-0.397643
-2.06671
0
-3.60124
-1.43364
-4.62712
0
-2.14691
-1.14919
-1.79073
-1.9239
-5.19847
0
-2.68736
-2.29493
0
0
0
-2.6956
-1.50585
-2.22422
-5.7759
-5.11189
-7.6929
-4.30341
0
-6.8342
0
-10.4967
0
0
-5.42366
-4.94489
-3.93144
-4.61375
0
0
-5.91142
0
-4.49792
-2.80901
-3.30974
-2.53891
-0.605094
-1.18282
-5.67133
0
0
0
-2.52549
0
-2.18528
-2.93585
-1.56844
-0.605087
-5.28407
-1.07318
-0.772499
0
0
-5.77001
0
0
0
-10.0947
0
0
-0.910615
0
-7.40513
0
-2.37911
-0.011401
-3.5076
-5.13316
-4.57554
-3.29891
-0.971438
-5.01171
-2.24402
-2.76696
-2.65574
-9.21645
-0.0265151
-13.8395
-2.27883
-3.18362
-0.749322
-4.6326
-2.71172
-9.75562
-0.650652
-0.369679
-0.748833
-2.85345
-3.31491
0
-5.50186
0
-3.9401
-6.55153
-2.10799
-2.87417
-2.01689
-6.81599
-6.47559
-0.378061
0
0
0
0
0
0
0
0
0
0
0
0
0
0
0
0
0
0
0
0
0
0
0
0
0
0
0
0
0
0
0
0
0
0
0
0
0
0
0
0
0
0
0
0
0
0
0
0
0
0
0
0
0
0
0
0
0
0
0
0
0
0
0
0
-0.045822
-0.00654594
0
-0.296216
0
0
0
0
0
0
0
0
-0.0248442
0
0
-0.342359
-0.17834
0
0
0
0
0
0
-0.0465202
-0.136508
-0.171787
0
-0.0595854
0
0
0
0
0
0
0
0
0
0
0
0
0
0
0
0
-0.14731
0
0
0
0
0
0
0
0
0
0
0
0
0
0
0
0
0
0
0
-3.70379
-3.33585
-4.32961
-0.372573
-1.45411
-1.32426
0
0
-0.90633
0
-7.87943
-7.00363
-4.17121
0
0
-0.2221
-2.78022
-0.601061
0
-0.183157
-0.281141
0
-5.10078
-0.472974
0
0
-1.47787
-2.42233
-1.76875
-3.25727
-1.70759
-1.22657
-3.78079
0
-4.70191
-6.77755
0
-0.599388
-0.201592
-5.44983
0
-7.66445
0
-5.79969
0
0
-2.17505
-1.4209
-0.262696
0
-3.64903
-0.471131
-0.382733
0
-3.47895
-1.54008
-2.43909
-2.41714
-1.32776
0
-1.01987
0
-2.89116
-0.997546
-3.99651
-2.56762
-4.61927
-1.01627
-0.589767
0
-5.13386
0
-5.574
-4.53898
-9.88445
-0.397139
-12.2733
-0.44812
-7.81072
-2.24936
-5.93584
-5.65642
-0.288752
-4.05739
0
-5.14149
-0.781602
-2.40101
-1.1074
-0.523193
0
0
-5.39525
-6.09103
-4.37989
-0.724156
-4.32485
-5.8051
-2.55384
0
-0.123977
-6.94675
-1.78756
-6.55581
-1.95681
-1.41082
-4.03515
-0.490156
-8.45718
-1.89797
-8.78569
-1.63497
-0.390605
-5.07493
-5.78541
-0.665591
-0.0819448
0
-0.374686
-5.0797
0
0
-4.36514
0
-0.229118
-7.29391
0
-3.31703
-2.40276
-0.952341
-2.86263
-3.01424
-6.54194
-1.00684
-10.8963
-1.13388
-1.64198
-1.3938
-0.422143
0
-4.74839
0
-2.87918
0
-3.43073
-2.81382
-1.73379
-1.96814
-0.21887
-1.40877
-0.926833
-2.47876
-0.191681
0
-0.843441
-2.96845
-3.89904
-3.43606
-1.23985
-6.19341
-1.30577
-1.12128
-3.28195
-0.300954
-8.3993
-1.77565
-0.0371497
-1.71675
-2.8945
-4.82072
-3.17011
0
-7.19062
-0.170299
-5.83823
-1.88897
-6.52289
-9.3656
-3.39165
-3.37896
-0.334617
-1.64081
-0.647104
0
-0.496385
-1.29354
-4.51765
-8.58634
-1.77858
-0.407848
-8.02779
0
-0.342304
-3.94009
-0.00197907
-0.165637
-0.722868
-5.79037
-0.174613
0
0
0
-6.64813
0
-11.2235
0
-8.65412
0
-1.74715
0
-0.420587
-0.116229
0
-2.98145
0
-2.49453
-4.9723
-0.481808
0
0
0
-4.60726
0
-1.17531
-1.81852
-1.94652
-6.51472
-2.68889
-7.21341
0
-4.29272
0
-5.40426
0
0
0
-2.84287
-6.16663
-5.75149
-1.72014
-3.78788
0
0
-1.34714
0
-0.57938
-2.3919
0
-7.5547
-1.08444
-7.02011
0
-1.42564
-2.57019
0
-0.438854
-8.19127
-4.16154
-2.18354
-2.10963
-1.69622
-3.44256
-5.18974
-1.68202
-2.26116
-5.51298
-3.76266
-4.07653
-1.03577
-1.92114
-1.08638
-9.29716
-0.503928
0
-9.36431
0
-6.43604
-1.07213
-4.62904
0
0
-2.56709
-8.40123
-5.19466
-7.77101
-0.871839
-4.31672
-2.25065
-4.28186
0
-2.13864
0
-4.35933
-0.0453558
-2.04887
-2.73682
-1.6232
0
0
0
-1.40699
-0.704616
-5.97474
-0.686772
-1.80449
0
-8.04581
-0.935514
-3.8925
-7.56877
-0.870002
-3.84616
-0.892329
0
-4.66464
-0.874575
0
-1.02901
-2.21365
-2.00285
-7.02454
0
-0.79573
0
0
-0.758616
0
-0.095833
-4.08757
-0.607673
-2.37218
-6.54934
-0.379888
-2.18323
-2.74589
-0.615896
0
0
-3.7113
-0.643384
-2.6582
0
0
-0.158434
-0.236189
0
0
-9.02418
-1.41445
-3.98251
-1.05901
-0.855632
-1.23801
-0.802752
-1.53492
-0.779279
-1.09238
-8.72823
-0.501834
-1.52234
-2.21052
-2.17972
-1.56718
0
-2.51944
0
0
0
-7.1244
-4.73784
0
-4.18918
-1.09278
-3.07878
-4.91991
-2.55478
0
-10.764
0
0
-1.09838
-8.37023
0
-3.57888
-5.88433
-0.247619
-1.65811
-7.08785
0
0
0
0
0
0
-0.422094
0
-6.46561
-4.28688
-0.425824
-7.90161
-2.20584
0
-0.161459
-6.1892
0
0
-1.33361
-0.967273
0
-3.73857
-0.569037
-5.02872
-0.105572
-1.18524
-3.34376
0
-0.687903
-4.34218
-0.473891
0
0
-3.70798
-3.72783
-1.34756
0
-0.253487
-4.46519
-0.918049
-3.45235
0
-2.64141
-0.0844301
-2.1005
-0.159153
0
-0.470361
-0.827418
-2.18754
-2.14488
-3.26616
-5.22463
-1.58009
-1.109
-3.9602
-0.999333
-9.47466
0
-9.19392
-3.46469
-2.13558
-4.75979
-11.7462
-0.29638
-5.35811
0
-1.92836
-5.20756
-0.281316
-6.4519
-1.39795
-5.86178
0
-6.16931
-1.53304
-4.83639
-0.927333
-3.10279
0
-4.63386
0
-1.9686
-2.13576
0
-0.6752
-6.61372
0
-2.53116
-1.34821
-2.621
-0.963036
-1.07567
0
-1.40712
-2.95661
-5.68107
0
-7.62482
-3.94898
-0.472833
-3.11209
-1.174
-1.17657
-3.63845
-2.19433
-3.68304
-7.28706
-2.95425
0
-1.27598
0
-7.254
0
-3.30187
-0.739777
0
-9.51291
0
0
-4.19874
-1.03414
-0.113665
0
0
0
-9.52656
-3.81939
-7.26274
-1.36084
-7.53891
-2.12084
-1.09936
-1.60899
-10.1223
0
-5.58027
-1.55532
-3.19658
-0.64165
0
-5.19164
-2.39408
-1.4767
-3.96928
-5.54639
-1.12644
-2.52211
-1.12515
-2.78473
-1.58111
-0.558025
-1.92943
-1.94
-2.78568
-7.78995
-4.29837
-2.18784
-1.98598
-3.73152
-1.41072
-6.55119
0
-7.08607
-1.55041
0
-2.66702
0
-1.65164
-5.8375
-0.0970191
-6.02294
-0.0928882
0
-1.4363
-7.82157
-1.01025
-1.63364
-2.884
-2.29042
-0.27025
0
-0.541285
-2.66782
-0.0527291
-3.91778
-1.25608
-2.91685
-0.668157
-1.82145
-8.8487
0
-6.18635
0
-2.2266
0
-3.55755
-1.09228
-0.458209
0
-7.27881
0
-3.52036
0
-4.54585
0
-0.921605
-0.32034
-0.0441266
-0.0789316
-5.66205
-1.79041
-2.77654
0
-4.65198
-1.00948
-4.08291
-4.10144
-0.296733
-2.33717
0
0
-1.46916
-0.286904
-1.70324
0
-1.75273
-2.72565
-1.20792
-5.97672
-0.804468
0
0
-5.61139
-0.0285675
-0.136851
-0.820973
-2.67173
-3.12489
-0.54306
-4.19005
-2.56205
-0.296552
-7.09801
-0.680945
-5.96303
-1.67215
-0.630088
-2.65105
-1.70788
-4.04216
-0.605715
-0.366414
0
-5.96262
-0.708241
-0.700254
-3.64728
-1.86653
-2.55638
-3.66885
-3.30817
-3.01122
-1.84908
-1.37446
0
-0.894101
-0.854216
-3.38003
0
-0.300498
-2.08454
-0.213048
-7.32734
-4.60807
-0.0295514
-7.64696
0
-4.74711
-0.00424416
0
-3.81628
0
-1.40503
-0.542242
-4.07368
-4.30126
-2.02794
-2.28058
-4.86531
-5.16536
-3.74286
-1.28999
-1.88293
0
0
-3.85255
0
-5.68395
-0.448122
-5.32475
0
-6.5396
-0.97722
-3.41902
0
0
-6.12262
-2.0041
-6.40287
-0.953079
-4.7267
-0.93312
-3.48683
-0.320626
-0.41728
0
-2.77577
-4.79248
-6.19947
-1.43918
-5.50547
0
-4.15191
-1.37707
0
-0.981371
-0.532239
-0.0318531
-0.397829
-5.95387
0
-3.29439
0
-0.628609
-1.48901
-0.991183
-4.58833
-3.83297
-4.77626
0
-2.02276
0
-2.85674
-3.91361
-0.161333
-2.34021
-1.18739
-0.200719
-3.43199
0
-4.91466
-0.469283
-3.49822
-2.05872
-2.96254
-0.985164
-2.29841
-2.02567
-0.857892
0
-4.24118
-1.20787
0
0
-2.44739
-4.47861
-1.68397
-1.18731
-7.30597
-1.21151
-0.727313
-1.94192
-5.45389
-1.48098
-0.127282
-1.74348
-0.142271
-2.43557
-2.51222
-1.83477
-2.47276
0
-2.23018
-2.8024
-1.60719
-1.98821
-3.0306
0
-3.43243
-2.33625
-3.28602
0
-1.94714
-3.99705
0
-0.247631
0
-1.82722
-3.49219
-2.21779
0
-1.00023
-0.50869
-2.45634
0
-0.0389931
-1.98074
-3.96624
0
-7.41716
-1.37945
0
-2.23864
-0.52865
0
-4.84432
-1.27715
-5.37736
-0.45192
-0.626475
0
-0.32577
-0.766882
0
-1.84091
-0.351265
-2.60226
-1.67407
-0.906156
-3.25879
-4.88662
-0.346939
-1.14738
0
-0.719266
-8.93661
0
-0.868658
0
0
-7.58446
-0.651316
0
-5.05281
-4.19544
0
0
-4.61575
0
-1.96665
0
-2.43068
0
-3.81833
-3.38602
-3.24143
-5.69177
-4.11367
-9.06617
0
-0.0797936
-0.316998
-8.0283
0
0
-8.67077
-3.48902
-3.44625
-3.06136
-2.10222
-1.59751
-0.613089
-2.0429
-1.39653
-1.85217
-2.78885
-2.45564
-3.53134
-4.49621
-3.52407
-5.2563
-0.487524
-0.201008
-3.36755
-1.48865
-0.345238
-1.25382
-0.152023
-5.04558
0
-1.68752
-7.61518
-2.79112
-5.67211
-0.611248
-2.25251
-5.42425
-4.40968
-7.66658
-0.490601
-5.96988
-3.01869
-1.89106
-2.49975
0
0
-0.054277
0
0
0
0
0
0
0
0
0
0
0
0
0
0
0
0
0
0
0
0
0
0
0
0
0
0
0
0
0
0
0
0
0
0
0
0
0
0
0
0
0
0
0
0
0
0
0
0
0
0
0
0
0
0
0
0
0
0
0
0
0
0
0
0
-1.21238
-0.476829
0
-0.917453
-1.49982
0
-1.66214
-1.1822
-0.134004
-1.27168
-0.226103
-1.06269
-1.30179
0
-0.797351
-0.457581
-0.0719376
-1.88248
-0.00642242
-0.584749
-0.0969363
0
-1.79725
-0.709018
-0.551694
-0.55662
0
-1.33285
-0.752659
0.030447
-1.9199
-0.639006
-0.457956
-0.392264
0
-0.921503
-2.51721
-0.198364
-3.55944
-1.06291
-0.640318
-3.23829
0
-0.536014
-2.39652
-0.149153
-1.11927
-1.54374
-1.00072
-0.116373
0
-1.80412
-1.73289
0.0396155
-2.59023
0
-0.125971
-0.958441
0
-0.24113
-3.45789
0
-0.450633
-2.10666
-0.227034
-3.45348
0
-3.99823
-0.729418
-3.71352
-7.58535
-1.83327
-8.99536
-0.0406503
-0.579265
-3.71659
-1.94028
-5.36241
-5.85117
-4.21265
-2.56418
-4.17559
-1.52312
-0.682966
-2.95544
-1.2736
0
-4.47106
-0.200747
-4.61601
-0.0668218
-10.4196
0
-3.84904
-0.559974
-3.18617
-2.76049
-1.07909
-1.49533
-0.139673
-4.12045
-6.06737
-2.37508
-1.52708
-0.92634
-0.0656318
-2.64941
-1.54317
0
-0.542096
-0.872836
0
-3.29851
-4.72972
-4.86781
-4.10535
-5.4222
-1.57736
0
-0.692663
-6.5133
0
-0.404699
-1.83928
-1.79404
-0.49466
-0.908826
-0.285211
-0.873683
-0.604321
-2.27114
0
-8.93792
0
-1.60083
-2.18508
-2.47035
0
-0.118132
-7.00448
0
0
-5.18391
-4.32336
-0.75933
0
-1.87004
0
-7.47138
-1.52942
-7.01505
-5.92803
0
-6.49253
-2.42683
-9.97807
-0.927193
0
-0.838243
-2.02826
-0.0230331
-1.38895
-7.25026
-0.126284
-7.66669
0
-1.3826
-5.26577
0
-6.27665
-1.98961
-0.00684361
0
0
-0.462958
-1.20281
0
-5.26094
0
-8.2562
0
-1.17649
-0.0444916
-2.00822
-8.33933
-1.6067
-6.17514
-0.603822
-6.97175
-0.379283
-4.50731
-0.976018
-5.62992
0
0
-0.867317
-0.780898
-0.0342065
0
-3.75783
-6.42994
-0.965123
-6.55202
-1.4979
-2.19461
0
-5.24853
-8.9091
-1.95708
0
-1.64291
0
-5.81488
-2.46801
-0.803314
-1.1732
-1.1336
-2.96615
-3.51925
-0.554017
-1.21476
-3.44043
-2.4875
-2.47145
-6.9011
-0.447649
-0.881729
-0.176667
0
0
-1.8788
0
-2.06376
-2.10537
-1.86778
-1.448
0
0
-2.18582
-1.9296
-1.1174
-1.26559
0
-6.14013
0
-9.42638
-6.07399
-3.15455
-1.95623
-3.58379
0
-0.406504
-4.13846
-1.13444
0
0
-0.424662
-3.13989
0
-8.01633
-1.1066
-0.293809
-10.886
-0.0938881
-7.09704
-0.519007
-4.83317
-1.98487
-1.76791
0
0
0
-7.31562
-4.98284
-4.66413
0
-4.0322
0
-4.08838
-3.00229
0
-3.60343
0
-8.22265
0
-0.858032
0
0
-2.92767
0
0
0
-0.0655392
0
0
-0.101299
-0.249029
0
-5.25542
0
0
0
-0.0815767
-2.16623
-0.370211
-5.4975
0
-2.45999
-3.42925
-5.0151
-0.0424136
-3.34886
-1.33161
-2.13223
-4.68289
-3.13997
-0.725378
-6.27645
-5.57873
-3.54609
0
-0.816951
0
-4.53179
-0.92895
-0.523268
0
-0.584213
-2.05105
0
-2.1178
-2.48883
-5.92387
-5.53646
-6.10049
-3.3773
-2.97415
-10.2945
0
0
0
-1.97555
-0.45927
-0.471177
-1.80133
-0.719273
0
-0.282436
0
-4.97546
-2.44228
-0.97434
-0.608755
-1.02724
-7.63379
0
-4.23299
-1.56025
-7.95432
-1.5675
-0.0256843
-6.45511
-0.233405
-10.7418
0
0
0
-1.81511
-4.07568
0
-7.91398
-2.51191
-4.80345
-4.36757
-0.539124
-2.41327
-0.734879
-4.60974
0
-7.54592
0
-0.435951
-3.37962
-1.65401
0
0
-10.134
0
-7.61153
0
-5.86997
0
-2.06957
-1.38707
-1.3095
0
-0.376775
-5.12762
0
-2.06201
-6.801
0
-4.00789
0
-5.85191
0
-1.26097
-14.0323
-1.61916
-10.5708
0
-5.5272
-2.7087
-2.30405
-6.51318
-1.31928
-2.48314
-2.99669
-6.45767
-1.78159
-4.98722
-1.312
-0.135921
-2.88404
-0.365305
0
-2.8458
-0.443332
0
-1.72817
-8.20839
0
-2.18069
-0.796091
-7.05837
0
-2.92131
0
-0.547175
-2.49767
-9.55349
-1.07639
-5.15797
-3.86566
0
-4.09401
-7.64244
0
0
-1.84589
-2.40729
0
-2.91546
-1.72136
-2.08588
-2.84766
-7.32485
-4.27919
-4.02138
-5.90303
-1.23771
-3.39544
0
0
0
-5.07686
-1.36952
-1.84716
-1.271
-3.32202
-0.241666
-4.82081
-0.963608
-6.37529
-2.7936
-4.07519
-3.55103
-1.62607
-0.260436
-3.35879
0
-7.73793
-0.918672
-4.88433
0
-0.447686
0
-0.86901
-1.30968
-3.22751
-0.23075
-0.788049
-1.68606
-1.90712
-3.13665
0
-5.5032
0
-2.16234
-2.10291
0
-2.89164
-1.31882
-4.23488
0
-1.22907
-3.51072
-0.545196
0
0
-2.69913
-1.82286
-1.79628
0
0
-0.021591
-1.45321
0
0
-1.4083
-0.90583
-7.51222
0
0
0
-3.95685
-1.70697
0
-2.20173
0
-5.95259
-1.50516
0
-6.48771
-2.97566
-4.20243
-3.16016
-2.69917
-0.505891
0
-3.13651
-0.97942
-7.66012
-4.5366
-0.428858
-2.17958
0
-1.35866
-1.16067
-1.92818
-0.133458
0
0
-6.69486
0
-5.42988
-4.63123
-2.15747
-1.17042
0
-3.65473
0
-7.23181
-0.269503
-3.19217
-0.623542
-1.19604
-7.55079
0
0
-3.83254
-3.52215
-2.12747
-3.3313
-2.41542
-3.99504
-1.73386
-6.78917
0
-6.62873
-0.282826
0
-0.0904475
-6.06982
-2.72917
0
0
-4.2938
-2.98734
0
0
-1.26144
-7.0124
0
0
0
-2.18189
0
-0.157301
-1.97712
-2.46759
-0.957551
-0.17456
-4.77686
-2.77479
-4.23128
-0.0368762
-2.19851
-1.08374
-2.35294
0
-0.352177
-0.0611904
-0.355809
0
0
-2.46785
-6.13249
-0.412271
-4.67968
-1.88577
0
-6.93614
0
0
0
-3.41575
0
-0.0971936
-0.37059
0
-0.432019
-0.78459
-6.01868
-0.98907
-2.79303
-1.29672
-1.7895
-1.4036
-0.691607
-3.80699
-5.2496
0
0
-0.486518
-1.53314
-3.55331
0
0
-0.977652
-3.88663
-4.62596
-4.2236
0
-5.84897
0
-4.27868
-6.09428
-0.904365
-6.79946
-0.640788
-7.35801
-1.74406
-4.90602
0
-3.87008
0
-1.86762
-0.439838
0
-0.953507
-1.2863
-4.98551
0
-0.656255
0
-1.9602
-2.75113
0
-0.0571244
-5.64252
-1.84298
0
-6.56111
-1.03134
0
-1.28664
-2.39856
-7.71237
0
0
0
-1.08768
-4.53332
-3.27399
-0.471934
-4.06352
-0.731479
0
-0.487528
-0.541398
-0.557798
-1.13765
-0.21523
-5.3829
-0.0387026
0
-3.05257
-0.242318
-0.772202
-4.17387
0
0
-2.41829
-4.79601
-2.64398
0
-5.13119
0
-0.10467
-2.84109
-4.63131
-1.16038
-1.52496
-5.36881
0
-2.68019
-0.81575
-1.61559
-1.23672
-1.40884
-0.970118
-4.23139
-2.68934
-3.35389
-0.00838872
0
0
-0.0285626
0
-1.10958
-1.59827
0
0
-2.57522
0
-2.41697
-1.61787
0
-6.89386
0
0
-0.00812008
0
-1.6967
-2.24144
0
-4.16908
-1.88397
0
-0.653947
-0.326255
-5.21746
0
-0.0932657
-1.41488
-2.69146
-3.02585
-3.93271
-0.409397
-0.158196
0
0
-1.21855
0
0
-0.577092
-2.51839
-0.803101
-6.74528
0
-7.45981
-1.48663
-0.921292
-2.80945
-4.00519
-1.06583
-0.776889
-0.0717738
-0.732553
-0.272668
-2.33504
0
-2.38141
0
-1.30541
0
-3.84571
-1.15373
-0.985534
0
-2.82849
0
-1.52338
-2.09198
-1.83006
0
-0.619553
0
-2.219
0
0
-6.75967
0
-4.95652
0
-3.89786
-0.676258
0
-3.73271
-0.713661
-0.932868
-5.81641
-4.84316
-4.79671
0
-6.09929
-0.889862
-1.8909
-1.14814
-2.15172
-2.19074
0
-0.122583
-3.33818
0
-2.09264
0
-0.349675
-5.46783
-1.37478
-2.28
-0.350864
-2.10238
-2.08306
-3.34372
0
-6.4969
-2.48114
-0.636271
-1.64544
-2.38515
-7.24465
-0.328634
-9.12905
0
0
-0.655886
-1.17086
-1.0036
-0.918569
-1.35623
0
-1.79945
-3.5179
-3.02521
-4.74956
-2.47577
0
-0.0116967
0
0
-4.0026
-2.80612
-0.566673
-0.125118
-4.90143
-0.300832
-2.44267
-0.271284
0
-7.79599
-2.0428
-0.834348
-3.74105
-0.729471
-5.27913
-0.535444
-3.69129
-1.79719
-5.15766
-7.05865
-2.68112
0
-0.458704
-6.70194
-1.14896
0
-6.44516
0
-8.33844
0
-0.834335
0
-1.82575
-3.06662
-1.2458
0
-5.52559
0
-1.86211
0
0
-0.417332
-0.249583
0
-5.76965
-5.83907
0
-1.26221
0
0
-4.51567
-1.16302
0
-5.75455
-2.7359
0
-2.71999
0
0
-1.38628
-0.696019
-0.794031
-6.47036
-2.57758
-2.54573
-0.23719
-2.3369
-2.97141
-1.5949
-1.21685
-5.75627
-3.31119
-0.963749
-2.48801
-2.63384
-1.0444
-3.31981
0
-0.422651
-4.79573
-0.955606
-0.517327
-1.26317