<?xml version="1.0"?>
<VTKFile type="RectilinearGrid">
<RectilinearGrid WholeExtent="0 32 0 32 0 32" Origin="0 0 0" Spacing="1 1 1">
<Piece Extent="0 32 0 32 0 32">
<PointData>
</PointData>
<Coordinates>
<DataArray type="Float32" format="ascii">
0 0.524874 1.04975 1.57462 2.0995 2.62437 3.14924 3.67412 4.19899 4.72386 5.24874 5.77361 6.29849 6.82336 7.34823 7.87311 8.39798 8.92285 9.44773 9.9726 10.4975 11.0224 11.5472 12.0721 12.597 13.1218 13.6467 14.1716 14.6965 15.2213 15.7462 16.2711 16.796 
</DataArray>
<DataArray type="Float32" format="ascii">
-5.03879 -3.62163 -2.20447 -0.787311 0.629849 2.04701 3.46417 4.88133 6.29849 7.71565 9.1328 10.55 11.9671 13.3843 14.8014 16.2186 17.6358 19.0529 20.4701 21.8872 23.3044 24.7216 26.1387 27.5559 28.973 30.3902 31.8074 33.2245 34.6417 36.0588 37.476 38.8931 40.3103 
</DataArray>
<DataArray type="Float32" format="ascii">
0 0.524874 1.04975 1.57462 2.0995 2.62437 3.14924 3.67412 4.19899 4.72386 5.24874 5.77361 6.29849 6.82336 7.34823 7.87311 8.39798 8.92285 9.44773 9.9726 10.4975 11.0224 11.5472 12.0721 12.597 13.1218 13.6467 14.1716 14.6965 15.2213 15.7462 16.2711 16.796 
</DataArray>
</Coordinates>
<CellData>
<DataArray type="Float32" Name="Scalar" format="ascii">
0
0
0
0
0
0
0
0
0
0
0
0
0
0
0
0
0
0
0
0
0
0
0
0
0
0
0
0
0
0
0
0
0
0
0
0
0
0
0
0
0
0
0
0
0
0
0
0
0
0
0
0
0
0
0
0
0
0
0
0
0
0
0
0
-0.133839
-0.023015
-0.193799
-0.746376
-0.193252
0.0432631
-0.502459
-0.19657
0.200795
0.0546566
0
-0.144637
-0.699359
0.010962
-1.65327
-0.573319
-0.344006
-1.54155
0
-0.665101
-0.697062
0
-0.802524
-1.01547
0.599254
-0.618458
0
-0.374475
-0.700806
0
-0.191325
-0.25307
-0.794008
-0.334765
0
-1.04811
-0.148658
0
-0.791406
-0.0678851
0
-0.177446
0
-1.33576
-0.45934
0
-0.436073
-0.911794
-0.330111
-0.00803409
0
-1.61902
-0.0905394
0
-1.38034
-0.138759
-0.172781
-1.05688
0
-0.174852
-1.08883
0
-1.20739
-0.446583
0
-1.97304
-1.05547
-7.18896
-5.7318
-0.511109
-1.44892
0
-0.208339
-3.17671
-3.50857
-2.22371
-2.74886
-4.91957
-0.177628
-1.0272
-2.8326
0
-5.17305
-1.79749
-1.11622
-1.72254
-3.74086
-1.83166
-0.435459
-0.342936
-2.79224
-4.32383
-1.29722
-3.62996
-1.2972
-0.173744
-1.95175
-0.0465948
-3.10575
-6.17492
-3.37727
-3.64109
0
-4.45692
-0.42556
-2.15845
-3.52184
-6.17758
-0.73695
-1.9193
-1.54746
-8.96694
-3.68402
-0.151326
0
-1.42469
0
-5.22353
-0.211932
-6.8491
-0.117672
-0.520087
-5.61408
-2.02094
-1.3845
-1.37553
-0.959535
-1.22711
-1.26558
-2.42239
0
-3.46176
-0.682464
-6.54002
-1.39875
-4.81315
0
-0.341467
-0.0237034
-0.559632
-3.44754
-4.87395
-0.397942
-7.8921
-0.285861
-9.54386
0
0
-8.96401
-1.81828
-7.61722
-5.16166
-0.690832
-0.0758154
-8.24571
0
-3.64901
-3.14423
-3.77091
-0.406972
-0.923771
-3.05465
0
-5.75494
0
-0.993576
-0.927377
-0.742643
-0.857319
0
-6.34885
0
-5.13359
0
-0.151364
-0.34617
0
-0.714611
0
-1.5618
-5.86783
0
-1.00529
0
-5.06832
0
-0.976825
-4.98485
-1.87962
-2.23302
-2.37768
-1.09462
-1.13266
-1.6412
0
-0.669448
-1.40014
0
-6.7575
-0.0277856
-10.094
0
-4.63138
-3.49927
-0.169421
0
0
0
-6.90761
-2.87397
-0.594894
-1.73707
-2.71354
-0.130568
-4.67832
-0.401918
-5.44389
-1.01601
-0.452661
-1.79664
-1.41172
-1.88534
-6.01382
-2.81198
-0.156496
-7.55873
-1.61939
-4.25428
-3.87762
-3.42295
-4.3479
-1.77141
0
-6.56568
0
-3.15854
-2.49491
0
-3.51864
0
-4.84848
-3.34792
0
-3.05307
-3.70229
0
-1.38901
-3.27859
0
-1.04209
-0.0335902
-1.06886
-2.14371
0
-3.92437
0
-0.993841
-0.442311
-3.33193
0
-5.85745
0
-1.6815
-5.30823
0
-1.43916
-8.36114
-1.39506
-2.41365
-0.277386
-1.04937
0
-6.85964
0
-8.84495
-3.45881
-7.62473
-2.82745
-2.41431
-0.226867
-10.3772
0
-3.26191
-6.25961
-2.35519
-1.56354
-1.48362
-2.56888
-1.77556
-0.278168
0
-0.170373
0
-5.4657
0
-4.13863
-3.0162
0
-2.52594
-1.63635
-1.97752
-0.525661
-0.593203
-2.58672
-2.60927
-0.470179
-2.69597
0
-2.60634
-2.67976
0
-4.29157
-0.577806
-3.99618
0
0
-2.51667
-1.09628
-2.30335
0
-1.71953
0
-2.83019
-1.1746
0
-3.79718
-0.878751
-3.14348
-8.96353
-0.725807
-0.0298824
0
-0.492637
-3.718
-4.86697
0
-0.768686
-0.390548
-5.36807
-0.0485262
0
0
-6.187
-0.609308
-3.76905
-2.81141
-2.98924
-5.02006
0
-0.03117
-5.10461
-0.63412
-0.133951
-4.27605
-2.36093
-4.46365
-0.457833
-0.0388905
-2.22034
0
-0.0935753
-4.30615
0
-4.64893
-0.873012
-2.84751
0
-3.96924
-3.20891
-2.05133
-1.49092
-8.23083
-2.77707
-8.63697
0
-7.66446
-1.10091
-0.137314
-8.63609
0
0
0
0
-3.02884
-9.14617
-1.43289
-6.68536
-0.71225
-2.76624
-1.20681
-3.91835
0
-4.21753
-1.54275
-4.8643
-1.1261
-0.878919
0
0
-2.9542
-2.6462
-6.12975
-4.18524
0
-1.9202
-1.33767
0
-2.09303
-3.36418
0
-2.93079
0
-1.48138
-4.77881
-5.49067
-1.88684
-2.43213
0
-1.84393
-0.409857
-1.1087
-2.44312
-0.154598
-5.70508
-1.42561
-3.79475
-0.68168
-4.69169
-2.3161
-3.88483
-1.94513
0
-3.53765
-0.638056
-2.71754
-2.69176
-9.42404
-1.50687
-0.619161
-3.34667
0
-2.46423
-0.286823
-1.69816
-5.59041
-1.82008
-1.49367
-2.69429
-1.26329
-5.43307
-3.00453
-0.89429
-6.2924
-0.401772
-5.62425
-2.6414
-5.8505
-1.74755
-9.09172
-4.64998
-4.8769
0
-2.93589
-3.47437
0
-5.7968
0
-6.69148
0
-0.561414
-7.14505
0
-1.12539
0
0
-4.56357
-2.94805
0
-0.843765
0
0
-1.39732
0
0
0
-3.24343
0
-2.61812
-3.44013
-0.130771
-0.173013
0
-0.191665
-1.39416
0
-2.81825
-0.528921
-1.28277
0
-3.17755
0
-1.24069
-1.91426
-2.47576
-2.02363
-4.07633
0
-5.48251
0
-2.9488
-5.72083
0
-2.87224
-4.14809
-0.426356
-1.25323
0
-2.38032
-2.18196
-1.12064
-1.74229
0
-2.12718
0
0
0
-1.76363
0
-1.0993
-5.06779
-0.814515
-1.33134
-6.92679
-0.82416
-4.95079
-7.89158
0
-2.4624
0
0
-1.19935
-2.28345
-0.984372
0
-2.47941
-2.60669
0
-1.22721
0
-3.53053
0
0
-0.354286
-1.02053
-4.31232
-2.23511
0
-3.2121
-2.10697
-3.15453
-0.808541
-7.08172
0
-1.53939
0
0
-8.00422
0
-7.69991
-0.198858
-4.70404
0
-3.24106
-0.854107
-0.228662
-0.32602
-11.608
-1.90926
-0.735882
-0.315082
-1.67494
-10.2828
-1.8466
-10.0398
-4.48743
-1.54318
-3.54526
-1.82763
-3.65305
-2.53878
-1.07244
-6.13427
0
-8.93445
0
-8.3303
0
-5.68667
-0.154073
-3.57096
-0.37928
0
-5.07551
0
-1.4385
-5.20195
-1.97258
0
-3.17641
0
-2.03122
-0.479295
-2.35892
-3.79856
0
-0.761212
0
-7.17514
-0.534467
-1.90449
0
-1.53168
-11.2464
0
-3.31992
-3.95464
0
-2.12076
-2.77612
-0.484447
-3.13202
-4.03238
-4.51999
0
0
-0.12322
0
0
-2.74766
-0.91102
-2.55659
0
-3.75528
-5.01583
-2.46133
-0.816763
-0.549123
-3.74377
-4.99888
-5.8407
0
-5.56761
0
-5.32494
0
-4.19281
0
-2.86871
-3.58074
-5.31838
-1.58749
-2.70779
-3.23806
-0.74711
-4.01057
-6.18482
-1.593
-1.73941
-0.310872
-6.96231
0
-1.85515
0
-4.72411
0
-3.51525
-0.413659
-7.92767
-2.63963
-5.46407
-2.54965
-2.02318
0
-0.507457
-2.53649
-0.38293
-2.55476
-1.89348
-3.92619
-0.285809
-3.57251
-0.809887
-1.38267
-5.09844
-4.38911
-2.35904
-0.496169
0
-1.27434
-6.11612
-2.14233
-0.829614
-6.37369
-3.32872
-2.99506
0
0
-4.42564
-0.358128
0
0
0
0
-3.60184
-0.171559
-0.765691
-0.457858
0
-1.64549
-4.65554
-10.6723
0
-2.07751
0
-3.44611
-0.0524502
-0.608097
-1.42639
-1.17907
0
-3.27905
-1.87645
-1.27942
-1.41537
0
-0.700025
-6.23125
0
-7.24244
-1.20787
-1.78085
0
0
0
0
0
-5.7042
-0.509296
-6.78911
0
-11.1205
0
-0.169043
-6.94861
-4.98996
-5.76609
0
-4.86514
-0.521536
-0.540404
0
0
0
-4.08936
-3.48371
-1.08278
-3.86102
-0.516018
-7.70919
-1.42507
-7.38242
0
-0.082636
0
-9.09269
0
-4.85121
0
0
-2.27352
0
-1.6988
-0.257477
-0.261192
0
-4.25415
-1.68642
-0.451214
-4.19579
-2.89192
0
-2.31847
-1.77297
-0.112317
-6.57777
0
0
0
-1.14384
-0.0640457
-5.42167
0
0
-0.596623
-4.17656
0
0
-3.24716
0
-6.78789
0
-6.04916
0
0
-2.18101
-4.24084
0
-3.57795
-0.906319
-3.77906
-0.652055
0
0
-0.956972
-1.33253
-0.626947
-0.22264
-5.17439
-2.7421
-2.26337
0
-6.67693
-1.56049
0
-4.2119
-1.87242
-5.90058
-3.59657
-4.23587
-1.93652
-1.56817
0
0
-4.06758
0
-6.02659
0
-6.35167
-1.50439
-2.33114
0
0
-3.03249
0
-3.59987
-1.0628
-1.44176
-3.47759
-0.74493
-3.73239
-1.78123
0
-0.681851
0
-0.776808
-6.16777
-1.46994
-1.19842
-6.84161
0
0
-7.42538
-2.96705
0
0
-1.05974
0
-3.70119
-2.05949
-0.620113
-2.2928
-1.58228
-0.558281
-8.42274
-6.71192
-4.72041
-7.72071
-1.78046
-1.92484
-0.846052
0
-1.4938
-0.3141
-0.905142
-0.0883335
-5.07148
-4.9598
-1.65396
-2.35925
0
0
0
-4.16702
-1.83123
-2.23423
-3.51617
-6.87307
-1.01734
-3.05214
-3.11828
0
-4.15943
0
-5.27846
-6.16138
-1.81656
-4.15817
-6.15824
-2.57341
-3.22241
-4.18435
-2.17658
-3.97211
0
-1.39041
-2.45265
-2.30995
0
-4.04478
-1.44651
-4.70217
-3.35181
-2.97204
-2.50484
0
0
-2.70655
0
-3.15606
-0.53889
-2.98965
-0.752786
-2.94411
-2.21492
-8.3799
0
-9.56744
0
-0.0817954
-1.78404
-5.53648
-3.6977
-5.31084
0
-1.73174
-4.38237
-0.151771
-1.26067
-6.24949
-9.72976
0
0
0
0
0
0
0
0
0
0
0
0
0
0
0
0
0
0
0
0
0
0
0
0
0
0
0
0
0
0
0
0
0
0
0
0
0
0
0
0
0
0
0
0
0
0
0
0
0
0
0
0
0
0
0
0
0
0
0
0
0
0
0
0
0.0709508
-1.54629
0
-0.47837
-1.09415
0
-1.03096
-0.81903
-0.122718
-1.76406
0
-1.38525
-1.70084
0
-1.7295
-1.2251
-0.953624
-1.85662
-0.0114513
-1.08258
-3.5234
0
-1.82812
-1.27429
-0.759565
-1.46534
0.054288
-0.573438
-1.12968
0
-1.91576
-0.863564
-0.208346
-2.89534
0
-0.537125
-1.43249
0
-0.273415
-0.99598
-2.2658
-2.04806
0
-2.45233
-0.480366
0
-2.86325
-0.138306
-0.149376
-2.09812
0
-0.117488
-2.07163
0.0330144
-0.0601987
-1.91185
-1.01534
-0.330937
0
-2.35553
-0.747736
0
-1.63636
-0.178696
-1.45601
-8.0321
-0.8143
-3.74119
0
-9.32165
-9.7224
-2.43647
-5.5156
-3.12863
0
0
-4.51465
-1.15092
-6.7413
-3.99187
-1.89098
-1.68095
-2.89408
-4.24514
-7.59217
0
-5.64635
-0.147806
-0.823475
-6.35747
-8.00166
-1.95619
-5.56915
-3.77754
0
-2.19911
-1.45021
-2.43814
0
-0.651024
-2.61668
-0.378753
-2.58125
-5.53662
-1.96043
-3.30081
-0.932892
-1.09187
-3.04698
-0.0935546
-0.768032
0
-0.425036
-2.13043
-3.57479
-3.34568
-0.334581
-1.09352
-2.31613
-0.0510503
-4.09871
-8.97899
-2.17842
-1.60481
-1.37681
-5.40724
-1.17061
-8.92955
0
-3.48738
0
0
-5.90895
0
-0.808241
-0.185371
-3.05651
-5.71476
-1.97648
-1.47601
-1.40805
-5.96156
-3.81426
0
-2.20355
-1.59546
-3.81128
-1.85266
-0.753536
0
-0.559839
-2.15455
-7.88143
0
-0.0289232
-1.55887
-5.46264
-0.626535
-0.264115
-4.40037
-3.19491
-2.31531
0
0
-3.47731
-6.45073
0
-8.68251
0
-0.185413
-0.854962
0
-0.571216
-3.42507
-3.09518
-3.81317
-3.64281
-0.0962984
-3.28456
-2.5204
0
0
-5.33589
-0.402061
0
-5.68098
0
0
0
-3.70768
-2.27912
-4.5072
-2.67124
-0.384961
-4.26836
-0.909675
-4.25238
0
-0.794736
-5.72858
-0.131976
-7.78295
0
-3.16183
0
-4.20306
-0.0297815
-0.0719183
-0.774935
0
-5.98575
-1.72857
-4.28297
0
0
-5.36256
0
-2.15953
-7.15065
-0.975861
-3.52876
-0.77348
0
-1.44994
-8.16208
0
-1.20622
-1.67443
0
-2.03463
-0.0557949
-0.428548
-6.10673
0
0
0
-2.8072
-4.56363
-6.53112
-3.05343
-0.060931
-3.32227
-0.38399
-0.656526
-1.22309
-1.99063
0
-5.51614
-0.997586
-4.67269
0
-7.37447
-3.1705
-1.29653
-1.74182
0
-1.65747
-0.473395
-2.13553
0
-0.791255
0
-5.99813
-0.853545
0
0
-1.99566
-1.35694
-3.36685
-6.29749
-2.19381
-0.571011
-1.51278
-1.707
0
-3.48401
0
0
-2.48207
-5.10133
-0.578809
-4.53599
-6.67852
0
-3.14025
-1.09765
0
-0.699346
-4.26471
-8.08971
-1.80152
-5.5359
-5.60604
0
-3.62167
-3.9324
0
0
-2.01413
-0.073853
0
0
-2.08787
0
-4.06433
-3.43893
-0.537584
-1.24201
0
-7.84463
0
-5.68775
-6.16441
-3.25451
-2.03728
-3.95756
-1.54853
-2.82639
-3.81203
-5.57646
-7.92804
-1.53075
-2.9195
-0.5261
-3.96663
-2.91743
-3.45473
0
-3.65358
0
-6.38427
-3.34057
-9.2575
0
-3.10029
-5.92816
-4.83418
0
0
-8.82868
-5.25982
0
0
-1.24493
-0.0348792
-0.0258934
-0.862773
-0.0669159
-1.76156
-0.683216
-1.98857
0
0
-1.89963
0
0
-4.40628
-4.42791
-2.09172
0
-0.00692034
0
0
0
-2.56853
-1.31228
-0.932532
-3.0589
-2.75802
-0.383273
-1.69672
0
-1.05421
-0.316748
-3.03603
0
-0.0250126
-1.47679
0
-2.55206
-6.6246
-3.39413
-0.614689
-3.23727
-2.40899
0
-4.08606
-1.81774
-2.43503
0
-0.350329
-1.58067
-5.1877
-0.338108
-2.46897
0
-3.40158
-0.931063
-2.40652
-3.34348
-3.73026
-3.34551
-2.35599
-4.05951
-0.568975
-6.16652
-0.45209
-2.28923
0
-1.30792
-3.06865
0
-2.31254
0
-2.23596
-0.19261
-1.51652
-5.02199
-1.71833
-3.44459
-0.890341
-4.75556
-1.41085
0
0
0
0
-1.8386
0
-5.82697
-0.284808
-0.566365
-2.01161
0
-3.85566
-2.60455
-0.980916
0
-4.00346
-1.50654
-5.96392
-0.769205
-4.9138
0
-1.72298
-5.32834
-3.08575
-1.43925
0
-1.74969
0
-1.45392
-0.307159
-0.878408
-1.09451
0
-3.38784
-4.11719
-2.87145
-0.22794
0
-5.20557
0
-6.26155
-3.51763
0
-2.82648
-0.265155
-0.497376
-0.299414
-1.97857
-7.23721
-5.34289
-7.85363
-0.250456
-0.245163
-3.20479
-2.62514
0
-8.90721
-0.40975
-5.11824
-4.82712
-1.17329
-3.75972
-0.00340604
-0.438678
0
-0.396115
-0.886253
0
-4.51106
-3.79928
-3.8027
-1.94582
-2.89693
0
-5.57137
-7.83254
-2.47418
-5.86225
-3.72762
-4.30657
-4.83728
0
-3.15265
0
-2.58134
-2.33668
-5.32065
0
-5.11118
-0.41617
0
-2.48054
-2.9323
-3.8396
0
-4.64201
-5.34877
-4.34901
-2.95049
-7.34879
-3.57742
-6.34733
-0.377633
-6.23811
-2.9244
-4.57698
-2.14932
-4.68932
-0.575089
0
-6.80648
-1.33009
0
-0.614362
-3.11768
-6.86651
-6.5264
-0.687754
-2.16035
-5.28435
-2.10914
0
-0.349352
-1.54266
-3.96224
-6.08675
0
-3.38741
-1.75081
0
-5.53298
-0.796037
-4.54931
0
-1.02775
-0.520598
-3.10841
0
-3.77036
-0.79007
-2.37501
-2.18582
-9.72728
0
-1.8373
0
0
-3.32704
-0.268463
-2.33876
-0.405233
-2.89533
-6.01732
-1.57283
-0.320807
-8.67235
-4.4589
-4.2798
-0.311817
0
0
-1.57716
-1.00098
-0.255909
0
-0.0607431
-0.0276654
-1.07085
-1.5603
-4.85357
0
0
-5.20488
0
-1.26673
0
-2.86809
0
-8.31597
0
-8.98913
-2.08697
0
-2.58833
-4.5412
-1.30674
0
-5.29201
0
-2.18694
-1.86915
-0.588771
-4.53497
-2.41911
-1.21663
-6.6345
-1.26571
-8.66556
-1.17081
0
0
-5.01128
-2.71314
-4.06711
-1.9449
-2.92878
-3.09717
-0.555673
-2.70769
0
-4.01557
0
-4.89894
-0.653201
0
-1.05837
-0.746831
0
-0.352543
-1.86678
0
-0.29287
0
-4.02044
-0.466788
-1.29483
0
-1.34041
-2.00614
0
-1.55752
-1.45857
-0.856933
-1.44551
-2.15033
-1.20999
-0.318536
-0.817658
-1.33248
-0.667323
-1.86905
-4.75749
0
0
-7.72243
-0.757101
0
-5.16172
-1.95311
-4.65532
-0.973275
-1.56065
-1.54543
0
-5.39159
0
0
-3.54919
0
-4.7418
-1.5806
-6.83159
-0.223909
-3.98174
-0.0377053
-0.41538
0
0
0
0
0
0
0
-1.66577
-1.07227
-1.40256
-2.83398
-1.81055
-0.88964
0
-0.0746169
-5.49527
-3.04373
-5.69449
-0.507885
-5.2054
0
-2.96044
-7.01488
-0.275251
-2.6746
0
0
-7.77549
-0.457969
-2.52233
-0.319309
-4.66002
0
-4.03961
-0.308516
0
-6.94326
-1.14447
-5.77162
-5.78617
-6.95784
-3.71499
0
-0.55533
0
-3.00399
-1.6352
-1.57391
0
-2.09531
0
-0.666829
-6.91337
0
-6.42397
-2.38869
-2.20012
-2.5137
-4.24375
-1.09777
-0.746661
0
-3.4247
0
-1.15909
-0.198604
-6.7972
0
0
-4.06587
-3.0731
0
-5.0135
0
-1.66401
0
-4.05993
0
-0.154831
-6.45451
0
-3.04336
-6.45485
-1.61661
-4.4863
-1.08122
0
-0.955552
0
-6.45107
-2.88192
-3.37166
-2.83767
-1.20512
-4.5467
-0.515576
0
0
-1.82354
0
-0.964881
-4.92512
0
-3.51593
0
-1.51819
0
-4.77029
-0.339782
-8.16308
0
-1.09014
-9.11538
-2.5136
-7.33206
-2.98335
-4.24926
-1.49642
-5.4782
0
0
-10.7922
0
-7.29759
-2.74005
-9.55564
-4.31171
-2.09443
0
-0.506974
-4.41185
-0.348794
-4.07348
-3.3652
-1.34675
-5.26034
-1.89728
-5.26873
-2.78052
-0.890521
-7.03946
-2.4877
0
-5.44335
0
-2.50479
0
0
-0.520732
0
-4.66698
0
-6.67444
-1.10157
-2.37774
-1.00322
-2.52043
0
0
0
-4.62946
-3.90289
-6.43668
0
-6.21166
0
-0.0485315
-3.1721
0
-1.30421
0
-4.13208
-1.03678
-5.92599
0
-4.08873
-4.02402
-2.00651
-5.52159
0
-5.92584
-1.69515
-0.899376
-0.597444
-8.69434
0
-9.27659
0
-0.924294
-0.442195
-3.90411
-1.21251
-0.954137
-1.58108
0
-0.348356
-0.333933
0
-0.886588
-6.56553
-0.263549
-11.5177
-0.930306
-7.64595
-6.70848
-2.84
0
-1.55151
-0.208114
-6.59748
0
-6.95556
-2.41372
-0.789352
0
-6.20723
-0.770904
-0.946262
-0.814967
-1.31211
-2.95325
0
-2.13293
-1.38194
-1.39302
0
-3.96835
-4.4194
-0.498255
-6.25087
-6.95107
0
-6.12858
-3.88861
-2.88
-4.74328
-0.365369
-5.87379
0
-1.20124
-9.81112
0
-6.71687
0
-5.62985
-1.98698
-6.98076
-3.32677
0
-0.758501
-1.85171
-1.6649
-2.66178
-2.17929
-2.25571
-1.26687
0
-1.0267
-4.6292
-9.07907
-6.9153
-3.09086
0
0
-6.46404
-0.0285804
-3.68057
-1.13925
-4.5707
0
-0.930465
0
0
0
0
0
0
0
0
0
0
0
0
0
0
0
0
0
0
0
0
0
0
0
0
0
0
0
0
0
0
0
0
0
0
0
0
0
0
0
0
0
0
0
0
0
0
0
0
0
0
0
0
0
0
0
0
0
0
0
0
0
0
0
0
0
0
0
0
0
0
0
0
0
0
-0.243515
-0.085211
0
0
-0.0788972
-0.0734864
0
-0.0548784
0
-0.64046
0
0
0
-0.0123428
0
-0.200121
0
0
0
0
0
-0.0890457
0
0
0
-0.018399
0
0
-0.101592
0
0
0
0
0
0
0
0
-0.106046
0
-1.08393
0
0
0
0
0
0
0
-0.0860969
0
0
0
0
0
0
0
-3.04065
-0.241285
-5.80075
-0.891614
-2.69724
-1.70472
0
-2.67541
-1.52549
-5.24293
-1.36468
-2.27298
0
0
-5.20026
0
-1.92576
-1.14469
-4.26876
0
0
-1.97709
-5.30939
-2.24451
-1.07874
-0.841244
0
-1.8881
-2.20295
-1.88577
-0.929192
-1.11862
0
-4.30794
-2.30522
-2.25811
-2.06284
-1.15163
0
0
0
-2.5112
-2.66045
-2.6128
-1.72758
-5.21361
0
-1.2828
0
-0.593912
0
-5.39686
0
-6.30036
-8.06413
-0.337561
0
-1.94246
-3.05996
-4.3975
-0.496318
-0.443056
0
-4.62036
-0.556033
-5.80582
-0.0249177
-1.22578
-2.39656
-3.25462
0
-2.71558
0
-4.82836
0
-3.95633
-0.0144646
-0.180749
-7.59572
-3.37161
-1.05827
-0.854564
-2.03608
-6.49158
-4.60289
-4.55337
-0.314571
-0.134053
-1.4349
-5.30625
-2.36962
-0.156039
-7.17756
-0.22608
-3.07534
-1.88569
-5.40511
0
-8.18769
0
-0.298758
-2.72566
0
0
-7.60784
0
-2.71247
-2.4506
0
0
0
0
-0.152296
-4.34992
-2.13931
-2.52986
-1.40302
-0.278664
0
-0.299008
-2.76495
-1.34979
-2.98534
-2.77999
-3.32639
-2.06091
-2.48114
-0.0483727
-2.34395
-2.81735
-3.59614
-2.54113
0
-3.62094
-1.23618
-3.15884
-0.0164959
0
-5.1478
0
0
0
-6.86469
0
-6.21707
-0.590586
-6.64026
-4.97912
-5.73912
-9.66796
-1.71094
-3.56348
-0.278798
-0.427179
-1.5621
-2.7656
-1.1137
-2.52712
-0.301484
-2.55182
-4.57393
-2.58641
-0.539034
0
-3.86864
-2.29852
-0.366756
-1.00511
-1.00086
-9.06677
-2.92132
-4.20302
0
0
-1.10971
-8.78883
0
-2.62888
-1.44133
-3.78965
-2.33974
-6.76354
0
-1.6533
0
0
-0.386689
-0.113989
-3.07071
-2.48878
-2.86243
-1.09637
-0.567354
-6.00903
-0.650465
-6.74236
-0.582774
-0.196351
-3.40962
-2.21893
-3.0394
-0.570888
-1.16678
0
-1.2386
0
-7.14825
0
-2.50413
0
-4.55297
-0.847692
-7.06565
0
-0.0263952
-3.23058
0
-0.547497
-3.50085
-3.59768
-1.34261
-8.29294
-2.96215
-0.25734
-2.78495
-4.89389
-0.383446
-1.29305
-4.52412
0
-0.639582
-5.54312
-0.295182
-3.24029
-0.438523
-5.40166
-0.0379227
-3.19022
-0.0752859
-2.1719
-0.262894
-0.22747
-1.82617
-1.60821
-3.56844
-1.48578
-1.50772
-2.61574
-6.2455
0
0
-0.534855
-0.80851
-1.4522
-0.176061
0
0
0
0
0
0
-1.14128
-7.01748
-0.0327122
-4.69809
-0.774387
-0.675181
-0.883437
-2.5635
-4.16904
0
0
-3.81745
-1.57492
-2.37572
-2.03588
-0.0355869
-1.26941
-3.79853
-2.28504
-0.948923
-5.44954
-1.01738
-3.08052
-2.93181
-2.89459
-1.97069
0
-3.8745
-5.81865
0
-2.62479
0
-4.21794
-3.42309
-5.75933
-2.17654
-6.09604
-0.578132
-3.80688
-2.75756
0
-0.528675
-0.699341
-0.410625
-4.55652
-2.01915
-4.85361
0
-9.0263
0
-0.828882
-4.38844
-7.61494
-2.40024
0
-4.76795
-1.57472
-4.31459
-2.52756
-3.14151
-1.0304
-0.167504
-0.746461
-3.11826
-3.11957
0
-2.93516
-1.51276
-1.89089
-1.84955
-2.54072
0
-5.89008
0
-4.00937
-4.89326
0
-2.40287
-2.16098
-1.43157
-0.438775
-5.94537
-7.57809
-1.11432
0
-4.70582
0
-3.01706
-2.79338
-0.323474
-2.59366
-1.81453
-2.16918
0
-6.17308
-1.99344
-4.85312
-2.06797
0
-5.44959
-0.831981
-8.79844
0
-5.52771
-2.3186
-8.14243
-9.38974
-5.03109
-4.24613
-2.09606
-5.71077
-1.28003
-1.13785
0
0
-4.04657
-3.67195
-2.31081
-2.16768
0
-1.17928
-7.61267
-6.08205
-3.91061
-1.56015
-1.37739
-0.770666
-1.77999
-5.55295
-4.43157
-1.22037
0
-0.133443
-3.06956
-1.003
-0.189976
-1.28455
0
-0.834835
-0.889813
-2.16838
-0.587143
-4.35148
-1.63805
-0.8897
-0.188515
-0.14967
0
-0.037238
-3.05255
-0.779081
-1.45629
-0.836352
-0.760733
0
-1.88116
-2.25492
-0.994725
-0.624863
-6.99814
0
-0.106898
-2.7926
-4.87031
0
-3.06463
0
-0.771697
-4.07809
0
-2.96524
-1.09419
-0.295273
-1.47914
0
-0.842773
-0.146382
-1.77356
0
-3.68674
0
-6.16301
0
-0.435529
-8.2649
0
-4.60914
-0.614062
-5.21619
-0.5595
-0.625234
-4.36055
-1.90088
0
0
-5.76153
0
-0.222348
-0.684319
0
-0.173695
0
-2.85174
-1.89459
0
-4.10964
-6.43788
-3.41006
0
-2.80175
-4.06067
-1.89293
0
-0.903314
-4.1673
-4.83075
-0.342826
-1.90237
-4.43504
-0.934501
-4.48481
-0.791013
-2.66582
-8.38326
0
-0.58928
0
0
-0.387052
-11.0804
-0.203081
-6.54246
-3.61778
0
-6.08019
0
-5.235
0
-0.815479
0
-2.28827
-3.81092
0
-9.38487
0
-7.94473
-1.92738
-4.0297
-4.57503
0
-4.95229
-0.423761
-0.816722
-0.23053
-0.877812
-5.46037
-4.29794
0
-3.63757
0
-3.52577
-1.23946
-3.23789
-1.0274
-4.47931
-0.0711545
-5.92307
0
-7.78089
0
-5.98843
-1.17805
-3.83603
-1.05747
-0.158561
0
0
0
-0.0338279
-4.59302
0
0
-4.19193
-2.60885
-4.48881
0
-1.67516
-0.0942945
-1.60731
-1.5947
-3.65335
-2.49568
0
0
-0.690201
-4.20801
-6.50012
0
-2.58932
0
0
-2.03093
-0.821025
-0.378063
0
-3.62755
-1.90773
0
-0.55823
-1.44612
-4.82291
-3.1632
-6.2849
-0.543352
0
0
-3.6792
-1.44545
-5.43554
0
0
0
0
-0.899773
-4.6416
-3.74138
-0.38965
-0.780372
-1.6667
-2.80545
-3.11096
-2.4476
0
0
-3.12909
0
-2.6063
-0.626396
0
-6.49938
-3.17974
-2.63748
-1.31906
-2.42061
-2.26471
-1.81178
0
-0.0163243
-0.373977
-1.03293
-1.97534
-0.0853844
-6.92097
-4.7131
0
-4.62567
-9.72787
-1.39632
-3.86746
0
-2.27764
0
-2.93473
-4.90997
-1.4444
-4.96489
-4.74813
-7.14329
-1.97077
-3.87336
0
-2.1025
0
-4.56207
0
-5.18538
0
-6.04936
-0.505611
-0.43175
0
-0.28705
-6.22951
-2.77399
-0.0783684
0
0
0
-0.0372239
-5.20833
-0.107219
0
-4.42497
-0.699526
0
-2.28339
0
-1.12517
-1.74001
-4.04773
-2.0532
-1.37279
-1.99191
-6.83362
0
-1.27456
-3.14069
0
-3.32721
-0.344394
0
-4.03959
-0.832609
-7.1658
-1.20972
0
-0.0166664
-0.429055
0
-2.69019
0
-3.97637
-2.92986
0
-7.89391
-4.19293
0
-1.55752
-4.28513
0
-2.16446
-5.64145
-3.48462
-0.648489
-4.38404
-0.116988
0
-7.19444
-1.54466
-5.15091
-1.08648
-3.86006
-0.532302
-7.71494
0
-0.163562
0
-4.57569
0
-4.27348
0
-2.40106
-0.391507
0
-1.42101
-0.300357
-0.472803
-0.0492311
0
-0.293758
-0.79833
-3.81087
0
0
-3.36437
-0.136039
-1.5799
-0.907631
-6.15248
-1.57024
-0.342072
-5.28992
0
-6.61019
0
0
-0.411506
0
-2.56835
-0.42571
0
0
-0.151746
-9.34137
-2.01597
0
-3.87513
0
0
-5.42626
-0.0424656
-8.77625
-0.308609
-0.99528
-4.71227
0
-0.588386
-2.02688
0
-1.21991
-0.454938
-2.08173
-6.13376
-0.48688
-1.18532
-8.16543
-2.29663
-0.344026
-5.27646
0
-6.98203
-4.37019
-0.0659144
-1.26608
-2.00817
-0.434637
-4.03073
-1.10933
-1.43982
-3.76245
-10.3026
-0.693439
-3.04031
-0.176734
0
0
0
-0.321348
-0.597474
-3.55499
0
-3.6482
-0.408359
-7.69511
-0.669346
-1.3779
-1.36783
-2.50656
-2.87024
0
-3.57355
-2.53219
-0.862186
0
-1.97223
-5.12438
-0.955977
0
-0.12882
0
-8.52138
0
-2.97745
-4.00229
-3.53809
-1.72639
-3.74416
0
-1.83046
-5.89637
0
-6.50339
0
-3.74926
-1.95041
0
-5.80207
-2.47607
0
-3.72005
-0.987729
-1.69409
-1.94832
0
0
-0.75066
-1.69588
-3.88708
-1.20021
-0.142466
-7.09656
0
-3.49404
-3.08379
-2.85209
-1.05771
-2.85633
-4.23309
-3.40073
-1.8965
-0.412718
-5.80659
0
-3.59071
-8.16142
0
-7.55532
0
-0.608816
0
0
-4.39862
0
-3.04729
-2.99893
0
-5.65082
-0.557619
-2.7779
-1.10287
-6.19515
0
-1.29172
-0.261292
-0.673959
0
-2.49235
0
-4.57753
-5.66496
-3.99546
-3.02369
-1.08986
-3.23579
-0.695576
-6.32658
-5.51828
-0.224258
-0.593083
-5.03837
-2.18779
-1.94775
-4.17611
-5.35257
0
0
0
0
0
0
0
0
0
0
0
0
0
0
0
0
0
0
0
0
0
0
0
0
0
0
0
0
0
0
0
0
0
0
0
0
0
0
0
0
0
0
0
0
0
0
0
0
0
0
0
0
0
0
0
0
0
0
0
0
0
0
0
0
-0.325486
-1.48263
-0.159495
-1.46142
-1.43555
-0.0506468
-1.17683
-0.830284
-0.896834
-1.6486
-0.366022
-1.50758
-1.14182
-0.0983174
-1.69343
-1.28226
0.1714
-1.47143
0.0957108
-2.13169
-0.832497
0
-1.98367
-0.604021
-1.15119
-1.79868
-0.050165
-0.72454
-1.73453
0
-1.45407
-0.84395
-1.76388
-0.122797
0.00274385
-2.53209
-0.234612
0
-1.89027
-0.234614
-0.297908
-2.41147
0
-0.634514
-1.75789
0
-0.0330255
-3.01501
-0.324568
-3.56456
0
-1.80425
-0.798431
0
-3.34237
-0.138082
-0.39021
-2.18343
0
-0.872895
-0.553723
0
-0.681768
-0.886446
-4.12738
-3.65173
-1.40176
0
-0.456089
-3.57744
-1.23686
-4.294
-4.65272
0
-0.142668
-5.58905
-0.384424
-3.7019
-1.97301
-2.44125
-0.691014
-5.57661
-2.61367
-1.77217
-5.31251
-3.47442
0
-3.19209
-1.57699
-6.73441
-0.600421
-5.23965
-0.333721
-1.1187
-0.397714
-0.189888
-7.49027
0
-1.92695
-1.09517
-0.519266
-3.07654
0
-2.52598
-1.39061
-0.693769
0
-0.397537
-2.61566
-5.04988
-0.35667
-0.60614
-3.38467
-3.69101
-1.40567
-1.9216
-2.80992
-1.30327
-5.72493
0
-4.78701
0
-1.5231
-1.66491
-0.755642
0
-5.90214
-0.995411
0
-3.89654
0
0
-0.0590835
-4.62977
-0.259466
-2.4275
-2.72978
-3.42638
-1.34116
-2.12841
-4.75837
-0.124122
-7.30571
-2.64267
0
-10.1771
-0.189498
-1.80525
-0.080549
-0.361418
-1.1029
0
0
-1.24454
0
-1.48847
0
0
-1.12095
-2.09231
-1.34541
-2.44284
0
0
-4.71514
-2.68564
0
-2.67995
-1.1175
-0.303601
-1.57089
-1.80249
0
-4.58493
-5.94312
-3.41947
-2.77561
-2.50993
0
-4.47452
-3.66871
-0.314937
-1.02062
-1.36327
-5.01696
0
-2.59683
-1.15962
-1.71079
-1.06809
-1.39298
-2.8528
-0.335399
-1.75081
-2.57094
0
-6.32762
-0.621966
-6.15938
-3.4179
-0.214665
-1.15774
-5.19062
0
0
-11.1835
0
-0.727671
0
-2.15557
0
-4.5106
-1.21232
-1.3283
-2.20036
-1.25671
-6.9435
-1.41452
-0.317814
-1.75719
-3.47568
-2.03821
0
0
-2.05251
-0.21716
-0.0430987
-2.9165
-3.64148
0
0
-4.48827
0
-5.6394
0
-3.00222
0
-0.030609
-5.91408
0
0
-8.62689
-2.43084
-8.29663
0
-7.04928
0
-0.539462
-2.84583
-0.226781
-5.32409
0
-7.28881
0
-5.10781
-0.157302
-3.79485
-4.26471
0
-0.235347
-4.33103
0
-3.36623
-0.230169
0
-3.73134
-3.02299
-1.73955
-1.63447
-3.94182
-0.43107
-4.78528
0
-0.404588
-1.40346
-4.26382
0
-0.305531
-2.72708
-5.0227
-1.29601
-2.91991
-2.49768
-0.29971
0
-0.0587007
-1.08142
0
-5.08649
0
-1.56142
-0.86959
0
0
-6.34825
-1.73717
-6.94148
0
-2.88614
-1.34717
0
-3.64477
-3.45869
-2.31978
-4.18457
-0.808913
-1.45963
-0.319584
-3.54605
0
-2.66952
-0.462317
-1.20997
-1.8858
-5.71571
-2.75685
-3.58699
-3.17756
-6.09669
0
0
-5.79507
-1.73766
-5.82595
-2.91329
-8.75695
-3.12693
-0.706552
-3.09406
-4.7251
-0.59873
-2.49492
-3.74444
-0.613109
-2.32096
-0.318457
-2.20591
0
0
-1.94015
-0.18717
-3.06751
0
0
0
-0.0851564
-0.112745
-0.948234
-0.285768
-0.65673
-2.46635
-0.656177
-0.935371
0
-1.51343
0
-2.1604
0
-2.95206
0
0
0
0
-2.88057
0
-2.46341
-0.57684
-3.16725
0
-2.89309
-0.474803
0
0
-0.543918
0
-6.28109
0
0
-0.371359
-2.43627
-3.54369
-6.43839
-0.518752
-7.86198
-3.88702
0
-1.7866
-7.16561
-0.111823
0
-4.6979
0
0
-0.582396
-2.40181
-0.301127
-4.75459
-0.0248456
-4.7673
-2.75269
-1.56111
-2.105
-3.21263
-8.59784
-0.720565
-7.81572
0
-1.37831
-3.72153
-5.0523
-0.112703
-2.385
-2.89491
-4.28558
0
-1.84821
-3.87963
-0.0901256
-1.01294
-9.57966
-0.214951
-5.68528
-0.406808
0
-9.25329
0
0
-1.20963
0
-5.15912
-0.85344
0
-0.061367
0
-0.210509
-0.237785
0
-5.51003
-2.29817
-6.53861
0
-0.683105
-2.54642
-1.80813
-3.8781
0
-1.64564
0
-2.17955
-2.4384
-3.55478
-0.149511
-0.0320894
-0.77318
-0.0284359
0
-0.0540247
-4.41759
-0.545179
0
0
0
-5.49695
0
-6.45551
-0.266902
-3.62614
0
-1.15554
-0.931605
-9.87069
-0.222168
-8.04549
0
-3.03235
-1.65841
-4.62779
-0.400917
-3.40684
0
-4.78869
-0.983139
-0.912946
-6.44388
-4.37542
0
-0.546944
-2.53571
-0.700445
-0.478167
-2.03374
-0.0474068
-4.57751
-4.28779
-5.01064
-3.01774
-0.124667
-4.19512
0
-9.30177
-5.41784
-1.50681
-0.0568774
-2.3406
0
-2.68306
0
-0.209493
-4.26402
-2.05578
-1.08948
-2.09768
0
-4.09122
-0.135645
-3.47944
-1.68198
0
-2.75456
-0.785432
-6.13593
-0.447447
-6.25115
-0.0651709
-7.10311
0
-4.37062
-0.812714
-2.37812
-8.11526
-2.56765
-2.64163
0
-4.81903
-2.28262
-5.14777
-0.444564
-2.34073
-0.272568
-4.44768
-0.0253535
0
-4.02365
0
-3.68132
0
-1.81762
-1.17135
-1.8201
-0.695091
-0.522359
-8.34512
0
-7.62189
-0.309121
-0.310733
-2.35644
-2.88673
-7.0788
0
-0.836996
0
-1.42998
0
-6.58111
-3.16246
-3.49235
0
-9.01167
0
-2.58434
-1.81265
0
-4.54284
-2.39465
0
-3.93749
-5.16511
-7.17805
0
-6.48054
0
-1.51915
-6.0685
-1.84472
-6.04513
-0.606385
-1.47195
-0.815779
0
-1.5579
0
-1.27045
-5.27115
0
-1.59168
0
0
-3.08067
0
-7.19585
0
-8.32836
0
-5.72712
-2.71622
-4.24569
-5.00753
-0.84222
0
-4.4864
-2.75227
0
-8.10637
-2.08961
0
-0.503997
-7.19432
-0.188206
-7.31559
-3.55104
0
-3.56384
0
-2.66866
0
-3.04204
-7.66967
-0.329054
-11.7946
-0.0825393
-2.45872
-2.69583
-1.32937
-3.10054
-0.125668
-0.957943
0
-3.59941
-0.00694904
-10.1757
0
-1.31126
-1.52174
-2.44217
-3.29136
-7.77729
-1.3067
-5.00348
0
-0.672141
-2.94254
-4.84168
-10.0616
-0.341813
-3.98058
0
-3.84698
0
-0.989773
-2.29667
0
-5.52948
0
-5.61266
0
-0.262141
-1.51632
0
-2.16708
0
-1.02998
-1.32013
-5.84163
-0.430797
0
-0.246385
-0.314087
-4.00283
0
-10.2321
-5.51628
-0.609481
-3.19233
-0.656899
-2.51231
-2.00697
-2.17906
-2.85999
0
-3.30048
-1.7317
0
0
-1.84265
-2.32968
-4.29933
0
-2.10666
-1.44976
-4.9365
-1.66242
-6.30034
0
-2.95143
-6.60726
-6.68543
-2.65747
0
-1.68224
0
-6.52166
0
-5.80348
0
0
0
-6.18354
0
0
-5.11253
-0.905592
-3.97906
-5.4031
0
-0.475372
-2.48716
-0.834912
-0.161607
-2.20861
-3.47329
-2.6709
-0.4553
0
-1.738
-11.8291
-1.94044
0
-8.59004
-0.0715284
-0.242169
0
-2.16065
-1.71543
-5.90524
-2.55424
-6.4428
-4.26999
-5.21696
-1.6068
0
0
-3.76977
-0.128842
-1.11085
-4.78029
0
-0.886519
-2.44693
-1.33925
-7.89644
-4.078
-4.36959
-3.36168
-4.00206
-1.20298
-2.06333
-0.796401
0
0
0
-9.56402
-2.14288
-5.48076
-3.87456
-0.636197
0
-2.11468
-1.52206
-3.88335
-1.38095
-2.21971
-1.92859
0
-6.2631
-0.818479
-0.9114
0
-1.72315
-4.559
0
-0.0870118
-5.72785
0
-0.577626
-1.04095
-6.57483
-2.08244
-8.85558
-2.14197
-7.87264
-5.34695
0
-0.533922
-2.51147
0
-5.49261
0
-6.84341
0
-2.47065
-6.77114
0
-3.00339
-0.5142
-2.08692
-0.193816
0
-2.40433
-0.0553668
-1.19066
-0.12811
-6.49468
-0.0881761
-4.24723
-3.59973
-2.35766
-1.84958
-2.9414
0
-7.74395
0
0
-3.47149
-4.98449
-0.0566274
-2.32715
-0.99011
-3.58084
-1.70688
-7.81618
0
-1.301
-2.53702
-3.01193
-6.2274
-0.175738
-0.139994
-3.00247
0
-0.913898
-4.88855
-2.52313
-3.17211
0
-1.75921
-2.21123
0
0
-3.08287
0
-2.56758
-1.0434
0
0
0
-2.77187
0
-3.33584
0
-2.83963
-0.327844
0
0
-7.48496
-6.39357
-0.353611
0
-3.70385
0
0
-0.75382
-0.0524802
-6.31509
-3.33955
-1.70164
-1.32122
0
-0.368788
-2.03077
-0.060465
-4.36237
-0.0215245
-5.86372
-0.144449
-5.6573
0
-5.75639
-3.12684
-6.32875
0
-3.71435
-1.40404
-3.73289
-6.39927
-2.40719
-2.66197
-5.8743
-0.217043
0
-2.67377
0
-2.45834
-0.932827
-0.165243
-1.26568
0
-1.7457
-2.75821
-1.61713
-1.47701
-0.643549
-1.89579
-4.7505
-2.84653
-3.57968
-3.15992
-1.7409
-6.05969
0
0
-3.04161