<?xml version="1.0"?>
<VTKFile type="RectilinearGrid">
<RectilinearGrid WholeExtent="0 32 0 32 0 32" Origin="0 0 0" Spacing="1 1 1">
<Piece Extent="0 32 0 32 0 32">
<PointData>
</PointData>
<Coordinates>
<DataArray type="Float32" format="ascii">
0 0.524874 1.04975 1.57462 2.0995 2.62437 3.14924 3.67412 4.19899 4.72386 5.24874 5.77361 6.29849 6.82336 7.34823 7.87311 8.39798 8.92285 9.44773 9.9726 10.4975 11.0224 11.5472 12.0721 12.597 13.1218 13.6467 14.1716 14.6965 15.2213 15.7462 16.2711 16.796 
</DataArray>
<DataArray type="Float32" format="ascii">
-5.03879 -3.62163 -2.20447 -0.787311 0.629849 2.04701 3.46417 4.88133 6.29849 7.71565 9.1328 10.55 11.9671 13.3843 14.8014 16.2186 17.6358 19.0529 20.4701 21.8872 23.3044 24.7216 26.1387 27.5559 28.973 30.3902 31.8074 33.2245 34.6417 36.0588 37.476 38.8931 40.3103 
</DataArray>
<DataArray type="Float32" format="ascii">
0 0.524874 1.04975 1.57462 2.0995 2.62437 3.14924 3.67412 4.19899 4.72386 5.24874 5.77361 6.29849 6.82336 7.34823 7.87311 8.39798 8.92285 9.44773 9.9726 10.4975 11.0224 11.5472 12.0721 12.597 13.1218 13.6467 14.1716 14.6965 15.2213 15.7462 16.2711 16.796 
</DataArray>
</Coordinates>
<CellData>
<DataArray type="Float32" Name="Scalar" format="ascii">
0
0
0
0
0
0
0
0
0
0
0
0
0
0
0
0
0
0
0
0
0
0
0
0
0
0
0
0
0
0
0
0
0
0
0
0
0
0
0
0
0
0
0
0
0
0
0
0
0
0
0
0
0
0
0
0
0
0
0
0
0
0
0
0
0.472931
-1.27286
0
-0.217752
-0.320345
0
-0.120974
-0.0852971
0.58708
0.158987
0
-0.539989
-0.591565
0
-0.952652
-0.396989
0.152896
-0.482238
0
-0.244107
-0.942766
0
-0.805533
-0.507571
0.114617
-0.166789
0
-0.842603
-0.79314
0
-0.515515
-0.207604
-0.0721841
-0.0823771
0
-0.153856
-0.0439603
0
-1.37506
-0.630913
-0.206296
-1.768
0
-0.83257
-1.23757
0
-1.29838
-0.729647
-0.690737
-0.440743
0
-0.217041
-0.163405
0
-0.381565
-0.0377886
-0.123469
-0.33606
0
0.00846723
-1.39513
0
-0.804601
-0.211001
-0.529038
0
-2.58636
0
-2.45909
-0.690737
-0.858142
-0.981665
-0.427742
0
0
-2.35457
0
-3.43857
-1.68714
-2.8474
-3.60531
-9.02799
-1.40408
-1.77093
-3.20183
-3.75806
-3.2771
-0.397989
-0.195568
-5.23687
-2.58131
-0.905071
-2.83844
-1.45331
-2.32161
0
-9.05679
0
-9.47981
-1.16354
-0.313951
-4.49969
-1.7184
-2.06778
-0.452733
-1.19092
0
-1.80451
-0.253974
-0.529766
-1.11689
0
-1.08301
-5.15486
0
-1.73297
-1.32218
-3.97187
-5.37754
-3.3874
-0.970734
-2.9063
-0.437499
-1.68096
0
-4.05729
0
-0.610884
-1.67943
-0.170125
-2.20591
0
-0.620291
0
-2.75109
-1.67158
-1.33364
-3.8072
-0.812202
0
-6.76212
-0.403844
-3.32265
-3.26853
-2.50494
-0.559778
0
-1.03405
-8.51649
-0.752942
-5.43129
-1.9727
-0.750761
-5.28712
-0.0563371
-1.47629
0
-5.6471
0
0
-1.96613
0
-1.37771
0
0
-1.03345
-3.43744
0
-0.358767
-3.86979
-2.07842
-1.05581
-0.988572
-0.568647
-5.20027
0
-0.581741
-0.238296
-1.04009
0
-2.82069
-0.562956
-3.43617
-2.78725
0
-2.33977
0
-0.784942
0
-2.93591
-4.5474
-2.17874
-1.63515
-10.0432
0
-5.93892
-3.68723
0
-4.05261
-1.1542
-1.4207
-3.14811
0
-3.34448
0
-2.73672
0
0
-0.611488
-4.33506
0
-3.07513
-0.483315
-1.52175
-0.647739
-2.57577
-5.83746
-2.065
-3.98015
0
-3.33392
-0.306743
-0.587368
-1.86126
-0.346833
0
-3.56831
-0.423696
-1.31626
-0.130743
-9.88014
0
-8.59205
-0.666239
-6.77499
-1.25337
-0.514217
-1.58487
0
0
-1.14585
-3.68914
-2.00466
-4.34791
-0.855987
-2.1329
-6.62443
-3.62939
-4.41753
-4.19709
-3.25207
0
-7.6107
-0.731123
-4.45641
-1.37405
-0.656562
-2.01092
-2.69659
-1.87136
-3.74317
-0.960614
0
-3.70409
0
0
-4.94231
-1.95853
-3.29343
-6.60357
-1.89913
-5.95506
-2.50407
0
-3.43196
-0.157728
-2.72996
-1.84697
-9.82973
-0.851369
-1.65732
-6.13282
-3.94154
-7.50241
0
-9.02206
-0.3039
0
-3.26602
0
-2.75773
-8.09449
-1.89047
-8.20352
0
0
-4.37678
-4.80495
0
0
-1.34693
-5.57907
-1.42875
-5.13118
0
-6.21124
0
-1.0711
-5.34121
-3.55468
-7.23209
-0.514588
-0.65024
-2.02134
-3.50422
-0.689975
-2.4173
-0.282626
-2.31457
-2.07732
0
0
0
0
0
-6.06635
-1.04359
0
-1.57038
-2.76389
-0.604302
-0.962366
-1.40173
-3.68803
-0.643778
0
-1.72524
-1.76092
-1.60309
-5.17099
-3.73178
0
0
-0.547915
-4.8929
-4.04249
0
-1.62796
0
-2.07946
-3.45348
0
-3.21521
0
0
-2.59592
-4.76491
-0.28133
-4.75638
-0.704418
-3.9036
0
0
-6.74314
0
-7.47071
-1.70461
-0.923127
-7.71732
-1.28513
-8.13062
-0.0609863
-1.12114
-8.98275
0
-8.08054
0
-3.29164
0
-3.94078
-2.79604
0
-2.63737
-5.82648
0
0
-1.08842
-0.366152
-2.07349
0
-3.03341
-0.31125
-2.9474
0
-7.23572
0
-2.65484
-2.95686
-5.74789
-1.59242
-2.34958
0
-0.906695
-4.70099
-2.30876
-2.43481
-5.13042
0
-0.566236
-1.18877
-2.38336
-0.662741
0
-1.46729
-0.714043
-1.95907
-3.06845
-1.96787
-0.0321178
-6.38518
-1.7791
-3.1228
-3.3058
-2.058
-2.83685
-0.401703
-2.81144
-0.917374
-2.2162
-0.402894
0
-6.42224
-0.191582
0
-0.658471
0
-3.23626
0
-4.53849
0
-1.8163
-3.61187
0
-7.16576
-1.02668
0
0
-1.93429
0
-2.68696
-2.40731
-1.94199
-0.326607
-4.78044
-0.617458
-5.57301
-0.135527
-0.55177
-0.702469
-7.05049
-0.466297
-4.16162
0
-5.77334
0
-6.35087
0
-1.78428
-3.6766
-1.42843
-1.85155
-2.49778
-0.526587
-3.31354
0
0
-0.66712
-3.24583
-0.322003
-1.96041
-4.36319
-1.62322
0
-2.38133
0
-1.99974
-1.48186
-1.36695
0
-1.39236
-6.58673
-0.469757
0
-3.98209
-5.09182
-6.19015
0
-3.35464
-1.33574
-4.98021
0
-0.78528
-0.335052
-3.31309
-0.339172
-7.70081
0
-4.57081
0
0
0
-4.91504
-1.48466
-4.75049
0
-8.32051
-0.478923
-4.01128
-1.43861
-1.94768
-5.47847
-5.3707
0
0
-1.78617
-2.24008
0
-3.76702
0
-0.218023
-4.04569
-0.413878
-0.843587
-3.31788
0
-0.0672693
0
-3.53983
-0.403878
-1.62469
-1.55563
-5.55021
-3.72439
-4.42024
-0.234785
-3.38519
0
0
-0.616571
-6.89517
-3.84439
-6.3151
0
-2.24231
-0.537805
-0.528996
-3.75474
-2.78519
-6.20045
-2.15749
-6.13801
-2.97672
-0.761118
-1.59124
-2.5921
-2.77029
0
-6.87805
0
-4.85832
-0.961827
-2.5892
0
-4.36313
0
-1.83785
-8.58569
0
-6.18107
-2.54298
-3.31173
-8.33465
0
-1.32594
0
0
-4.50384
-5.07126
-1.26498
-1.85782
-4.36726
0
-1.05068
-1.27341
-1.44362
-2.05565
-0.350374
-1.82889
-1.28686
-1.16977
-4.13195
0
-2.43618
0
-2.44022
-1.91359
-7.00487
-1.35581
-0.977256
0
0
-5.63947
-0.852634
-1.30527
0
0
0
0
0
0
0
0
0
0
-0.359472
-0.718595
-7.36688
0
-2.21363
0
-14.1234
-1.05566
-6.42483
0
-1.16118
-3.58403
0
-0.186849
0
-0.399822
0
-6.92969
-2.15328
0
-0.306663
-2.89006
0
-1.07357
-2.67906
-0.140004
-4.10372
-2.52097
-0.254103
0
-0.490806
0
-0.0781046
-4.56606
-3.00596
0
-5.14814
-3.98488
-0.858272
-1.92983
-3.28893
-0.516963
-0.351968
-4.7406
-0.177824
-5.2669
0
-0.175626
0
-1.15846
-2.00209
-0.338303
-6.06531
-4.17819
0
-5.11159
-2.43652
0
-5.00373
-0.894837
-0.0503962
-1.05847
-5.76247
-0.0879097
-2.38319
-4.12639
-3.46375
0
-7.59252
-3.55572
-3.16264
-2.87013
-3.81628
-1.64248
-1.98077
-0.446379
-6.83484
-1.43984
-7.30283
0
-7.25305
-0.399268
-1.98426
-1.82525
0
-1.21276
0
-2.13889
0
0
0
0
-2.64471
0
-3.29119
0
0
0
-0.281366
-3.11846
-3.26136
-0.118738
-0.345519
-2.47733
0
-5.96879
0
-3.70305
-0.368022
-3.87765
-0.110272
-2.98845
0
-1.47911
-0.955922
-3.4615
0
-2.01628
-0.511103
-5.47919
-2.30706
-4.16127
0
-3.2916
-2.1878
-3.09748
0
-6.31522
-1.42433
-2.40361
-6.92682
-0.141131
-2.28401
0
-5.72604
-2.9151
-5.51458
-0.749315
-0.239639
-6.25449
-1.47709
-2.2023
-0.019967
0
-3.94206
0
-7.60741
-4.5549
-5.43271
-9.95587
0
-8.16304
0
-4.97435
-2.92049
0
-2.96755
-0.685566
-5.23117
-1.64573
-6.27468
-1.21079
-0.0987659
-3.0479
0
-8.30843
-1.71768
0
0
-8.47774
-0.347611
-4.30142
-2.5296
-3.92541
-0.380548
0
0
-3.37162
-1.3664
-0.416628
-4.12341
0
-2.11954
-3.96137
-0.69071
-3.18076
-6.61713
0
-4.54079
-1.33003
-3.26406
-2.25633
-4.11769
-1.35936
-2.57167
-2.17274
-7.00951
0
-5.89958
-8.22812
0
-3.65697
-5.27318
-0.597761
-6.89279
-0.291627
-3.53923
0
0
0
-0.746122
-4.81802
-0.470468
-5.72608
0
-3.73979
0
0
-2.09521
0
-7.85095
0
-1.22733
-2.06029
0
-8.81143
0
-0.648871
0
-6.00696
-1.67103
0
-9.92938
0
-7.12231
-1.58885
-4.41306
0
-1.23937
0
-0.752676
-0.876783
-2.15598
-6.56851
-0.77024
0
0
-3.31611
-6.10373
-2.83804
0
0
-6.66955
0
-4.09376
-0.150365
0
-1.07445
-5.13768
-4.54285
-1.001
-3.01321
-2.65181
-5.84038
-1.79643
-1.41441
0
-3.05391
0
-1.81953
-0.272736
-3.59112
-4.66587
-3.32728
-2.59108
-5.05924
0
-7.43253
-0.675175
-8.08447
0
0
-10.3134
-5.4276
-0.36271
-2.7853
-0.217437
-1.53168
0
-4.87236
0
-3.55304
0
0
0
0
-2.14901
-0.827474
0
-1.22749
-1.70039
-5.09371
0
0
0
-0.414623
-9.51267
-0.421426
-8.0095
0
-1.52371
0
-6.9775
-9.70996
0
-4.24539
-5.80176
0
0
-2.32216
-0.727202
-3.50227
-1.85307
-7.28048
0
-1.60686
-4.45615
0
-0.581462
-5.34676
0
0
-1.0854
-7.56267
0
0
0
0
0
0
0
0
0
0
0
0
0
0
0
0
0
0
0
0
0
0
0
0
0
0
0
0
0
0
0
0
0
0
0
0
0
0
0
0
0
0
0
0
0
0
0
0
0
0
0
0
0
0
0
0
0
0
0
0
0
0
0
0
0
0
-0.625583
-0.689734
0.0142375
-0.870895
-0.52284
0.101526
-0.962952
-0.980519
0.131863
-2.05737
0
-1.19987
-1.71133
0
-2.32036
-1.11738
-1.01409
-1.19565
0
-0.651249
-1.00535
0
-1.44632
-0.944274
-0.613648
-1.08809
0
-0.993344
-1.33443
0
-1.20464
-0.417907
0
-1.94384
0
-0.759767
-3.27848
0
-0.544593
-0.647587
-0.527254
-0.413539
0
-2.17053
-0.229082
0
-3.77961
-0.186654
-0.0819598
-1.02329
0
-0.816537
-0.771316
0
-0.2386
-0.57144
-0.361035
-0.839769
0
-3.62061
-0.160397
0
-1.9117
-0.418964
-2.71027
-4.25188
-1.38847
-1.30017
-7.91191
-1.0315
-2.11127
-0.23663
-4.19361
-2.75983
-0.659639
-3.29784
-2.92257
-2.63766
0
-3.29437
-2.04563
-2.11784
-0.0436398
-4.89413
-0.18262
-1.3448
-0.231906
-4.66392
-3.28675
0
0
-3.3442
-2.73928
-3.21153
-0.0500307
-3.11413
-0.79952
-4.8678
-0.546445
-3.3574
-0.528728
0
0
0
0
-2.04666
-0.794329
0
0
-0.477863
-1.4067
-2.5957
0
0
-5.50916
-2.28223
-6.98378
-0.24417
-0.658068
-0.88239
0
-3.46196
0
-4.06871
-2.45316
-1.07836
-3.1197
-5.5859
-2.15583
-3.01701
-2.66283
0
-2.86164
-4.50832
-9.53874
0
-1.34257
-3.10006
-3.19088
-6.40099
-0.157506
-0.570295
0
0
-1.92977
-4.41255
-8.71557
-2.80944
-2.72573
0
-4.007
-1.32842
-8.4764
0
0
-4.28215
0
-1.59225
-5.72893
-2.69283
-4.55749
0
-4.71166
-2.52583
-3.32293
0
-2.07837
0
-5.74178
0
-1.13181
-5.16073
0
-4.3187
-0.0868298
-2.01569
-5.42018
-0.61071
-8.19362
0
0
-3.91608
0
-0.708752
-0.149244
-2.59263
-4.37428
-2.46502
-4.86737
-4.71332
-0.118116
-2.06028
-5.15256
-1.12906
-3.25711
-0.78769
-3.75931
0
0
-0.636014
-2.44145
-0.261246
0
0
-3.8775
-1.85223
-5.71523
-5.77626
-3.16438
-1.48944
0
-2.82328
-2.40506
-0.935937
-1.11581
0
-0.535326
-8.76397
-0.31495
-3.77902
-1.88308
-1.92053
-5.93289
-2.77173
-1.43999
-4.62466
-1.18049
-0.741032
-7.04893
-1.85563
0
0
0
0
0
-1.43346
0
-4.49397
0
-6.66493
-0.984202
-2.31985
-0.20738
-0.527851
-0.469581
-4.84255
-1.08313
-1.63558
-0.101321
-2.82441
-1.87792
-3.33651
0
-1.25199
-2.08872
0
-5.33132
-0.457074
-0.234642
0
-1.7074
-0.0928344
-2.40429
-0.851865
-0.253969
-4.50499
0
-2.75845
-1.80831
-2.4729
-0.795914
-0.102758
-3.0612
-3.37891
-5.28058
-5.15169
0
-0.914973
0
-4.33136
-6.6621
-3.07849
-2.75708
0
0
-0.561133
0
-3.87097
-9.03478
-2.46291
-5.17416
-2.01493
0
-2.53583
-0.499872
-1.77594
0
0
0
-7.27978
-1.13198
-2.64414
0
-3.48306
-1.7191
0
0
-7.95992
-2.85149
-4.29854
0
-0.649675
0
0
0
0
-5.41025
-1.22196
-1.4184
-4.04779
-6.03037
0
-7.26821
0
-7.18384
0
-0.856725
-2.45161
-0.109933
-0.463597
-3.93752
0
-6.41851
-0.155561
-6.52096
0
-2.79536
-2.53314
-3.00415
0
-0.562364
-1.0102
-3.43004
-0.969632
-5.87507
-1.76204
-0.134499
-0.490254
-2.97772
0
-0.503246
0
-8.51688
0
-5.11726
0
-1.27096
0
-2.83735
-0.208588
-1.57578
-2.73575
-2.73658
0
-2.70689
-1.57364
-2.64778
-1.30222
-0.339708
-2.97338
-3.36224
-3.25656
-3.04874
-3.07422
0
-0.177862
0
-3.74785
-10.227
-2.34237
-3.10168
-5.8373
-5.40222
0
-7.04437
0
-4.82242
0
-2.75666
-0.0197739
-3.28658
-0.883966
-3.80986
0
0
-2.16733
-1.62706
-0.779895
-0.0744049
0
-3.79587
-0.0242228
-4.70344
-3.18495
-3.4302
-0.611313
-5.36494
0
-7.24793
0
0
-4.75822
-1.01278
-1.89307
0
-1.9999
-4.18681
0
-2.53687
-2.04443
-4.48265
-0.459153
0
-3.43017
-2.23928
-0.269865
-1.98965
0
-4.93383
0
-7.68649
0
-0.962831
0
-2.73142
-1.17495
0
-2.52683
0
-2.60505
-0.368083
-2.6737
-3.53671
-2.37013
-5.60069
-1.40536
-6.04134
0
-2.27546
-0.482322
-2.51886
0
-4.90168
-0.66351
0
0
-6.77597
-1.76724
-6.2907
0
-2.40445
-1.05641
-2.74997
0
-0.426615
-2.69937
-0.1978
-2.87705
0
-5.06659
-5.20532
-0.662745
-4.93315
-1.80503
-5.88605
-1.5998
-3.0909
0
-0.879694
-1.56852
0
-3.92068
-4.25856
-2.15974
-1.73244
0
-8.05228
-1.1816
-9.15709
0
0
-3.03693
-6.98278
-6.85603
0
-3.8906
-2.70153
-1.07832
-6.08148
-0.0121311
-0.541916
-7.34787
-0.650078
-9.40476
0
-1.4359
-1.51329
-2.36518
0
-4.03512
0
0
-0.943277
-2.60631
0
-0.936514
0
-2.8193
-1.31247
-4.01278
0
-4.7252
0
-11.9685
0
0
0
-0.913041
0
0
-1.61675
-2.54563
-5.74939
-0.202109
-8.23549
-0.431741
-9.632
0
0
-0.0953515
0
0
-1.93699
-0.495414
-0.366611
-1.84536
-0.277161
-3.52851
-1.44187
0
0
-1.75314
0
-7.1749
-2.73001
-2.57538
-0.660278
-0.725851
0
-0.0189447
-0.923667
-0.270496
-0.0762576
-3.60575
-3.12875
-3.46996
-1.21775
-0.893308
-3.71394
-4.03604
0
-1.77311
-1.5835
-3.22089
-2.61611
-2.77495
-0.528891
-2.29449
-0.0531921
-3.61566
0
-0.220805
-1.68491
-2.66104
-2.52189
-3.47503
0
-0.562175
-1.31906
-2.68074
-0.20865
-6.59825
-1.73658
-4.07727
-0.0305193
-4.85622
-2.06898
-3.47563
0
-3.52218
-1.93354
-3.09508
-3.33235
-3.82775
-3.88999
0
-1.49688
-1.1567
0
-4.82651
0
-2.1675
0
-1.45209
-2.69349
-1.78972
-6.33504
0
-4.44133
-3.80379
-5.78528
0
-3.27775
-2.77888
-3.11344
-4.78936
-0.219811
-3.50426
-4.87168
-0.973578
-4.111
0
-0.422994
-1.74687
-0.523368
0
-4.05309
-1.30763
-2.70001
-1.34502
-1.36393
-1.96282
-1.65996
-3.26711
-1.74153
-2.27958
-3.61183
0
-1.96243
-10.7673
-1.7022
-0.0584668
-1.22643
-8.58623
-1.07357
-7.51333
-0.293974
0
-2.42682
-0.846013
-1.31804
0
0
-1.0914
0
-5.85319
-2.01288
-1.86678
0
0
-1.88482
-7.34288
-1.9596
-4.91961
-1.14922
-6.29082
0
-1.40254
-3.07256
-1.73513
-0.566786
-5.23542
0
-0.817146
-0.756561
-8.71276
-0.67451
-4.29045
-3.09037
-4.07548
-3.21761
-5.10582
-2.66246
0
-0.329694
-5.56877
-1.28147
-1.08783
-1.3785
-0.30891
-0.595251
0
0
-0.159009
-1.13815
-7.86529
-6.38649
-3.21769
-5.12935
-1.2058
-1.22376
-2.44521
0
-0.76702
-2.25021
-5.79207
-0.107312
0
-4.02983
0
-2.37917
0
-5.66805
-0.331528
-4.42849
-0.0308879
-0.860333
-1.66492
-3.64654
0
0
-3.40745
0
-1.22764
-2.70635
-5.77109
-1.30446
-6.14383
-0.469689
-4.80727
-2.21292
-5.53842
-3.02539
-0.33256
0
-1.82202
-4.93618
0
-1.6284
-0.406431
0
-0.391952
-2.19529
-0.736787
-1.23734
0
-7.24701
-1.59217
-5.93501
-2.36563
0
-6.02914
-2.10992
0
-5.30916
0
-3.42796
-3.11198
-0.475268
-0.791831
-1.35506
0
0
-2.45257
0
0
-3.00342
0
-3.5206
0
-2.21456
0
-3.00755
0
0
-2.87207
-1.86661
-4.7672
0
-1.40445
-2.04902
-5.39748
0
0
0
-0.483693
-2.04517
-5.51303
0
-4.32417
-5.414
-0.801525
-0.870119
-5.20455
0
-9.03719
-1.40315
-4.89102
0
-6.87614
0
0
-2.61199
-0.310891
-5.15609
0
0
-3.96019
0
-3.96849
-1.55784
-4.29871
0
-2.03576
-7.46457
-1.83487
0
-4.97866
-0.990453
-1.74083
0
-6.4624
-3.43164
0
-0.956819
-0.901502
0
0
0
0
-4.65848
-0.169636
-1.22348
-1.80283
0
-2.54846
-0.794631
-3.78915
-1.39148
0
0
-5.51053
-4.17777
-2.04246
0
-1.81295
-0.50281
-0.501226
0
0
-1.90977
0
-6.96636
0
0
-1.37573
-0.860783
-1.74423
0
-9.38081
-0.471164
-8.64371
0
0
-7.03145
-1.75822
-0.0389707
0
-1.70929
0
-9.56168
0
-2.27416
-0.227423
-4.08004
0
0
-0.653358
-0.832308
-0.283453
-3.96186
-0.295112
-3.86341
-0.151988
0
0
-4.19187
-2.69893
0
-1.1358
-1.3234
-4.26617
0
0
-7.46587
0
-0.2096
0
-5.50576
-0.836338
-8.51081
-0.983124
-3.60134
0
0
-1.66129
-2.51511
-0.360955
-5.40582
-0.323665
-2.85575
-0.964332
-0.0901097
-0.710799
-0.630052
-0.649915
-5.02938
-2.49812
-2.63246
-3.272
-3.47546
-0.292678
0
-4.11417
-7.76251
-3.56118
0
0
0
-1.26122
-0.424208
-3.24508
-7.0927
-5.03654
-5.93032
-3.07273
-4.84739
0
-4.7993
-4.2271
-1.86382
-3.40049
-6.28234
0
-1.92072
-6.57564
-1.5618
-0.506815
-2.22925
-3.80228
0
0
0
0
0
0
0
0
0
0
0
0
0
0
0
0
0
0
0
0
0
0
0
0
0
0
0
0
0
0
0
0
0
0
0
0
0
0
0
0
0
0
0
0
0
0
0
0
0
0
0
0
0
0
0
0
0
0
0
0
0
0
0
0
0
0
0
-0.0689296
0
0
0
0
0
0
0
0
0
0
-0.103305
0
0
0
0
0
0
0
-0.152035
0
-0.0657992
0
0
-0.513877
0
0
0
0
0
0
0
0
0
0
0
0
0
0
0
0
0
0
0
0
0
0
0
0
0
0
0
0
0
0
0
-0.229435
0
0
-0.147589
0
-0.709172
0
-3.31361
-0.433382
0
-0.656445
-9.39099
-0.398093
-1.02067
0
0
0
-2.73027
0
-1.40988
-0.250777
-0.379684
-5.1138
-0.911248
-1.61086
-2.2723
-2.73574
-2.65965
0
-4.89993
-7.19138
0
-1.48689
0
-3.2212
-0.370451
0
0
-3.15554
0
-3.29042
0
-2.11712
-4.23881
-1.25262
-3.9179
-0.543805
-0.576429
0
-3.77189
-0.548065
-3.22495
-2.53742
-1.24968
0
-2.32987
0
0
0
0
-3.53225
0
-0.390618
-4.2114
-1.08779
-6.41534
0
0
-2.62171
-3.22964
-7.50107
-0.705196
-5.72388
0
0
-0.0753259
-2.8741
-1.14147
-0.430808
-2.04442
0
-4.79816
-2.43115
-4.82736
-3.43094
-3.85563
0
0
0
-5.67138
-0.019793
-8.78295
-3.27663
-2.56905
-3.37554
-7.94012
-0.812757
-5.29061
-3.7069
0
-0.889456
-0.896053
-2.65103
-0.591537
-0.449088
0
-1.41205
-0.193898
0
-2.10184
-1.37133
-2.1001
-1.5681
-0.872682
-4.49792
-1.11564
0
-1.40903
0
0
-4.03491
-4.51654
-2.26694
-0.0409558
-1.37528
-2.33519
-5.93846
-0.147554
-0.750077
-1.1127
-1.529
-3.99796
-1.46518
0
-0.166404
-5.13578
-0.565301
-2.27826
-5.01073
-4.82051
-6.21612
-1.45856
-1.17612
-7.4552
0
-3.06739
-0.658347
-0.403134
0
-0.620021
-0.103098
-5.82126
0
-2.08029
0
-2.83553
-3.96102
-6.12447
0
-4.99115
0
-5.93696
-0.117295
-0.162205
0
-1.11749
0
-1.02324
-0.505861
0
0
-3.09111
-1.26068
0
-7.64066
0
-10.8021
-0.0460263
-2.71563
-1.50124
0
0
-9.2738
-1.98708
-2.67683
-2.82252
-2.19277
-3.95667
-4.45631
-0.0623969
-0.540655
0
-3.83057
-0.496717
-5.60897
-4.43057
-5.0459
0
-3.83999
-3.29678
-1.14585
-3.00298
0
-2.05412
-1.06057
-3.27087
0
0
-1.52431
-4.15596
-1.56061
-6.75918
0
-0.405904
-0.210055
0
-0.703945
-7.05071
-2.95393
-4.94851
-1.38488
-1.37064
0
-1.07306
-8.75551
0
-12.2287
-1.57365
-3.09791
0
-3.29449
0
-2.36135
-2.77004
-1.46477
-1.36217
-0.0549745
-2.07717
-1.95656
-3.58246
0
0
-2.42952
0
-2.94418
-0.100596
-5.16034
-0.564957
-2.2258
-1.88082
-3.69839
0
-7.06273
-0.620847
-4.23181
-0.877126
-6.25049
0
-4.85771
-0.51717
0
0
0
-0.400203
-2.33477
0
-3.51193
-0.319001
0
-4.39605
-1.48811
-4.23222
0
-1.45913
-5.91102
-1.30508
0
-4.54346
-0.535151
-3.12308
-1.00861
-3.24451
0
-0.485192
-2.49257
-0.711526
-4.95473
0
0
-0.464647
-1.16669
-5.77307
-0.594253
-2.48518
0
0
-6.47615
0
-8.17926
0
-6.57545
-0.522801
-1.46297
0
-7.98934
-0.584843
-2.29512
-0.555202
-6.7759
-0.886479
-3.33106
0
-1.88659
0
-0.890115
0
-5.45653
-6.6472
-1.30947
-0.933569
0
0
-2.17602
0
-3.38384
0
-1.19361
0
-7.38785
-2.80103
-4.42481
0
0
-3.04709
-3.75962
-3.02668
-2.8418
-0.913758
-3.47163
-1.99446
-2.22445
-4.62241
-3.77756
-1.5764
-3.89772
-6.10741
0
-7.12977
-0.750011
0
-0.363627
-3.70408
0
0
-7.38663
-0.896801
-2.2081
-0.699458
-2.25915
-1.14104
-4.61592
0
-2.0232
-2.68476
-0.0339778
-1.01097
-2.24088
-4.51447
-0.375345
-1.62513
-0.406039
-0.679887
0
-6.90672
-4.02075
-1.84583
-2.43596
-1.20894
-4.59739
0
-2.31399
-3.69019
0
-2.13627
0
-2.08682
-0.250726
0
-2.01236
-2.15019
-1.54536
-6.98042
0
-1.79809
-1.8557
-0.264819
-5.93406
-2.19107
-1.72031
0
0
-2.42011
0
-1.5692
-2.7807
-3.98429
-0.686332
-3.47102
-1.4866
-0.213527
0
-0.397897
-1.25132
0
-3.7385
0
-2.91466
0
-8.63963
-0.186153
-3.37361
0
-0.505179
-0.255798
0
-6.1843
0
0
0
0
0
-7.09253
0
-1.16977
-0.284425
-3.59778
-0.777897
-7.25748
-0.0191387
-1.81204
-6.93177
-4.00843
-2.37547
0
0
-0.0121734
-4.33167
0
-4.42204
-0.900574
0
-0.624957
-5.78746
-3.73252
0
-0.858849
-6.91844
0
-4.09447
-2.16836
-2.75549
-0.246893
-1.36973
0
-0.0433785
-4.43138
-2.35993
-5.56136
0
-1.30339
-1.79665
-4.6976
-1.44709
-1.61068
-4.02879
-0.0821504
-0.956444
0
0
-6.22837
-0.272248
-10.9539
-3.91237
-3.51754
-1.413
-4.74466
0
-5.03783
0
0
-4.53081
-1.42122
-5.12836
-1.06203
0
-1.54505
-1.07861
0
-2.20851
-1.22008
-4.20868
-0.765018
-5.73637
0
-3.4008
0
-0.612064
-5.62444
-0.152565
0
-1.26508
-0.108669
0
-3.56173
0
0
-1.28794
-13.8421
0
-3.10738
-2.05549
-2.831
-4.24703
-0.389039
-1.74261
-1.13892
-1.11284
-0.146111
-1.16717
-2.15012
-1.41461
-0.499137
-0.818217
-0.0836565
0
-4.00151
-1.30468
-0.726675
-0.758228
-2.66488
0
-3.12621
0
-3.1869
0
-0.138534
-1.51189
-8.39811
-0.883163
-9.56789
0
-1.17943
-3.82195
-5.12945
-6.11057
-5.5226
-1.4694
-2.3289
0
0
-5.27149
0
0
-1.58109
0
-0.599583
0
-2.13421
0
-0.20561
-5.49584
-0.51754
-0.0594646
-4.89892
0
-1.62592
-2.74952
0
0
0
-0.445633
-0.204455
-2.48032
-5.38241
-1.45842
0
0
0
-3.48656
-3.08613
0
-7.79128
0
0
0
-1.19162
-1.98543
-2.65867
-4.01775
-2.34959
0
0
-2.0038
-1.11548
-4.52298
-3.98488
0
-1.40885
-3.63411
-4.82897
-6.59857
-0.570821
0
-0.575217
0
-6.41043
0
-1.6511
-3.51583
-1.72563
-5.97383
-2.12686
-1.73222
-4.10134
-10.6377
0
-3.70566
-2.24646
0
0
-4.59798
-3.78526
-4.22066
-1.38131
-6.56349
-1.84929
-5.51564
-1.31768
-1.23433
-2.50232
-2.56019
-1.49173
-4.18811
-2.1832
-6.19914
0
-1.3832
-0.159462
0
-2.22254
0
-5.93417
0
-7.62889
0
-0.252566
-1.03983
-4.04411
-0.78008
0
0
-6.36085
-1.69415
0
-1.77129
-9.10654
-1.83175
-5.28225
0
0
-5.92933
-4.50602
-3.42497
-0.395608
-3.09083
-0.773657
-0.999372
-2.87135
0
0
-1.82093
0
-3.28962
0
-8.28425
-5.21988
-0.579367
-0.12944
-5.83814
0
-4.3469
0
-3.77859
0
0
-1.83251
0
0
-2.83654
0
-4.90145
-1.19931
-1.57752
0
-0.0376204
-1.54415
-1.17749
0
-0.306534
0
-5.85599
-2.78146
-8.7987
-4.24971
-0.590494
-9.25613
0
-5.80597
-0.855038
-1.21667
-2.04738
-4.17135
0
-1.70772
-3.11738
-3.63602
-1.63013
-1.73629
-1.5199
-0.02931
-5.20203
0
-0.665441
-4.40819
-2.08539
-4.51382
-3.44691
0
-1.57699
0
0
0
-5.31087
-0.942314
-0.202211
0
-1.22961
0
-6.12201
0
-7.29357
-3.99709
-3.71634
-2.68123
-2.83115
-3.87431
-5.57798
-4.09956
-6.01464
0
-7.60744
-0.451373
-3.17449
0
-3.32792
0
-1.51964
-2.11798
-4.68482
0
-9.94489
-5.13805
-5.1218
0
-6.31891
-1.48312
0
-6.51049
-2.61652
-6.81565
0
0
-0.190701
-0.927711
-0.728059
0
-2.54337
0
-3.74805
-1.37548
-7.56037
-1.32393
-0.830461
0
0
-0.818607
-2.80039
-3.85639
-0.509136
-5.33975
0
-3.79976
0
-4.01105
-3.8943
-3.24025
-1.32466
-4.39216
-6.88794
-3.15948
-5.03057
-0.915623
-0.642601
-8.56257
-0.623334
0
0
-7.045
0
-2.24509
-1.22134
0
0
-5.95938
-0.598529
-0.811067
-1.69625
-13.339
0
-4.6763
-2.19745
0
0
-5.69147
0
-2.56631
0
-0.0545903
-3.49366
-0.25692
-3.04321
0
-0.0678794
-5.08962
0
-0.748339
-4.7319
-4.56896
0
-0.940313
0
-0.123146
0
0
-3.42874
0
-0.74636
-2.80601
-0.313585
0
-0.348282
0
-3.57841
-0.342597
-2.23601
-0.531229
-2.27774
-1.39249
-3.14661
-0.844689
-1.04378
-3.93213
-1.06509
-10.4748
-2.49592
0
-8.62494
0
-5.28973
-8.89095
0
-8.33306
0
0
0
-6.30034
0
-6.47817
-2.57114
-4.59635
0
-8.106
0
-7.34404
-6.10883
0
-0.406259
-2.66938
-7.59809
0
-2.31393
0
0
0
0
0
0
0
0
0
0
0
0
0
0
0
0
0
0
0
0
0
0
0
0
0
0
0
0
0
0
0
0
0
0
0
0
0
0
0
0
0
0
0
0
0
0
0
0
0
0
0
0
0
0
0
0
0
0
0
0
0
0
0
0
-0.904208
-1.8953
0.0175543
-1.0503
-1.0936
0
-0.799368
-0.649908
-0.0205836
-1.46497
-0.287146
-1.82332
-1.6743
-0.0568962
-0.690245
-1.86003
0.342417
-1.99105
0
-0.758718
-1.46711
0
-0.687816
-0.848672
-0.305676
-1.25945
0
-0.73634
-0.557993
0.0475201
-0.576126
-0.785573
-0.917834
-0.194645
-0.0524119
-3.06945
-0.202073
0
-1.16514
-0.428815
-0.321883
-1.82874
0
-2.44965
-3.6598
0
-2.57445
-2.55324
-1.64719
-0.196661
0
-1.50476
-0.172118
0
-0.966642
-0.0737887
0
-1.87058
0
-0.280336
-1.56086
0
-0.0579342
-1.15546
-0.971041
-5.50351
-0.416308
0
-3.65289
-2.58289
-1.21365
-0.556032
-1.46096
-1.10339
-3.47124
-1.77103
-1.24872
-1.71845
-1.89577
0
0
-2.27034
0
-5.01633
-2.22879
-2.63186
-0.252371
-6.78982
-2.3031
-0.784592
-0.201692
-3.60345
0
-1.49366
-4.98698
-5.25291
-6.01785
0
-4.30688
0
-5.76401
-4.0599
0
-1.15537
-7.9711
0
-6.50544
-0.136326
0
0
-3.61316
0
-2.49105
-1.40289
-5.45938
-4.68696
-1.31977
-8.30926
0
0
-4.26319
-0.140605
-1.58535
0
-1.14512
-3.31217
-6.09462
-4.19773
-6.19157
-4.37834
-2.35538
-0.197743
-4.49698
-2.74319
-2.04064
-0.430113
0
0
-5.59245
-0.934064
-2.1783
-0.305827
0
-1.98186
0
-0.838375
-0.838157
-3.58706
0
-2.83433
0
-0.896833
-6.33984
-4.45532
-0.396678
-1.68008
0
0
-6.46648
-1.05506
0
0
-1.6437
-3.01565
0
-2.86834
-0.445834
-4.71867
-0.231065
-4.41502
-0.717536
-4.05499
0
-2.08588
-1.21377
-2.5661
0
-4.32651
-4.35522
-0.940239
-3.39202
-1.79298
-2.70548
-3.90215
-0.259798
-2.2709
0
-6.3562
-1.70043
-2.57314
-0.0153781
-4.43988
-0.504465
-8.20531
-2.9092
-0.417784
-2.55112
0
-0.660649
-0.279465
-4.55469
-0.250406
-0.108526
-4.5458
0
-0.685384
-3.87768
-5.53234
-4.84778
0
-0.729808
-0.206649
-9.00919
-0.093758
-13.2996
0
-0.340727
-0.479936
-2.98087
0
-1.96316
-4.08072
-1.27199
-12.1232
-4.68777
-2.06941
-1.75622
-2.72161
-0.862314
-6.14732
0
-0.177871
0
-0.969224
-2.50178
-0.292088
0
-6.42301
-1.75151
-0.62185
-2.84643
-0.14014
0
0
-1.03419
-0.0219356
-2.75222
0
-7.79939
-1.9996
-6.9202
-3.11333
-4.35764
0
-0.521798
0
-0.819549
0
-1.36412
-2.42088
-4.57912
0
-3.0794
0
-0.920075
-0.446252
-4.5022
-1.04485
-0.179617
-0.231455
0
0
-4.66945
-3.12699
-11.4932
-1.39537
-1.04874
-0.0485222
0
-1.70964
-2.41404
-1.42596
-2.92136
0
-0.419935
-3.3831
-4.67487
0
-1.86152
-4.59832
0
-0.373276
-0.90686
-4.41019
-1.09505
-2.186
-0.475798
0
-0.371225
-3.74686
-0.970362
0
-1.15344
-2.36901
-3.48046
-1.40407
-4.01986
0
-1.11835
-2.43652
-3.71953
0
-4.81519
0
0
-1.14818
-3.28458
-6.58023
0
-6.51791
-4.47028
-5.66657
-3.02785
-2.22909
-2.51353
-4.82686
-2.58164
-3.15318
0
-2.44232
0
-2.52964
0
-7.1706
-4.57002
-7.07702
0
-1.35903
-1.46782
0
-0.612009
-6.0012
-8.81117
-2.90277
-0.215676
-1.14607
-2.74392
-4.19264
-0.355591
-0.331459
0
0
-0.625671
-1.60368
-5.77923
0
0
0
0
0
-4.96121
-6.961
-6.31663
-2.03116
0
-3.45537
-1.95389
0
-2.74005
0
-8.63087
-0.0513442
0
-5.89465
0
-0.606901
0
-7.36418
-2.16138
-8.76265
-0.628281
-2.6933
0
-6.47937
-1.80309
-3.8782
-0.432692
-5.47073
-2.87869
0
-8.88664
-4.22151
0
0
0
0
-5.79039
-5.54646
0
-5.63349
-2.57805
-5.37384
0
-3.12855
-1.05384
-6.87591
0
-0.355724
-4.63371
0
-0.361748
-2.0833
-3.4342
0
-0.392593
-3.50546
-2.18551
-1.92254
-0.486368
-3.75323
-0.31234
-3.75056
-1.66725
-7.31625
0
-5.07949
-1.48747
-0.183401
-2.49505
-3.09858
-3.07195
-4.86118
0
-0.659904
0
-7.63339
0
0
-4.22946
-12.015
-6.43995
0
-3.86289
-2.34103
-1.53276
-0.951748
-2.29419
-0.440461
-6.92729
-2.46622
-0.994885
-4.99619
-3.16103
-3.88324
0
-0.476261
0
-5.91502
0
-9.81397
0
-3.56295
-1.7077
-1.73337
-1.43456
-1.43942
-0.145775
-1.67862
-2.3575
-4.22645
-2.60503
-5.87885
0
-3.62248
0
-5.43624
0
-1.25297
-1.14302
-5.41811
-1.87798
-5.78162
0
-4.5794
-0.709089
-2.93072
-3.39691
-3.66991
-4.95813
-4.33677
-0.778613
-1.87454
-2.946
-0.221919
-2.97088
-2.38945
-0.645513
-0.854599
-6.3136
0
0
-4.22942
0
-3.64776
0
-0.729261
-5.63455
-1.55355
-0.584773
-2.78457
-1.57327
0
0
-4.79402
-2.0848
-0.277519
-2.19034
-1.54257
-0.9971
-1.85815
-1.69909
-0.0388731
-4.36385
-3.20942
-1.16984
-0.549844
0
-3.02267
-0.463028
0
0
-2.33256
-6.11149
-1.55566
-4.60516
-4.99357
-5.01765
-1.53925
-1.55847
0
-0.493857
-1.95736
-0.128541
-6.06496
-1.73946
-0.683703
-4.79877
-0.356599
-6.60818
-0.145685
-2.38023
0
-5.2962
-3.55415
-4.071
0
-0.294223
-2.2222
-0.0507235
-1.77453
-1.7424
0
0
0
-2.66518
0
0
-3.6072
-0.336151
-0.842165
-10.0245
0
-6.60002
-0.773431
-2.25231
-0.335605
-1.0724
0
-3.85582
0
-1.52323
0
-0.880879
0
-2.94472
-0.693915
-0.670744
0
0
-1.25097
-0.859037
-1.00775
-2.32201
-4.1519
-1.93599
0
-4.6513
-0.787911
-1.63253
0
-1.71143
0
-2.88451
-0.275916
-4.33152
-8.60122
0
0
0
-5.41159
-2.71813
-3.57597
0
0
0
-6.92362
0
-2.30356
-6.53223
-3.30455
-2.39462
-3.73807
-0.618286
-7.8428
-2.335
-5.02439
-0.847066
-0.643713
-2.49924
-2.72641
-2.31407
-2.25666
0
-0.0544534
0
0
0
-5.69331
0
-2.00699
-2.32574
-3.56316
0
-8.75311
-0.680557
-6.34881
-1.02362
-1.59182
-2.68707
-2.39191
-0.648452
0
-8.19658
0
-3.85736
-1.68995
-0.213359
0
-0.64191
-5.59204
-1.02591
-4.40819
0
0
-5.16835
-5.28972
-2.54003
-1.46564
0
0
-12.6652
-4.63531
0
-4.57621
-0.615141
-0.911295
-0.380938
-0.890487
-6.92322
-0.781946
0
-2.36774
-2.14294
0
-0.376571
0
-3.42427
-1.61168
-3.34759
-2.08787
0
-0.104438
-2.54655
-1.85855
0
-3.40521
0
-4.11997
0
0
-0.52883
0
0
0
0
-3.24588
0
0
-3.09968
0
-0.396324
0
-0.163533
0
-5.54762
0
0
-4.11281
-4.16387
-3.05055
-0.244599
-5.18826
-6.47142
-6.58247
0
-7.6858
0
-4.90404
0
-1.29379
0
-6.01386
0
-0.454285
-0.940966
-1.91649
-4.10561
-0.801732
-3.98756
0
-2.30521
-1.14771
-4.5755
0
0
-7.50553
-0.894763
-0.71268
0
-2.94331
0
-5.98437
0
0
0
-5.83806
0
-3.15194
-0.757965
-4.71808
-5.73556
-4.97374
-1.8321
-5.09179
-6.15715
-1.5161
-6.35538
-3.84277
-2.39059
-0.406215
-0.0103208
0
0
-2.41178
-1.88048
-2.70679
-1.34868
-7.03176
-2.65112
-4.10914
-5.11496
-3.14634
-5.71622
0
-1.83919
-1.19322
-5.36441
-3.10934
0
-3.56164
-5.31378
-2.58074
0
-0.748038
-6.39985
-2.92164
-3.91073
-4.76031
-1.34209
-7.91228
-2.14754
-4.0378
0
-4.3112
0
-5.8498
0
-2.03916
-0.159093
0
-2.46025
0
-1.37201
-2.65971
-0.182896
-0.642318
-3.70461
0
0
-0.600199
-0.515531
-2.64294
0
-0.309107
-3.70041
-2.5311
-1.40682
-1.71309
-2.62376
-3.14154
0
-7.47923
-0.931133
0
0
-7.18943
0
0
-3.91159
-1.7139
-5.97709
0
-6.94006
0
-5.89479
0
-5.23416
0
-2.9179
0
-2.45824
-6.30752
-3.70576
-4.19891
0
0
-1.00193
-3.77894
0
-1.02914
-2.25332
-0.59295
0
-5.65776
0
0
-2.68189
0
0
0
-3.92826
0
-1.82348
-0.048674
-2.53111
0
-2.41243
-1.95244
-0.339097
-2.40596
-0.0507221
-4.4567
-3.77091
-2.19232
-3.65028
-0.575645
0
-4.8063
0
-1.17221
-7.49689
-3.35629
-0.791955
-0.529557
-1.02265
0
-1.91309
-4.77957
-2.83313
0
-4.22047
0
0
0
-3.44249
0
0
-5.48727
0
-5.6351
-0.621515
-6.51003
0
-4.17028
0
-4.59203
-1.27092
-9.24248
0
-5.6154
0
-0.481084
0
0
-2.1739
-3.34455
-3.30259
-3.60268
-3.84145
-2.82289
-2.71727
0
0
-1.47011
-3.46109
-0.281304
-4.64694
-1.4663
-1.36341
-2.61895
0
-0.898074
-4.16353
-2.88073
-0.49656
-5.4317
-3.65071
0
-4.00258
-2.269
-0.991265
-5.47111
-3.14245
0
-8.81698
-10.2813
-2.98008
0
-4.60844
-5.14973
0
0
0
0
0
0
0
0
0
0
0
0
0
0
0
0
0
0
0
0
0
0
0
0
0
0
0
0
0
0
0
0
0
0
0
0
0
0
0
0
0
0
0
0
0
0
0
0
0
0
0
0
0
0
0
0
0
0
0
0
0
0
0
0
-1.22982
-1.50698
0
-2.04458
-0.448459
0.0125158
-1.11613
-1.14878
0.135684
-1.96606
0
-0.793183
-1.63656
0
-0.815923
-1.25712
-0.36261
-0.755145
-0.21636
-1.99012
-0.634848
0
-1.56495
-1.1312
-0.167326
-0.894309
0.0209918
-0.7396
-0.736413
0
-1.61541
-0.771507
-0.718969
-4.35255
-1.14517
-1.46128
-3.07881
-0.230961
-0.534352
-1.06831
-1.60864
-0.118294
-0.380308
-3.47459
-0.112634
0
-1.23254
-0.00265388
-0.0459772
-2.6295
0