<?xml version="1.0"?>
<VTKFile type="RectilinearGrid">
<RectilinearGrid WholeExtent="0 32 0 32 0 32" Origin="0 0 0" Spacing="1 1 1">
<Piece Extent="0 32 0 32 0 32">
<PointData>
</PointData>
<Coordinates>
<DataArray type="Float32" format="ascii">
0 0.524874 1.04975 1.57462 2.0995 2.62437 3.14924 3.67412 4.19899 4.72386 5.24874 5.77361 6.29849 6.82336 7.34823 7.87311 8.39798 8.92285 9.44773 9.9726 10.4975 11.0224 11.5472 12.0721 12.597 13.1218 13.6467 14.1716 14.6965 15.2213 15.7462 16.2711 16.796 
</DataArray>
<DataArray type="Float32" format="ascii">
-5.03879 -3.62163 -2.20447 -0.787311 0.629849 2.04701 3.46417 4.88133 6.29849 7.71565 9.1328 10.55 11.9671 13.3843 14.8014 16.2186 17.6358 19.0529 20.4701 21.8872 23.3044 24.7216 26.1387 27.5559 28.973 30.3902 31.8074 33.2245 34.6417 36.0588 37.476 38.8931 40.3103 
</DataArray>
<DataArray type="Float32" format="ascii">
0 0.524874 1.04975 1.57462 2.0995 2.62437 3.14924 3.67412 4.19899 4.72386 5.24874 5.77361 6.29849 6.82336 7.34823 7.87311 8.39798 8.92285 9.44773 9.9726 10.4975 11.0224 11.5472 12.0721 12.597 13.1218 13.6467 14.1716 14.6965 15.2213 15.7462 16.2711 16.796 
</DataArray>
</Coordinates>
<CellData>
<DataArray type="Float32" Name="Scalar" format="ascii">
0
0
0
0
0
0
0
0
0
0
0
0
0
0
0
0
0
0
0
0
0
0
0
0
0
0
0
0
0
0
0
0
0
0
0
0
0
0
0
0
0
0
0
0
0
0
0
0
0
0
0
0
0
0
0
0
0
0
0
0
0
0
0
0
0.0252392
-0.365338
-0.0931274
-0.800504
-0.28896
0
-0.537287
-0.493336
0.0703321
-0.0339514
0
-0.854639
-1.12722
0
-0.603462
-0.744477
0.0518003
-0.38318
0
-0.206849
-0.0813038
0
-1.43059
-0.403229
0.00535476
-0.378938
0
-0.0144224
-0.430801
-0.295509
-0.804877
-0.292566
0.77982
-0.153622
0
-1.29931
-0.568628
0
-1.48618
-0.262866
-0.0171396
-0.918693
0
-1.61063
-0.358867
0
-0.646839
-2.20764
0.0127968
-2.55355
0
-1.84723
-0.263464
0
-0.343444
0
0
-0.0673074
0
-0.116657
-1.51269
0
-0.333368
-1.48544
-0.751392
-1.1703
-1.89442
-1.89278
-2.88939
-0.863918
-5.16813
-6.53024
-7.58848
0
-1.00879
-6.03092
-1.24087
-0.855246
0
0
-1.77286
-3.94231
-1.3274
-3.73134
-3.60494
-1.37668
-2.22706
-9.25882
-2.42679
-10.9283
-0.913358
-6.93202
-0.493077
-7.0167
-2.49589
-3.93763
-6.87131
-1.50754
-0.976235
0
0
-3.3576
-3.2559
0
0
-0.0190998
-5.48883
-5.06829
-1.64881
-2.07391
-1.46204
-1.67799
-4.77312
-2.80135
-1.63895
-2.7431
-5.56368
0
-1.19766
-2.23752
-2.31415
-2.28388
-0.473477
-1.35384
-2.28309
-4.1528
0
0
0
0
-4.45205
-0.062506
-5.51689
0
-6.2352
0
-2.26555
0
0
-0.687554
-1.88359
0
-3.15166
-2.66247
-4.78197
-1.25017
-5.40619
0
0
-5.83764
-1.35992
-5.34222
-0.11386
-0.202537
-2.45776
-2.20963
-5.185
0
-4.26265
-1.24176
-6.68997
-1.19091
-5.21867
-0.0444227
-10.2994
0
-6.6561
0
-10.2845
0
-3.31809
-5.87635
-2.88824
-4.23775
-0.539357
0
-0.140811
-3.60191
0
-5.03207
-1.10597
0
-2.87671
-1.48508
-2.97043
-1.91757
0
-5.15239
0
-2.60462
-1.06031
-2.68343
-3.63372
-5.14646
-1.64458
0
0
-3.41204
-0.258961
-4.95968
-4.07363
-2.3639
-2.28384
0
0
-4.67444
-0.798554
-7.02326
-2.4511
0
-6.26386
0
-2.00312
-2.37291
-3.28124
0
-0.781547
-3.81897
-4.43389
-3.50557
-1.96924
-11.5166
-2.35253
-2.19514
-1.76434
-6.33686
-0.353144
0
-3.97675
-2.33821
0
-0.420548
-1.1856
0
-4.46453
-8.60043
-1.15174
0
-2.28931
-1.20486
-6.6469
-2.09595
-0.670211
-2.26596
-3.4323
-1.85374
-2.23862
-2.58118
-4.36953
0
-3.91362
-1.50842
-3.61884
-0.447173
-2.65921
-2.61575
0
0
-10.4134
-0.554652
-3.99786
-0.0338624
-7.493
-1.82163
0
-2.42049
-1.21466
0
-10.5619
-2.71229
-3.32693
0
-1.31168
-2.25061
-1.22136
-4.00338
-1.9122
-5.2583
0
-1.48997
-4.40458
-0.680097
-3.55162
-8.45466
0
-0.181473
-0.3612
-1.00819
-4.97983
0
-2.19661
0
0
-0.67522
-2.10392
0
-2.44474
-6.87323
0
-9.05485
-0.971323
-0.126935
-4.12844
-2.70487
0
-0.900225
-1.67784
-0.756423
-1.86662
-0.386971
-1.39778
-3.9447
-1.10914
-0.0851938
0
-0.406232
-1.72446
-1.49168
-3.3704
0
-0.530524
-1.92939
-4.74019
-0.58109
0
-9.54477
-3.64731
-3.27194
0
-0.34515
-4.39038
-1.20139
-0.663276
-6.75577
-0.20317
0
-5.25122
-0.539294
-5.32759
-1.88834
-2.05931
-8.48076
0
-7.72493
-0.699388
-2.34445
-2.44054
0
-3.26084
-0.0931774
-7.56075
0
-1.41959
0
-10.5802
-3.35751
0
-0.147336
-0.806494
-3.38446
0
-3.19643
0
-1.67679
-0.613259
-0.574649
0
0
-0.917442
-3.89157
-0.666769
-7.83603
-0.884925
-3.1541
-0.253595
-1.28911
-2.36518
-0.942592
-1.33511
0
-5.13229
-0.210286
0
-3.76244
-5.8168
-3.81005
-1.78934
0
-0.0180633
0
-4.54984
0
0
-3.07868
-0.287277
0
-5.0949
-0.114637
-9.89431
0
-7.19085
-1.1093
-3.55102
-2.42629
0
0
-1.23287
-1.18722
-1.4766
-2.32032
-2.938
-7.90645
-0.103052
-10.6016
-0.44751
-8.69299
0
-2.35347
-1.57552
-1.40873
-2.81311
-7.23606
-4.3986
-2.53024
-6.114
-0.921441
0
-0.395
-0.175646
-1.94159
-2.41238
0
-1.54749
-0.648515
-0.707336
-1.84698
-3.05027
-2.79644
0
-0.396984
-0.243733
-2.53631
0
-6.97113
0
-4.17179
0
-1.68689
-3.78302
-6.65939
-2.14541
0
-1.79713
0
-6.5269
0
0
-0.822693
-1.22134
-0.797364
-0.654194
0
-0.748166
-0.81779
-1.72416
-0.078701
-6.26649
-0.646564
-8.07535
0
-4.7361
-1.21566
-5.64971
0
-2.26366
0
0
0
-5.51108
0
0
-2.42265
-0.0825701
-2.69462
0
-0.0806714
0
-0.50296
-2.23128
-2.36976
-10.2285
-0.281045
-0.0890342
0
-1.70004
0
0
0
-2.19119
-0.419169
-4.43347
-0.0239228
-0.376918
-5.91893
0
-4.91328
0
-1.39831
-1.60218
-4.21682
0
-6.14182
-3.64253
-1.37474
-5.3781
-0.575963
-5.88051
-4.34151
-5.17176
-0.237738
-4.25244
-0.961765
-1.37721
0
-0.949606
0
-1.02576
-0.582082
-2.15569
-2.56122
0
-0.729778
-1.32971
-0.907617
-3.0275
-1.81974
-1.42073
-1.04514
-0.262429
-2.42575
-1.78365
-0.258278
-1.0676
-0.0243564
-3.45261
0
0
-2.08793
0
-8.80707
0
-6.40395
0
-3.64621
-1.20037
-3.10495
0
-5.34144
0
-0.646191
-3.6566
-0.204031
0
-4.1809
-3.77342
0
0
-0.502374
-3.09102
-2.76223
-3.59681
-0.797117
0
-2.79051
-5.88193
-3.75923
-0.882115
-5.00808
0
-13.4764
0
-1.13517
-3.483
-9.59967
-1.23325
-1.53476
-3.18482
0
0
-0.331261
0
-3.50438
-1.30719
-9.09872
-2.44792
-1.27755
-0.655713
-3.42526
-2.50362
-9.65684
0
-7.68769
-2.43517
0
0
-5.11409
0
-5.09156
-5.98766
-3.41292
-1.77731
-2.14055
0
-1.26014
-0.171958
0
0
-0.320053
0
-1.18114
0
-0.637925
-2.59262
-0.620566
0
0
-3.02487
0
-5.16622
0
-1.53482
-2.34778
-1.98673
-0.605208
-2.82189
-1.32254
-1.37792
-0.673911
-4.59613
-1.88433
-2.02379
-0.37004
0
-8.13992
0
0
0
-0.595667
-9.66285
-0.628226
0
-4.91223
-1.07608
-1.18093
0
-0.866077
0
0
-3.14252
-0.947455
0
0
-6.04162
0
0
0
0
-4.96791
-5.67695
-7.27832
-2.34678
-5.8044
-1.7486
-1.8416
0
-1.77703
0
-9.1425
0
0
-2.79707
-1.16727
-1.19147
0
-5.27843
-6.77744
0
-0.478932
-5.39667
0
-4.39797
-1.55658
-0.99538
0
-0.10205
-1.3061
-1.42593
-3.65448
-2.77366
-2.91474
-3.35563
-0.90886
-1.41117
-0.881564
-1.69812
-0.632284
-3.21598
-8.6064
-3.41857
0
-2.86459
0
-5.45052
0
-0.232259
-0.878107
-3.28724
-1.9778
-1.82749
0
-0.674091
0
-3.32578
0
0
-2.34639
-0.298533
0
-1.40353
-4.09397
-1.27394
0
-5.12198
-0.170739
0
-3.04662
-4.81249
0
-0.437585
-1.17193
0
-0.542891
-2.27614
-0.0850788
-1.29764
-0.0204533
-1.67216
0
0
-2.64547
0
-3.33503
-1.78946
-1.60593
-4.22344
-2.3141
-3.04767
0
-3.17887
0
-2.10472
-1.81874
-5.82728
0
-1.34277
0
-9.01201
0
-7.07791
-3.96452
-2.66995
0
-5.30421
0
-3.58488
0
-8.53972
0
-2.13211
-5.80995
-1.80235
-8.10021
0
0
-6.83411
-1.21654
0
-0.210539
0
-6.82653
0
-4.72136
-0.936865
0
-2.04538
0
-7.09002
0
-0.376534
0
0
-2.35553
0
0
-2.45625
0
0
-0.353724
-6.35003
-1.43669
0
0
0
0
0
-1.34141
-0.971852
-4.81178
-3.75515
-1.58759
-2.95668
-1.01624
0
0
-1.02288
0
-6.58953
-4.29059
0
-4.18388
0
-1.81162
0
-0.143252
0
-1.25548
0
-2.61237
0
-2.95438
0
-0.23507
0
-3.10557
-0.594004
-1.14662
-0.423396
-1.37707
-1.24552
0
-2.41283
-1.55925
-4.13382
-1.23753
-2.5126
-4.85597
-1.08278
-4.20819
-0.0623684
-0.797566
-1.72941
-1.66403
-5.86829
-1.38046
-1.39882
-0.0928656
-8.27642
-0.96456
-6.70138
-1.41822
0
-3.60004
0
-4.17342
-7.93734
0
-3.7585
0
-8.33326
0
-6.21097
0
-9.38587
-6.51693
0
-5.21805
-1.29529
-0.629876
-1.74346
-4.30001
0
-2.79204
0
-2.46521
0
-2.03253
-0.866156
0
0
-6.21102
0
-3.30441
0
-6.22045
0
-2.78358
-0.227882
0
-5.73867
0
-5.35518
-0.561983
-1.67555
-4.62794
-3.10367
-0.89305
-4.76665
-0.882737
-0.22858
-0.778565
-3.72344
-1.86129
0
-0.222096
-3.15794
-5.81019
-0.561201
-4.38331
-7.81576
-0.130156
-2.50256
0
-3.13419
0
-3.39162
-3.06879
-4.31264
-4.68109
-1.94995
-3.53557
0
0
-0.408411
-0.374047
-0.309658
-4.60839
-0.982496
-2.54741
-2.18959
-2.47844
-3.16953
0
-3.56403
-0.154144
-3.63144
0
-6.96481
-0.0412373
-8.47339
0
0
0
0
0
0
0
0
0
0
0
0
0
0
0
0
0
0
0
0
0
0
0
0
0
0
0
0
0
0
0
0
0
0
0
0
0
0
0
0
0
0
0
0
0
0
0
0
0
0
0
0
0
0
0
0
0
0
0
0
0
0
0
0
0
-0.47796
-0.729358
0
-1.22463
-1.83321
-0.224517
-1.97279
-0.867935
-1.47062
-1.35094
-0.213395
-0.195857
-2.14346
0
-2.69973
-1.04204
-0.534672
-1.18269
-0.00367426
-1.03722
-1.51755
-0.00936756
-0.962231
-0.715734
-0.312708
-0.776681
0
-1.47549
-1.17131
0
-1.11681
-1.25943
-0.0794337
-1.39673
0
-0.187531
-3.73643
-0.0737202
-0.6703
-0.913607
-0.38138
-0.534442
0
-1.56103
-1.46316
0
-4.15035
0
-0.296906
-2.48269
0
-0.68743
-3.04401
0
-0.0457012
-0.572944
-0.523415
-0.56511
0
-1.17191
-0.705104
0
-2.45856
-0.464986
-3.06145
0
-3.30044
-2.16242
-3.4368
-0.617015
-1.53247
0
-3.1379
-3.00933
-6.58741
0
-2.56869
-1.89804
-2.25344
-2.04276
0
0
-0.878616
0
0
0
-8.69852
-5.44594
0
-6.42038
-0.184078
-7.17972
-0.109177
-6.23536
-1.78516
-3.00899
-0.231915
-0.139589
-2.9441
-5.57936
-4.28033
0
-3.39837
-0.645942
-3.51921
-3.76916
0
-1.15596
-0.0984073
-1.88798
-4.85291
-0.0711502
-1.29696
-1.21772
-5.28808
-1.59653
0
-1.21086
-2.61045
-1.69898
-1.63033
-1.90242
-6.10344
-1.74785
-3.86253
-1.35203
0
-6.42378
-6.52672
-0.990426
-4.04838
-2.62197
-1.64012
0
0
-2.91942
-0.274724
-5.9672
-0.998331
-6.63549
0
-4.70523
-1.08746
0
-1.52982
-0.730284
-0.134632
-5.92021
0
-4.55353
0
-3.4384
0
-1.70719
-1.28081
-2.62577
-0.135384
-4.94959
0
-0.351649
-3.84543
0
-4.70133
-0.71003
-2.57448
0
-0.511598
0
-1.91754
-6.82049
-3.62428
-1.82108
-1.85932
-2.74286
-1.96156
-4.5314
-1.6051
-0.699677
-6.95345
-0.170665
-0.0867455
-6.145
0
-4.03366
-2.29877
-6.59775
-5.16869
-1.93304
0
-2.75899
0
-6.05394
0
0
-4.93497
-5.84371
-7.03178
-0.5658
-2.73067
-2.18289
0
-7.2681
-0.132683
-0.799401
-3.48286
0
-3.36648
-0.321388
-5.51927
-1.50032
-0.965466
-0.863284
-1.53247
-0.517808
-1.06218
-2.75078
-3.02044
-0.104505
-1.10759
0
-6.07895
-0.060381
-0.403252
-0.748299
-0.136286
0
-0.660132
-4.478
0
-5.157
-2.04826
-0.131202
-3.45155
-4.71279
-1.74678
-1.82428
-3.82209
-5.18176
-4.8891
-0.154924
-1.45066
0
-4.32526
-3.38828
-2.81419
-1.09073
-10.8688
0
-2.8617
-10.3156
-0.646508
-5.21104
-0.696106
-4.82632
0
-2.53637
0
-3.86063
0
-2.37712
0
-3.55372
-0.715477
-0.795491
-4.84367
-0.111911
-2.98694
-2.91425
-1.19483
-0.890737
-1.93805
-1.67011
-1.80161
-0.710802
0
-0.0665839
-2.97851
0
-6.60908
-0.942438
0
-2.6983
0
0
-1.04511
-2.83893
-0.117677
-1.70213
-6.40841
0
-5.76065
-3.63974
-13.4987
-7.75915
-0.690648
-1.45774
-1.12232
-4.66685
-0.488717
-1.84193
-1.63764
-9.00107
0
-0.627813
-5.195
-2.12381
-5.60841
-8.72386
0
-7.78576
-2.1722
-0.256628
-1.88013
-4.67204
-5.40164
-0.694941
-3.87211
0
-7.35274
0
-7.36139
-1.53089
0
0
-9.89605
0
-2.30503
0
0
-5.70048
-0.255776
-1.52891
-1.91157
-0.559723
-3.75879
-4.61485
-4.52832
0
-6.86488
0
0
-1.5652
-2.98222
-2.27932
0
0
-1.62956
-2.94406
-2.76124
-1.7774
-1.25456
-4.69613
-0.113381
-4.94634
0
0
-5.69374
-0.332386
-2.74981
-2.3061
0
-1.40034
0
-3.23815
0
0
-2.24538
-3.02781
-1.40325
-2.7841
0
0
-1.19056
-4.11674
-4.17698
-6.17934
0
-3.06338
-2.14269
-2.6303
-3.08046
-2.09925
-1.81564
-0.447585
-0.4759
-2.88075
-0.421908
-3.57989
-2.73308
0
-1.61338
-3.32492
-2.8837
-0.103276
0
-0.528798
-5.38777
-0.808459
-1.68929
-2.58152
-2.37277
-3.39971
-0.0522252
-9.48011
-0.381284
-3.77237
-3.81894
-3.92507
-2.10701
-3.14237
0
-0.622317
0
0
-4.30403
-0.648139
-4.11043
-0.522242
-4.40023
-0.234809
-1.18366
-1.00491
-2.39442
-5.72484
-0.739508
0
-7.45374
-1.85559
-6.2193
-1.29327
-5.61115
-0.111187
-0.752382
-1.13011
-0.165305
-1.52656
0
-1.03769
0
-2.59003
0
0
-1.91872
-2.88255
-3.32517
0
-4.42115
-0.629942
-1.2751
0
0
0
-5.79854
0
-3.85962
-5.17241
-6.68384
0
-7.12642
-0.754101
0
-5.91596
0
-6.91607
0
-7.05034
0
-7.21851
0
-5.30105
-0.724759
-0.362902
-0.40445
0
-3.39533
-0.696688
-6.94917
0
-5.46894
0
-4.4376
0
-2.19956
-7.68169
-6.95909
-3.94783
-6.341
0
-7.1244
0
0
-5.89811
-2.52394
-6.44763
0
-5.73878
-1.14542
-1.3326
-3.28274
-4.08124
-2.34621
-8.1487
-2.16944
-0.844464
0
-5.46242
-2.14624
-2.09295
0
-2.27053
-0.660284
-2.22921
-3.99198
-0.0511002
-3.85789
0
-0.21105
-6.25735
0
-5.91247
0
-3.39743
-1.50068
0
-5.73208
-4.19557
-5.38128
-4.38635
-5.42513
-2.58108
-0.454964
-4.46821
-1.85712
0
-0.0883473
-2.3821
-2.04545
-2.28769
-0.286055
-0.467815
0
-1.50926
-1.77101
-1.18169
-0.872773
-3.49548
-2.23364
0
-2.80105
-0.0561242
-0.561708
0
-4.50105
-5.01989
-2.26825
-2.52782
-1.49346
-4.32679
-1.39514
-7.00783
-3.10248
0
-4.554
-0.449402
-1.77543
-8.52855
-4.51537
-3.90168
-5.69252
0
0
-0.527573
-4.50194
0
-0.919802
-0.389001
-3.85708
-1.46283
-4.30276
0
0
-7.28055
0
0
-0.406671
-3.93962
-2.13899
-6.229
-4.13205
-6.46552
-1.05651
-4.78269
0
-2.57887
0
-3.93895
0
-8.11825
-0.0699237
-0.494699
-0.103533
-6.6709
0
-14.0081
0
-1.94925
-0.799621
0
0
-0.909865
0
-0.209411
-3.96998
-4.73228
-4.38028
0
-3.9757
-6.10342
-2.4278
-9.05041
-1.09672
-8.12516
0
-3.47624
-7.2278
-0.36415
-4.36554
-0.809805
-5.01331
-1.5695
-4.83644
-0.487693
-5.04289
-1.04883
-4.35021
0
-2.95089
-1.26395
0
-5.62674
0
-1.85939
0
0
-4.0473
-0.209204
-6.52701
0
0
-3.79194
-3.78113
-2.88452
-1.36667
-8.76818
-12.1236
-6.16714
-7.96301
-1.68046
-4.81726
-1.50749
-0.584511
-3.49664
-0.972155
-3.30156
-1.77024
-1.36995
-1.06994
-3.81654
0
-2.60265
0
0
0
-0.547206
-0.700102
-3.99675
-1.91429
0
-5.76252
-1.08562
-3.09147
0
-5.16377
-6.72936
-0.179054
-0.768705
-1.93363
-2.87197
-1.20006
-5.56258
0
-1.781
-5.95382
-1.48012
0
-4.00827
0
-3.24555
-0.846058
-0.520431
-1.61152
0
-2.33494
-2.77237
-1.2845
-4.47951
-0.242557
0
-2.3754
-1.15708
-3.31491
-0.726544
0
0
-4.44031
-1.3602
-1.96324
0
-3.54489
-1.03529
-3.38299
-0.0902456
-1.33194
-2.67477
-1.47884
-5.26086
-3.43115
-1.46723
-0.477128
0
0
-0.683706
-0.494257
-0.314333
-2.53449
-0.405853
0
0
0
-3.45028
-0.213522
-3.75235
-1.51315
-4.22603
-1.75922
-2.96068
-3.77864
-5.90153
0
-4.33789
0
-1.74808
0
-3.70715
-0.333146
-4.11008
-0.238171
-1.38352
-2.74649
-1.12482
0
-0.635831
0
-3.93264
-1.5608
-5.58394
-2.46887
0
-5.15508
0
-5.5658
0
-3.43825
-1.56586
-3.78281
-1.22507
-2.75054
-1.36175
-3.60071
-2.74736
-3.15773
0
-1.55251
-4.14876
-0.300535
-2.1735
-0.449034
-7.92854
-0.858446
-1.8352
0
0
-0.153259
0
-4.55134
0
-5.47274
-0.892822
-2.65685
0
0
0
-6.04778
-0.428447
-3.94362
0
-2.79693
-1.80361
-0.914537
0
-7.25542
0
-5.77016
-0.286522
-8.9022
-2.79387
-2.20746
-0.289665
-0.683524
-0.901412
-0.0631586
-6.40721
-0.51054
-0.0483514
-8.02878
-2.02515
-1.29159
-1.87229
0
-2.96206
0
-5.50075
-6.68235
-7.46307
0
-8.83123
0
-4.7396
0
-2.84922
-2.31961
-1.76549
-5.78091
-1.54775
0
-3.56682
0
-1.06286
-4.39802
-7.07092
-1.07867
-9.00982
-1.16903
-5.44899
-1.74317
-5.71669
0
-4.29833
-0.52122
-1.33169
-0.769482
-3.26399
0
-1.84483
-1.73544
-4.73236
-0.662758
-0.272154
0
-3.69286
0
-2.29663
-5.76956
-0.957879
-0.0489125
0
-2.12246
0
-0.403028
-1.07314
-4.27445
-1.31951
-0.353967
0
-1.89942
-4.28992
-1.49628
-4.9192
-2.72792
-0.501881
-3.48114
-3.03721
0
-1.88775
0
-1.23081
-3.06888
0
0
-0.882007
-0.241017
-5.28044
0
-1.71581
-0.117853
-4.24479
-3.25822
-2.71862
0
0
-3.43101
0
-3.49405
-1.64332
0
0
0
0
-0.405511
-2.19828
0
-5.22455
-1.59757
-7.80491
0
0
-0.14152
0
-0.59219
-0.274348
-0.962831
-3.58465
-0.482798
-6.42193
-0.189468
-4.21362
0
0
-1.14319
-0.647593
-10.7745
-0.484891
-4.91595
-10.2736
-0.341784
-7.71846
0
-8.50954
-3.38206
-1.13773
-5.74193
-1.58071
-4.71564
-1.9964
-1.64942
-3.1411
-1.53826
0
-2.77143
-1.17129
0
0
0
0
0
0
0
0
0
0
0
0
0
0
0
0
0
0
0
0
0
0
0
0
0
0
0
0
0
0
0
0
0
0
0
0
0
0
0
0
0
0
0
0
0
0
0
0
0
0
0
0
0
0
0
0
0
0
0
0
0
0
0
0
0
0
0
0
0
0
0
0
0
0
0
0
0
0
-0.0153927
-0.547437
-0.283953
-0.267812
0
0
0
0
-0.380791
-0.00712784
-0.0815653
0
0
-0.00997433
0
0
-0.0112133
0
0
0
0
0
0
0
0
0
0
-0.110887
0
-0.0765317
0
0
0
0
0
0
0
-0.660471
0
0
0
0
0
0
0
0
0
0
0
0
-0.252766
-1.82329
-0.0481134
-0.49212
-1.57596
-1.96997
-1.41594
0
-5.00237
-2.15123
0
-4.93097
-2.4688
-0.0545443
0
-4.2012
-2.25954
-4.18343
-1.08812
-1.14061
-4.24565
-3.5958
0
-2.73687
-0.666204
-3.27975
0
-0.278606
-2.7296
0
-4.54597
-1.84993
0
-8.72607
0
-2.07692
0
-0.94491
-2.29461
0
-0.122094
-0.245669
-0.137562
-5.46275
-2.54603
0
0
0
-0.764533
0
-1.12957
-0.790094
-6.26645
0
0
-3.60923
-0.238541
0
-1.00141
0
0
-4.22254
-3.70735
-4.01729
-0.203828
0
0
-6.04767
-0.480992
-6.21995
-1.84255
-5.96324
0
-4.55096
-1.91184
-2.01852
-1.21236
0
0
-7.2562
-2.02866
-2.7674
-0.466642
0
0
-4.77031
-1.81165
-4.4796
-6.43893
-0.949348
-0.602328
0
-0.740366
-2.67321
-0.0665941
0
-0.750586
-2.24885
-1.58832
0
-1.46592
-5.41483
-5.96735
-0.976404
-7.06051
0
-0.588752
-6.36784
0
-9.43064
0
-0.95023
-1.69514
-1.49139
0
-1.01846
-3.15665
-1.80438
-2.77162
-4.94415
-1.14194
-1.49302
-0.522924
-1.18413
-3.12352
-0.771686
-2.24178
-7.34848
-8.15267
0
-4.32114
0
-0.0824506
-3.05447
-2.66296
-2.69357
-1.69863
-1.41275
-1.53073
-3.6584
0
-1.56381
-0.957674
-2.84984
-0.484801
-1.74263
-3.16344
-0.413314
-4.07366
-0.941216
-7.20997
-5.17356
0
-7.17559
-2.82793
-3.52302
-3.05901
0
-5.36712
-0.335066
-3.33095
-0.875126
-3.01768
0
-1.08036
-1.10544
0
-4.92043
0
-0.842591
-4.09022
0
-1.12402
-3.44914
-0.979121
-1.23774
0
0
-4.33478
0
0
-4.44655
-0.00876867
-1.23053
-2.75583
0
0
-4.10067
0
-1.25293
0
-1.85542
-2.75159
-0.338276
-0.823749
-5.09556
-0.169388
-3.11771
-1.22986
-9.13645
-1.11547
-5.63755
0
0
-2.87979
-1.86226
-1.01377
-0.873443
-0.609185
-1.9575
-4.32939
-1.18265
-2.55111
0
0
0
-5.65518
0
-0.619661
-5.52885
0
-1.74764
0
-6.79042
-0.998285
-2.07
-4.40865
-0.631854
0
-0.470173
0
-6.09142
-3.58374
-3.03564
-1.07153
-7.16898
-2.75859
0
-2.11153
-3.35406
-3.52163
-1.5174
-3.47051
0
-2.69356
-1.6897
0
-6.1258
-0.783782
-1.74744
0
-4.14827
0
-6.67301
0
-3.39146
-0.157253
-3.71657
-5.29351
0
0
-9.19599
0
-6.78091
-0.846738
-3.0492
-3.23953
0
0
-8.00866
-3.30929
-2.01352
-3.62954
-0.825105
-0.57916
-5.8099
-2.68387
-1.12393
0
-7.41582
0
0
-5.35285
-3.07908
-6.10472
-3.50411
-1.12099
-2.7421
-1.81245
-1.70478
-5.22368
0
-0.104252
0
-2.09637
-0.61196
-4.98908
-0.911597
-5.46005
-3.56011
-7.06488
-1.15912
0
0
-3.65982
-1.27839
-6.71317
-0.77911
-1.12662
-5.75993
0
0
0
0
-0.646661
-4.99638
-0.133183
-5.90828
-3.10975
-8.47569
-3.18241
-0.905454
-1.35395
-1.14016
-1.88824
-4.36415
0
0
0
-3.56174
-4.33038
0
0
-3.36077
-2.04816
0
0
-1.34869
-2.31915
0
-2.32218
-9.81982
0
-5.36136
-0.45406
-1.2908
-2.48339
-2.55037
-3.97994
0
-2.72532
-2.30181
-2.21384
-1.21754
-6.72727
0
-4.23976
-0.49105
-1.95164
0
0
-3.93826
0
0
-0.47903
-3.1095
-0.205433
-1.28882
0
-2.24025
0
-3.02974
-2.77546
0
-0.824135
-9.19618
0
-6.50409
-0.630267
-3.61126
-5.6651
0
-1.65795
-0.81282
-3.77033
0
-4.46238
-1.46829
0
-2.44255
-4.90511
0
0
0
-2.94743
-3.92773
-1.18076
-0.174925
-0.978597
0
0
-3.01059
0
-0.665481
0
-2.06336
0
-8.45693
-2.35112
-4.82925
-3.32064
-2.00182
0
-0.966638
-5.24076
0
-0.633106
-2.96615
-2.73075
0
-0.938485
-6.41395
-0.42959
0
-6.50671
-1.72986
-0.174493
0
-0.432055
0
-1.22016
0
0
0
-0.10721
-0.125044
-3.19553
-0.235116
0
-2.98751
-0.270047
-0.475658
-0.850218
-5.62448
-1.78273
-1.02292
-0.283698
-2.32998
-0.0610759
-3.88152
0
-0.431929
-5.08026
-0.221857
0
0
0
0
-3.81695
-6.62171
0
0
-1.80871
-1.64537
-0.366649
-3.85783
-0.266651
-0.362357
-3.23565
-0.23011
-1.43717
-2.67139
0
-1.79555
-4.6674
0
-6.23217
0
0
-0.437528
-1.63672
0
-6.90061
-0.578476
-1.17785
-1.70442
-2.28343
-2.46068
-0.921092
0
-1.87488
0
-3.64534
0
0
0
-0.0647332
-4.02411
0
0
-1.38201
0
-1.75351
-2.10477
-4.44505
-3.8867
-1.79716
-1.17687
-2.72029
-2.42588
-1.67716
-1.056
-1.57267
0
-2.75743
-5.90945
-0.036172
-0.0182455
0
-6.18042
-0.232659
-0.531948
-4.20911
0
0
0
-4.43739
0
-7.95921
-3.78325
-3.11792
-1.10533
-4.34211
0
-4.61438
-0.464562
-1.40818
-0.901204
0
-1.00332
-0.763163
-1.88836
-1.229
-3.88141
-0.466502
-4.54667
-0.0752263
-0.896802
0
0
-3.19979
0
-3.96439
0
0
-1.90488
-0.87483
-4.55986
-0.386381
-5.10113
0
-1.07793
-1.16176
-1.13089
-8.39747
-4.75361
-0.482488
-3.52292
-1.42536
-2.09681
0
-2.91147
-1.64906
-0.0602136
-1.51935
-0.293055
0
-2.56748
0
-3.78202
-0.467493
0
0
-1.72436
-5.28786
-4.05233
0
-5.77988
-0.415064
0
0
0
0
-0.437535
-3.67211
-0.311745
0
-0.210023
-3.54954
-0.260938
-0.2627
-2.23097
-1.89811
-0.560426
0
-6.37107
-0.677156
-4.48314
-2.2964
-2.87152
-11.1613
-1.121
-3.5379
-0.720656
-9.73913
0
-2.44441
-6.01105
-2.59736
0
-4.02575
-1.93042
-1.16616
-0.323979
-3.7455
-1.13897
-6.58214
-0.73982
-1.64687
-2.21028
-2.78542
0
-5.27585
-0.989579
-4.89814
0
-2.00506
0
0
-2.13806
-2.28529
0
-0.803503
-0.807697
-1.7923
-2.25909
-1.60773
-4.45333
-8.28119
-2.60378
-0.998853
-2.6069
-1.29232
-3.15816
-2.52456
0
-4.92366
-1.01872
-2.72861
-2.22518
0
-0.00988998
0
-0.181256
-3.31882
-1.0431
-3.07901
-2.26268
-3.56765
-5.2129
-0.865104
-0.0954396
-0.258113
-4.24265
-2.94431
-0.239824
-2.63655
-5.38677
-0.663076
0
-1.68625
-4.94668
-1.41752
-0.234682
-1.71353
-2.43541
-2.75396
-4.59239
-0.31516
-3.36607
0
-4.20831
0
-6.99325
0
-6.41417
-3.97259
-4.1265
-5.29623
-0.970808
-0.464287
0
0
-7.52875
-2.77481
0
0
-4.50555
-1.03102
-6.84048
0
-2.11455
-3.59555
-0.116452
-3.41354
0
-5.6621
-5.9514
-2.61737
0
-4.59578
-3.96548
-3.78931
-2.23469
-1.78654
-0.859102
-3.24757
-2.46483
-7.97336
-1.74186
-0.985154
0
-5.23148
-1.44545
0
0
-2.29302
-2.74765
0
0
0
-0.926749
-0.324111
0
-4.28503
-0.275629
0
0
0
0
0
-1.51985
-2.13084
-6.29531
0
-5.76077
-1.36654
-5.47872
0
-9.75701
0
0
0
0
-3.96779
0
0
-1.50446
-0.922978
0
0
0
0
-3.22571
-1.8352
-0.16976
-0.578212
-1.2118
-1.35471
-1.85478
-4.62017
0
-3.32618
0
-0.0109597
0
0
-0.686953
-10.9883
0
-2.36201
0
-7.43243
-2.74325
-3.31863
-6.35144
-0.0964969
-0.678428
-0.128669
0
-1.67333
-0.780351
-1.73662
-4.507
-2.64847
-0.90189
-2.43396
-0.075185
0
-1.82156
-4.87854
0
-1.45683
-0.842066
-3.57131
-2.96785
0
-0.735971
-0.492738
-1.04413
0
-3.465
-3.35724
-2.1557
-2.50479
-0.0347371
-0.763208
0
-4.89084
-0.190953
-3.65806
0
-2.34336
-1.20148
-7.19929
-4.44377
-3.36377
-0.349686
-5.50619
0
-3.44223
-1.84441
-3.30933
0
-5.44236
0
-3.46717
0
-2.00721
-3.99026
-1.57985
-6.58366
-0.39943
-9.65317
-1.21388
-0.556268
0
-5.33738
-3.27417
0
-1.30516
-5.0161
-1.39977
-3.09853
-6.32401
-0.467916
-1.00499
0
-3.87516
0
-3.41143
-4.88046
0
-5.54509
-2.29802
-3.69105
-3.77861
-1.6183
-6.35952
-0.0788865
-1.71716
-1.43696
0
-2.92023
0
-3.27014
-1.98256
-4.16833
-2.66031
-3.93858
-0.432017
-3.39266
-2.73521
-2.49779
-3.57283
-1.34838
0
0
0
0
0
0
0
0
0
0
0
0
0
0
0
0
0
0
0
0
0
0
0
0
0
0
0
0
0
0
0
0
0
0
0
0
0
0
0
0
0
0
0
0
0
0
0
0
0
0
0
0
0
0
0
0
0
0
0
0
0
0
0
0
-0.68415
-1.5816
0
-1.97682
-0.783468
0
-0.70996
-0.681326
-0.471046
-1.63152
0
-1.37732
-0.159472
0.070274
-1.23845
-1.05862
-0.256265
-1.23536
0
-1.01342
-1.48046
0
-0.759026
-0.769019
-0.275314
-1.53276
0
-0.800512
-1.11721
0
-1.92369
-0.543948
-0.732314
-1.13959
0
-1.04463
-1.03261
0
-2.59931
-0.745457
0
-1.17043
0
-0.12398
-1.98233
-0.129546
-0.0250915
-1.16606
-1.01205
-0.598153
-0.301836
-3.62546
-4.20629
-1.65917
-4.967
-0.00458556
-0.0400754
-1.77981
0
-2.94217
-2.36526
0
0
-1.09231
-1.35721
-6.72711
-0.0333706
-1.16143
-0.616023
-1.3328
-2.64177
-4.96466
-2.25528
-1.77772
-0.611813
-1.88159
-0.239578
-5.60756
-1.62732
0
0
-2.50251
-2.77301
0
-2.19054
0
-3.08314
-2.96615
-6.72629
-1.197
-9.41698
-5.49155
-6.8004
-2.02645
-3.38973
-3.57239
-0.108232
0
-2.82985
-4.06182
-2.17728
-1.43773
0
0
-3.42511
0
-1.80007
0
-0.619064
-6.32888
-2.28399
-1.98764
-3.76181
0
-4.79524
-2.31524
-1.6643
-0.947968
-5.17959
-0.173795
-1.04235
-2.99917
-0.713247
-3.74838
-1.0588
-0.570909
-0.0931585
-1.15508
-3.06715
-0.238408
-6.0792
0
0
-1.98671
-0.16433
-0.654257
0
-0.568169
-0.309368
-0.0995164
-5.65462
0
-4.23127
-0.285915
-3.29148
-1.5285
-0.717714
-4.57249
-2.74868
-5.96221
0
-0.899723
-0.649483
-2.67636
-6.72003
-3.03201
-1.61304
0
-1.6294
-1.42586
-0.897429
-0.682787
-0.443281
-4.01327
0
0
-3.05223
0
-0.042251
-4.88434
-2.35634
0
-1.07326
-5.30411
-2.11361
-4.71098
0
-1.84271
0
-3.20813
-1.61446
-3.46882
-2.47172
-4.27247
-2.67801
-2.94694
-2.46976
-4.77552
-2.70239
-10.7028
-0.5497
-4.88852
-0.501629
-0.233933
-2.76169
-2.08169
-3.28866
-5.08101
-2.37442
-3.41894
0
0
0
-5.09162
0
0
-1.79408
0
-4.839
-0.500344
-3.94253
-2.67482
-0.756085
0
-0.470533
-0.198913
0
0
-2.18409
0
-4.19448
0
0
0
-0.813836
-1.87159
-4.03096
-0.573547
-3.98396
-2.53566
-7.01442
-1.26871
0
0
0
-1.28087
-0.109844
-1.30604
-1.91481
0
-6.76329
-1.20957
-2.3803
-4.18693
-0.84002
-5.39601
0
-3.45916
0
-5.36697
-2.86742
-1.8824
-4.4755
-5.61813
-0.497648
-3.78372
-1.41358
-10.958
-0.603567
-3.61014
0
-8.44917
0
0
-0.809091
0
-0.206502
-6.9175
-1.44064
-3.24908
-2.58404
-6.01926
-3.31123
0
-1.05997
0
-4.62043
0
-3.34818
-0.106566
-0.710005
-8.29327
-1.95493
-2.08536
-3.69485
-2.38959
-4.13458
0
-1.26813
-5.6503
-0.465352
-4.18985
-3.39485
-6.95199
-6.31584
0
-3.27312
-4.69571
-6.19648
-7.35346
0
-5.46281
-3.15446
-1.98599
-6.40062
-1.4885
-4.16684
-0.750087
0
0
0
-5.50952
0
-3.02556
0
-3.07356
0
-1.77963
0
-9.78166
-4.70771
-0.0712883
0
-2.56436
-3.08646
-1.60223
-0.592869
-2.18299
0
-5.22026
-0.753436
-7.22643
-1.72415
-5.42822
0
-6.87309
0
-4.79932
-1.27028
0
-6.30548
0
-2.36464
0
-2.77454
-5.62597
0
0
-1.39012
-4.73965
-2.17706
0
-5.90261
0
-7.46554
0
-3.947
-0.123823
-3.50052
-1.11592
0
-0.481633
0
0
-1.82199
0
-7.33148
-0.381232
-3.14888
-2.22377
-1.85363
0
-3.55047
-0.223471
0
-5.07826
-1.19312
-9.89468
-1.5593
-0.464369
-5.15899
-1.15641
-0.176788
-0.834749
-1.44095
-2.84234
-0.740268
0
-4.27512
0
-3.27176
-1.17438
-4.02889
-0.0231129
-3.76779
-2.00027
-6.95887
-1.94501
-1.85926
-3.8161
-5.81074
-0.480974
-2.68145
-8.19278
-4.92276
-0.255108
-0.611232
-3.40222
0
-8.71478
0
-1.92746
-1.04415
0
-4.173
-0.965998
-7.78309
0
-1.77125
0
0
0
0
-7.06525
0
-1.5574
0
-5.94142
0
-0.640414
-4.64583
0
-7.75524
0
-6.8467
-1.47371
-1.89374
-4.84684
-2.07869
-0.0671097
0
-8.63995
0
-2.6883
-1.13434
0
-6.61161
-1.83222
0
-5.92858
-0.945313
-0.708362
-3.62115
0
0
-6.68367
-2.48405
-3.45465
-1.9404
-2.25865
-0.407666
-3.77828
-4.95323
0
-6.30577
0
-5.93108
-0.588931
-4.10867
0
-0.615235
-6.99027
-0.0347407
0
-0.764346
-0.605016
-5.05841
-0.0777299
0
0
-0.633479
0
-0.365615
-5.42235
-1.67503
-2.35333
0
-11.5195
0
0
-3.92092
0
-9.78619
0
-5.40742
0
-8.14412
0
-8.13687
-5.11037
0
-3.86221
-0.37133
-0.29353
-0.960751
-5.40304
-0.69812
-1.08644
-2.33433
0
0
-6.96545
-0.75218
-1.54845
-0.387784
0
0
-1.75987
-3.34206
-2.76208
-4.35929
-4.62432
-1.03587
0
-6.41048
-2.40307
-9.39288
-0.119228
-8.70315
-0.154992
-3.20143
-0.214752
0
-1.08278
-5.0986
0
-6.94535
0
0
0
0
0
-6.9288
-4.43212
-1.23037
-3.66024
-1.70663
-1.21297
-0.549571
0
0
-4.2377
-5.30032
-0.709833
0
-1.611
-1.82341
-2.16856
-0.557305
-5.19653
0
0
-3.70731
-1.87265
-1.39472
-0.403321
-4.42111
-3.72673
0
-0.729215
0
-4.47133
-1.93977
-1.73906
-0.309347
-0.263558
-3.16383
-4.41506
-1.38733
-1.4363
-2.03869
-4.20594
-2.03186
-0.4379
-4.60479
-3.38551
-2.13016
0
-6.51195
-1.84166
-3.31106
-0.364095
-6.58022
0
-3.50538
0
0
-6.81137
-0.376834
-2.24851
-0.16316
-0.837506
-5.18597
-0.549347
-3.963
0
-5.58104
-0.206927
-3.81048
-3.11009
-1.33793
-1.87314
-0.946231
-7.89965
-1.41227
0
-2.55394
-0.262326
-9.88898
0
-2.2172
0
-0.66827
-2.08354
-0.314805
-6.91131
-3.7742
-3.84373
0
-1.10456
0
-2.49755
-1.01472
-2.59409
-2.89453
-2.30314
0
-4.85681
-0.230902
-7.56518
-0.26743
-1.12908
-0.0310879
-7.38259
0
-8.35771
0
-6.24552
-0.463874
0
-3.1201
-4.07761
0
-7.82749
-0.530442
-3.28334
-0.886372
-2.58524
-0.0784293
-0.504343
-4.78736
-0.810496
-1.4733
-1.50396
-2.98001
-1.00442
-0.668886
-4.34764
-4.81807
-1.27419
-2.94788
-0.429872
-4.36175
-1.39496
0
0
0
-1.49531
0
-0.50966
-2.91948
-3.7783
-0.0377062
-8.7873
0
0
-6.92958
-2.50082
-6.24896
-0.198459
0
-2.02469
-3.6655
-0.954618
-4.57682
0
-2.38901
0
-4.45031
-0.677375
0
0
-3.53234
0
0
-6.91318
0
-3.90085
-2.6092
0
-2.83546
0
-0.91759
-0.215459
-3.54584
-1.30929
-0.288583
-0.530266
-2.32274
0
-1.17956
-1.84035
-2.37707
-3.71662
-2.42028
-4.67752
0
0
-2.17125
-2.67477
-0.244279
-0.762292
-0.604864
0
0
-7.90175
0
0
-0.296741
-2.53475
0
0
-1.68225
-3.55646
0
-0.412337
-2.94965
-2.32368
-3.99165
-1.41574
0
0
0
-1.67473
-0.323483
-3.47924
0
0
-3.00304
-0.815723
-0.940188
-2.75118
-0.452648
-3.1333
-2.77734
-2.93355
0
0
-0.797269
0
0
-2.87242
0
-1.94458
-2.80126
-0.200217
-7.65557
-0.103226
-0.738844
-1.48824
-5.46513
0
-5.76198
0
-8.18509
0
-6.28115
0
-0.727627
-2.78428
0
-0.346978
0
0
-2.58005
-1.99211
0
-2.68541
-2.30786
-1.71938
0
-6.13754
0
-3.0535
0
-3.17577
-1.27478
-7.10216
0
-2.16238
-0.802923
-5.11171
-0.402746
-7.04586
0
-5.46307
-2.58654
0
-4.41578
0
0
-3.879
-0.885105
0
-7.58701
0
-8.35444
-0.472549
-3.0362
0
-8.72873
0
-1.52614
-2.84493
-1.51067
-5.43695
0
-2.75247
-3.42993
-2.84714
-3.41367
-0.255772
-6.99144
-3.26849
-0.909927
-2.45515
-5.28514
0
-10.0394
-5.94641
-9.54676
0
0
-0.0649641
-8.32366
0
-0.791746
0
0
0
0
-5.44066
-0.761555
-4.24921
0
-0.588532
-5.03111
0
-1.08044
0
-0.0929194
-2.37816
-2.03205
-0.880243
0
-1.3818
-3.32887
-3.44539
0
-3.53947
0
0
0
-8.69632
0
-3.12872
0
0
-1.04581
-0.614956
0
0
-3.83653
-4.16977
-0.32258
-7.18411
0
0
-0.255764
-0.834707
-3.09662
0
0
-4.07164
-1.18269
0
-5.10744
0
-4.51384
0
-1.41805
-2.44943
0
-0.537416
0
-0.990946
0
0
0
-5.91795
-1.68302
-0.794461
-1.34603
-0.234975
-3.6063
0
0
0
0
-2.22054
-9.61717
-1.86412
0
-7.34818
-0.23776
-2.23834
-1.79969
-2.91751
0
-4.3981
-0.185403
-2.33012
0
-5.56686
-4.30962
-2.06246
-4.54023
-1.78785
-4.64536
0
-5.18938
-0.764975
-3.46084
-0.243439
-3.75661
-0.438226
-5.59951
-2.91855
0
-1.49214
0
0
0
0
0
0
0
0
0
0
0
0
0
0
0
0
0
0
0
0
0
0
0
0
0
0
0
0
0
0
0
0
0
0
0
0
0
0
0
0
0
0
0
0
0
0
0
0
0
0
0
0
0
0
0
0
0
0
0
0
0
0
0
0
-0.304429
-1.52823
0
-1.04131
-0.903191
0
-0.733555
-0.693623
-0.481113
-0.525796
-0.0462598
-1.54143
-0.784138
0
-1.66593
-0.524234
0.287692
-1.23712
0.0754281
-1.61926
-0.957614