<?xml version="1.0"?>
<VTKFile type="RectilinearGrid">
<RectilinearGrid WholeExtent="0 32 0 32 0 32" Origin="0 0 0" Spacing="1 1 1">
<Piece Extent="0 32 0 32 0 32">
<PointData>
</PointData>
<Coordinates>
<DataArray type="Float32" format="ascii">
0 0.524874 1.04975 1.57462 2.0995 2.62437 3.14924 3.67412 4.19899 4.72386 5.24874 5.77361 6.29849 6.82336 7.34823 7.87311 8.39798 8.92285 9.44773 9.9726 10.4975 11.0224 11.5472 12.0721 12.597 13.1218 13.6467 14.1716 14.6965 15.2213 15.7462 16.2711 16.796 
</DataArray>
<DataArray type="Float32" format="ascii">
-5.03879 -3.62163 -2.20447 -0.787311 0.629849 2.04701 3.46417 4.88133 6.29849 7.71565 9.1328 10.55 11.9671 13.3843 14.8014 16.2186 17.6358 19.0529 20.4701 21.8872 23.3044 24.7216 26.1387 27.5559 28.973 30.3902 31.8074 33.2245 34.6417 36.0588 37.476 38.8931 40.3103 
</DataArray>
<DataArray type="Float32" format="ascii">
0 0.524874 1.04975 1.57462 2.0995 2.62437 3.14924 3.67412 4.19899 4.72386 5.24874 5.77361 6.29849 6.82336 7.34823 7.87311 8.39798 8.92285 9.44773 9.9726 10.4975 11.0224 11.5472 12.0721 12.597 13.1218 13.6467 14.1716 14.6965 15.2213 15.7462 16.2711 16.796 
</DataArray>
</Coordinates>
<CellData>
<DataArray type="Float32" Name="Scalar" format="ascii">
0
0
0
0
0
0
0
0
0
0
0
0
0
0
0
0
0
0
0
0
0
0
0
0
0
0
0
0
0
0
0
0
0
0
0
0
0
0
0
0
0
0
0
0
0
0
0
0
0
0
0
0
0
0
0
0
0
0
0
0
0
0
0
0
0.00961114
-0.259478
0
-1.14004
0.025329
0
-0.636444
-0.382137
-0.730764
-0.780203
0
-0.783772
-0.4264
0
-0.433352
-0.348894
0.38658
-0.2098
0
0.0332289
-0.451476
0
-1.20996
-0.056742
-0.390933
-0.675491
0
0.228055
-0.272198
0
-0.317736
-0.239883
-0.671683
-0.198504
0
-1.21005
-0.250768
0
-0.949512
0
-1.49034
-1.62837
0
-0.929992
-0.790207
0
-0.0265494
-0.471674
-0.658588
-1.06339
0
-0.632807
-0.71971
0
-2.02851
-0.855082
-0.438849
-0.888131
0
-0.207735
-1.16627
-0.0557655
-0.336338
-0.208247
-0.924925
-2.24723
0
0
-3.9045
-1.16096
-5.43284
-0.0181395
-2.39341
0
-1.0439
-7.51168
0
-3.9379
-2.80894
-0.87327
-1.7117
-2.80624
-4.15048
-2.81606
-2.21693
-2.03737
-2.61238
-2.06614
-2.22971
0
-2.27996
-3.12834
-5.69897
0
-0.728005
-0.959755
0
-0.908967
-1.08104
0
0
-9.63619
-0.573832
-1.85427
0
-6.30552
-1.07933
0
-2.30905
-6.22425
0
-1.51867
-0.468272
0
0
-2.69362
-2.49655
-4.20772
-7.93975
-0.0448668
-3.62567
-2.53963
-4.18065
-3.46923
-4.12788
-4.96935
-2.30142
0
0
-2.05282
-5.51329
0
-0.381684
-3.53038
-1.35398
-1.10642
0
0
-0.995284
0
-0.894111
0
-0.530122
-0.508124
-6.36309
-3.25299
-2.29876
0
0
-0.603065
-0.856138
0
-2.36865
-2.12214
-0.259039
-2.64104
-3.96426
-1.59667
0
-3.64078
0
-0.388205
0
-3.36144
-0.960538
-1.52182
-0.0316648
-10.1264
-1.87413
0
0
-3.75887
-1.98143
-1.53825
-0.11005
-4.64816
0
-2.15906
0
-3.46033
-1.38864
-2.77195
-2.38813
-2.34819
0
-3.56936
0
-0.229561
-3.24159
-8.62714
-0.756901
-1.2684
-3.19748
-2.82182
0
-1.24424
-1.15772
-9.24157
-1.8618
-7.63707
-3.21714
-1.1875
-0.248394
-2.2254
0
-0.339389
-0.183143
-0.109031
-3.88987
0
-3.38565
-0.270185
-0.0879481
-7.11095
-0.793316
-1.04936
0
-0.483389
-2.99614
-3.21562
-5.34716
0
-2.50581
-4.0779
-1.15963
-3.53037
-5.36666
-0.0472236
-2.82046
0
-3.09524
-0.108332
0
-1.72593
-1.00765
-0.724266
-1.40486
-0.0355159
0
0
0
-6.98181
-2.32813
-2.9793
0
-2.02899
0
-1.08349
0
-1.65596
-1.07201
-2.28273
-2.59424
0
-3.09072
-1.70658
0
-2.69906
-3.99606
-1.28345
-3.95329
-0.636384
-1.40606
-2.38974
-2.05461
0
-0.525415
-1.34281
-2.40573
-0.430289
-3.78804
-1.44038
-4.64687
-0.618581
-5.43402
0
-6.76023
-7.37812
-2.4102
-0.0577754
-0.781372
-3.68214
0
-1.11726
0
-0.794995
-1.9972
0
-1.98178
-1.18571
-6.29709
-2.51394
-0.453196
-5.05894
-3.00596
-4.67552
-2.9075
0
0
-3.22838
-0.469557
-0.423922
0
0
-0.565252
0
-2.0904
-2.47453
-0.339117
0
-0.291471
-1.70121
-4.14182
-6.41753
0
-0.63455
0
-0.0429351
-2.21479
-2.69504
0
-4.3636
-1.1464
-3.31744
-0.552258
-7.72845
0
-2.5794
-0.585149
-3.29478
0
-0.898202
-0.138457
-0.937176
-3.35398
-1.31856
-5.45571
-0.364808
-6.02563
-2.64218
-0.790659
-0.849985
-2.99931
-2.25077
-2.81153
0
0
-6.16965
0
-3.95961
-1.83002
-5.10207
-0.0705353
-2.24428
-0.261184
-2.65862
0
0
-5.20265
0
-5.52648
-1.04974
-1.74486
-0.900355
0
-5.41943
0
-0.690649
-0.394046
-2.38561
-3.68429
-0.130269
0
-0.394574
-0.927528
-4.65612
-1.0023
-7.20313
0
-0.412056
-7.96935
0
-5.29872
0
-2.37329
-3.37625
0
0
0
-0.249155
-0.893831
-1.94282
-1.01777
-1.72397
-0.0234649
-1.83454
-2.02513
-2.13642
-1.47548
-1.47036
-0.91824
-0.767464
-1.67205
-0.769286
-2.72932
0
-2.83379
-2.54616
-1.9678
-3.08416
-2.27253
-5.87362
-0.0376854
-0.407043
-0.173801
-3.79493
-7.18525
0
-4.59924
0
-2.00264
0
-7.93512
0
-3.52916
0
0
0
0
0
-1.68255
-0.00581153
0
0
-6.92477
-0.0912859
0
-1.73103
-3.76424
0
-8.58741
-1.95356
0
-0.183889
0
-7.34628
0
-2.32749
-2.70715
-7.07895
-2.03264
-7.02643
-0.226681
-2.95978
0
-2.95443
-1.4284
-2.27197
-2.32732
-4.46961
-0.559781
-4.84295
0
-0.0301448
-7.22991
0
-1.99869
-7.29074
-4.25395
-0.442356
-1.81847
-4.05987
0
-5.03817
-6.97996
-0.244811
0
-0.309314
0
-0.428183
-9.33921
-1.66695
-2.00078
-4.45765
-1.96219
0
-6.67878
0
-6.07276
-2.56344
0
0
-0.247111
-4.02027
-4.87624
-3.18762
-2.62781
-2.87801
-2.22117
-1.50185
0
-6.27363
-1.13035
-3.14289
-0.782584
-4.85381
-4.04884
-1.73158
0
-6.44236
-1.52204
-0.157177
-2.69617
-0.84236
0
-6.03682
-0.639218
-5.05537
-3.81398
-0.729667
-0.35188
-3.74616
-2.6276
0
0
-3.05501
-1.17065
-8.53561
-2.40264
-4.26485
-2.72989
-1.25438
0
-1.04362
-3.70979
-1.45357
-12.5098
0
-6.24984
-0.0905751
-5.00784
-1.87975
-2.81125
-1.12789
-1.97455
-2.7996
-3.01076
-4.71892
0
0
-6.28029
-3.45698
-1.707
0
-3.42941
-1.69185
0
0
-6.60425
-7.48681
0
0
-1.70247
0
-4.41867
0
0
-3.11012
0
-1.39258
-3.62552
0
-4.32489
-2.40168
-1.09712
-0.789761
-0.300906
-4.71207
-3.28612
-2.00765
-3.97776
-1.73934
-3.49567
-0.0309868
-1.3139
-3.69586
-0.50971
-3.61823
-2.61259
-4.87711
-4.43819
0
-1.27964
-2.08146
-1.63544
0
-1.67791
-5.45528
0
-1.1695
-1.60196
-0.597136
-0.306997
-2.59639
-4.23968
0
-3.00679
-1.18229
0
-4.21869
-2.00141
-0.889673
0
-5.07616
-1.49016
-7.16632
-1.4442
-3.03048
-2.11817
-0.136797
-2.81563
0
-1.7187
-1.54364
0
-1.79449
0
-0.758332
-2.13573
-1.66751
-0.77273
-1.28237
0
-8.3864
-0.113112
-3.62177
-1.34962
-4.92124
0
-5.36987
0
-0.64378
-7.85318
-1.94037
0
-2.28289
-6.2221
-1.36997
0
-2.02448
-1.33386
-4.32564
-1.93908
-3.25328
-8.14624
-1.91285
-8.79746
-1.46222
0
-2.40209
0
-0.587435
-3.28191
0
0
-1.85272
-0.182678
-0.621972
-2.84498
-1.29087
-4.91383
-8.84453
-0.905253
-0.888768
-0.417414
-0.525964
-1.86687
0
-6.01745
0
-8.03638
-0.212294
-0.451068
-1.11968
-7.30096
-6.25118
-7.51899
-2.63715
0
0
0
-6.50032
-0.699602
-5.85025
-1.30314
-0.976577
0
-6.86213
0
-4.46534
0
0
-0.355645
-1.84157
-0.505623
-1.3568
0
0
0
-1.72071
-3.1252
-3.65847
-2.44633
0
0
-1.50652
0
-3.13456
-0.504425
0
0
0
-7.69643
-4.10189
0
-6.27738
-0.587924
-0.938065
-0.559504
-2.23951
-0.0377407
-1.59393
-3.80748
-2.81381
0
0
-4.69997
0
0
-4.24414
0
-1.73669
0
-2.82647
0
-9.52828
0
-7.90779
0
-6.11714
-0.748452
0
-0.368358
0
-5.01415
-1.36249
-0.598811
-1.21781
-3.05005
-1.21786
-1.32875
-1.43481
-3.49205
-2.82497
-1.12291
0
-2.93716
0
-1.21958
-0.506925
0
-6.32236
-0.594786
-1.99004
0
-4.12715
-3.57987
-2.8318
-0.157583
-0.148556
0
-5.03865
0
-0.762302
-0.0540542
-5.13025
-1.46917
-3.38793
0
0
-2.03335
-1.01995
0
-0.828003
-5.62692
0
-6.4566
0
-16.7436
0
-0.300453
-0.330846
-0.0316279
0
0
-2.52042
0
0
0
-2.7374
-3.10661
-1.40428
-0.0454574
-6.22281
0
-1.41087
-1.00667
0
0
-2.63109
-5.4035
0
0
-2.01233
-5.25532
-0.0623577
0
0
-0.0460435
-4.84017
-1.13021
-3.07556
0
-5.62653
0
0
-1.17302
-0.497615
-7.51557
-1.97157
-1.56979
0
0
-7.0301
-0.146262
-3.26018
-1.18552
-1.24421
-5.42024
-1.42082
-3.34057
-0.795585
-6.83918
-0.444606
-3.30267
-2.01636
-3.10394
-3.11766
0
-1.36956
0
0
-0.242514
-5.2314
0
0
-9.51569
0
-8.47621
0
-4.39673
0
-5.43641
0
-2.16474
0
0
-6.01016
-2.2918
-0.125295
-0.505992
0
-3.73437
0
-4.86634
0
-7.579
0
-3.71766
0
-5.78325
-3.21124
-1.9772
0
0
-1.9453
-6.27732
-0.485753
-1.80192
0
-2.15839
0
-7.64097
0
0
-0.686786
-1.98831
-2.05321
-8.14811
0
0
-2.21057
-3.60266
0
-4.5632
-2.22491
-4.55993
-0.535195
-4.27888
-1.79098
-2.16203
-0.945657
-3.27468
-1.51285
0
-2.22626
-0.699951
-4.08904
-2.29259
0
-3.22523
-6.11012
-1.23223
-4.34248
-1.97271
-3.94287
0
0
-0.565551
-1.93833
-4.59354
0
-6.82732
0
-4.03611
-4.51894
-5.98632
-0.196483
-0.531876
-6.52732
-1.2413
-7.09767
-1.1196
-0.821584
-5.10353
-0.879936
-0.942508
0
-3.23638
-1.12664
0
0
0
0
0
0
0
0
0
0
0
0
0
0
0
0
0
0
0
0
0
0
0
0
0
0
0
0
0
0
0
0
0
0
0
0
0
0
0
0
0
0
0
0
0
0
0
0
0
0
0
0
0
0
0
0
0
0
0
0
0
0
0
0
-0.299464
-2.1305
0
-0.380208
-1.50427
-0.0489263
-1.00145
-1.1065
-0.270086
-2.28434
0
-1.7083
-0.967244
-0.0102282
-1.25402
-0.400164
-0.7731
-1.02272
0
-0.976558
-0.446338
-0.025265
-1.78123
-0.774215
-0.396142
-1.98326
-0.354729
-1.51602
-1.53562
0
-1.04736
-0.336297
-1.04233
-2.4901
0
-0.112568
-2.18884
0
-0.930435
-0.536576
-1.46661
-0.0851845
0
-2.31984
-0.175183
0
-1.37243
0
-0.00250373
-1.06798
0
-0.314114
-3.03958
-1.01523
-1.09032
-2.12888
-1.11932
-0.366022
0
-1.73102
-1.18463
0
-2.89894
-0.0378054
-4.86745
-4.33139
-2.85617
-4.55217
-0.717881
-0.208453
-3.22923
-2.41208
-6.22601
-4.45595
-0.877673
-1.94787
-4.97244
-1.15041
-0.704854
-3.2911
-2.13317
-2.52338
-3.09098
-2.51631
-2.43106
-1.7997
-5.90075
0
-5.59963
-3.53555
-4.11748
-0.945376
-2.8647
-1.08979
-6.85251
-3.58474
-0.302739
-6.79582
-0.877381
-7.22705
0
-3.43252
-2.49188
-5.62315
0
0
-3.21814
0
-0.586691
-0.121942
-0.93793
-4.89139
-0.340678
-6.20958
-3.04885
-4.90557
-1.02995
-2.47679
-2.55864
-1.88492
-1.6013
0
-3.33125
-0.266466
-0.331883
-0.099683
-1.47066
-7.62372
-2.75134
-4.60773
0
-6.12141
0
-0.682496
-1.44079
0
-4.52372
0
-2.96801
0
-2.60365
-0.804039
-5.25136
0
-1.39486
-2.17006
-2.03625
-3.32503
0
-3.98575
-3.67478
-5.68116
0
-4.80021
-1.38321
-2.2724
0
-1.45028
-3.63089
0
-3.1011
-2.0961
-0.224583
-4.1685
0
-3.90643
-2.34961
-1.40941
-2.39502
-8.47947
-0.353998
-3.52328
-5.47545
-0.822134
-11.0005
-2.35772
-4.43818
-1.47064
-3.80008
-1.23301
0
-5.05059
0
-0.0765897
-0.890782
-3.04028
-9.01862
-3.12009
-1.33258
0
-3.8952
-3.62675
-1.7133
-5.49697
-9.44208
-2.44414
-1.60668
-0.510956
0
-0.0359728
-1.95365
-2.63163
-0.706479
-6.55627
-1.28921
-5.97005
-1.79
0
-0.273687
0
-0.536835
-2.69873
-3.52649
0
-1.94917
-10.9716
-2.25147
-3.3145
-1.73005
0
-9.35421
0
-6.10348
0
-10.4409
0
-4.40944
-4.62882
-6.44441
-2.81724
-0.360791
-4.26701
-1.08414
-2.20941
-0.204867
-0.245545
-1.99446
-2.9441
-2.01456
-4.65392
-1.96014
0
0
-4.93805
-0.604504
-2.42953
-2.50904
-3.80814
0
-7.42456
-0.317863
0
-5.94487
-0.304809
-7.33567
0
-1.78301
0
0
-4.14088
-0.659243
-2.5234
-1.92341
0
-0.650209
-6.03502
-6.30648
-3.13201
-0.660308
-0.220375
0
0
-0.879204
-1.75838
0
-2.93587
-1.3025
-1.83348
-0.0321577
-4.33234
-0.319334
-3.1723
-0.605816
-2.80188
-0.823762
-5.20713
0
-5.25128
-0.498445
-3.56777
0
-2.68889
-0.191289
-0.565791
0
-4.10747
0
-3.83571
-2.3725
0
-1.89772
-1.16162
-4.39548
0
-2.62196
-3.12966
-0.173715
0
-2.57983
-4.80169
-4.24073
-1.33931
0
0
-2.98495
-4.15148
-1.7196
-3.57345
0
-8.83832
0
-2.6539
0
-2.33163
-1.13812
-4.81137
0
-3.68585
0
-4.97871
-1.65827
-3.05572
-5.35715
-0.837816
-3.39417
0
-0.518573
-2.39425
-0.23957
-8.34479
-1.6421
0
-2.02158
-1.34663
0
-4.98268
-1.23084
-1.24897
0
-0.0832294
-1.29828
-0.00930582
-7.87193
-2.80565
-2.46791
-4.79757
-1.34725
-1.9479
-3.87716
0
-4.77174
0
-0.0376052
0
0
0
0
-3.46363
0
-4.70019
-7.03083
-3.27662
-4.98244
-3.23618
0
0
-1.22862
0
-1.61491
-6.34301
0
-1.76985
-2.4178
-1.71816
-0.431804
-0.894331
0
-5.22838
-3.51042
-4.0549
-3.10625
0
0
-2.59032
-1.39642
-3.68691
-2.71379
0
0
-5.19316
-0.7991
-3.48403
0
-3.87603
0
-7.98436
0
-7.12172
0
-4.4319
-1.38062
-3.64226
-2.33113
0
-9.62344
-0.706901
-0.273981
0
-4.6776
0
-9.08318
0
-2.24836
0
-3.73199
0
-4.44122
0
-3.81196
-2.19424
-6.50881
-5.04753
-7.09242
0
0
-8.86116
0
0
-3.68706
-1.46304
0
0
-7.54194
0
-4.22595
-1.34555
-5.29886
-1.07046
0
-2.0241
-1.25359
0
-1.06569
0
-4.69245
0
-0.118354
-2.23383
0
-0.886572
-1.80955
-0.27212
-2.17643
0
-0.843332
-8.40441
-2.31763
-3.07245
-4.46722
-2.54046
0
-0.322701
-0.127709
0
0
0
-1.59236
-3.97113
-0.992408
-6.60388
0
-3.05142
0
-2.12685
0
-10.1586
-2.88103
-1.80119
-1.85156
-2.3223
-2.24071
-4.6016
-0.394262
-1.33206
0
-4.42889
-4.52398
0
-1.77888
-0.64005
0
0
-2.75281
0
-8.0058
0
-8.71719
-0.0317026
-4.05738
0
0
-1.26531
0
-0.923746
-4.06171
0
-1.01672
0
-1.7018
-1.93447
-2.73419
-1.13554
-0.212942
-9.88391
-6.24455
-6.54824
0
0
-0.622304
-0.258361
-1.36065
0
-12.7394
0
-4.95755
-0.22488
0
0
-5.9246
0
-2.51868
0
-0.72579
-2.44368
0
-3.75374
0
-0.894076
-3.72329
-1.30975
-6.88849
-0.612405
-0.991719
-4.56312
0
-0.498161
-2.27147
-0.169815
0
0
-5.16485
0
-4.91463
0
-1.11746
-4.60458
0
-7.82565
-1.32916
-0.721858
0
0
-5.67284
-0.396157
-6.40594
-5.78285
-0.676122
-1.41329
-0.695422
-0.277632
-4.41015
-0.967409
0
-1.29823
-3.00594
0
-2.28409
-1.05945
-1.58105
0
-0.674104
-0.680187
-5.92689
-1.84592
-1.17815
-5.24506
-5.04966
0
-3.88235
-2.85003
-5.54884
-2.37736
-2.61819
0
-1.45191
-3.8757
0
-7.18108
-2.12411
-2.14401
0
-4.14931
0
-2.46663
0
-0.222288
0
-0.719803
-0.229955
0
-4.77706
-2.35763
-0.947928
-1.98988
-1.2675
-5.2653
-5.0085
-0.151241
-2.29205
-1.56103
-3.8161
0
-8.25091
0
0
-3.98269
0
-3.78485
-0.899137
0
-9.00688
-1.14026
-0.0772327
-2.15308
-4.72119
-1.9324
0
-1.58259
-6.44561
0
-5.78314
-1.26207
-1.42415
-4.12769
-4.36358
-0.200035
-0.510758
0
-5.14376
-0.49738
-5.60341
-0.318694
-3.66235
-1.99266
-4.83413
0
0
-5.09328
-1.49238
-5.02237
-0.0967103
-0.0556376
-0.681309
-2.22578
-5.27199
0
-3.55488
0
0
-0.180421
0
-0.660902
0
-1.16928
0
-1.76763
-0.254557
-3.51339
-2.4809
-4.13326
-1.23533
-0.107224
-0.375795
0
-1.70378
-1.66186
-3.37171
0
-2.20556
0
-4.45792
-1.457
-1.5696
-0.550716
-4.32348
-0.654287
-2.29561
0
-5.10579
-0.776485
-4.32353
0
0
-1.18531
-3.39998
-3.32813
-2.40509
-0.262173
-0.134361
0
-5.10357
-3.03444
0
-1.58034
-7.24014
-2.4329
-0.859229
-3.58734
-4.06955
0
-5.81752
-0.778917
0
0
-5.43507
0
-5.35754
-0.590466
-2.06747
-0.34504
0
-3.6083
0
-3.71708
0
-0.166309
-2.23877
0
-6.73257
0
-6.08486
-5.0666
-3.16181
-0.858734
0
0
-4.31608
0
0
-4.62401
-1.96041
-1.34542
-1.64994
-0.626101
-3.52242
-0.561758
-5.65031
-1.35375
-0.35512
-4.7177
-3.19896
-0.217466
0
-5.13034
0
-0.544954
0
0
0
-1.83181
0
-1.13456
0
-5.74138
0
-0.0546421
-3.27843
-1.50209
-2.20936
-1.78527
-3.20318
-2.34472
-3.4768
-2.87935
-0.105398
-0.615352
-4.88219
-2.51625
0
-3.24986
-4.917
-5.88738
-1.42645
-2.80729
0
-4.78876
0
-3.2809
-0.166241
-0.60749
0
-1.32118
0
-0.132604
-1.24389
-2.14126
-4.68836
-3.27572
-0.890735
0
-1.35321
-1.78016
-6.2703
-0.752351
0
-2.98792
-2.61869
-0.905225
-0.563732
0
0
-2.82769
-1.15627
0
-1.55287
-8.37975
-1.52677
-4.62529
0
-4.29407
-1.11138
-2.68388
-1.60956
-6.25759
-0.651304
-4.64021
-0.194203
-0.187831
-0.633068
0
-4.21892
-3.6373
-1.23415
-0.520686
-6.69838
-3.65262
-2.29831
0
0
-3.52167
0
-3.53738
0
-0.404506
-4.79432
-0.179772
0
-3.13915
-1.2987
-0.245944
-0.693961
0
-1.59071
-0.537987
-0.826157
-5.17288
0
-5.48843
-1.63943
-7.25616
0
-8.61519
-0.500892
-1.38309
-0.528959
-0.448553
-0.817942
-0.869695
-1.47643
0
-2.32848
-1.9238
-6.50954
0
-5.47132
-2.31593
0
-1.47396
-7.22207
-4.17372
-1.74416
-0.823896
-0.430013
0
-1.34737
-4.22785
-0.377113
-5.27938
0
-4.38946
-8.96906
-3.76604
-1.23458
-4.39294
-2.36951
-3.0606
-2.42545
-0.391959
-0.640173
-1.36241
-3.88587
-1.47487
-2.51339
0
-3.99163
-4.8088
-1.0468
-3.58389
-4.9795
0
-0.0829029
-3.7199
-1.39124
-9.04657
-1.25544
-3.83907
-4.45286
-6.30457
-0.766615
-0.0247006
-0.732852
-4.28755
0
-1.65007
0
-0.669775
-1.05249
-6.33644
-3.11592
-2.45966
0
-0.388119
-0.0182712
-3.5394
-1.87281
-2.72222
0
-2.1558
-1.9631
-0.81906
0
0
0
0
0
0
0
0
0
0
0
0
0
0
0
0
0
0
0
0
0
0
0
0
0
0
0
0
0
0
0
0
0
0
0
0
0
0
0
0
0
0
0
0
0
0
0
0
0
0
0
0
0
0
0
0
0
0
0
0
0
0
0
0
-0.0669844
-0.0140789
0
0
0
0
0
0
0
0
0
0
-0.265751
0
0
0
0
-0.259441
0
0.0190546
-0.353206
0
-0.298148
0
0
0
0
0
0
0
0
0
0
0
0
-0.0755318
0
0
0
0
0
0
-0.374634
-0.31458
0
0
0
0
0
0
0
0
0
0
0
0
0
0
0
0
0
0
0
-0.149702
-0.525051
-1.78601
0
-0.851157
-3.44586
-6.36813
-3.72136
-3.15467
0
0
-0.979191
-1.78957
-0.49597
-4.71932
-0.704437
0
0
0
-0.747145
-6.66811
-4.00848
0
-0.15227
-2.79778
-0.479726
-4.65547
0
0
-1.4869
0
-5.79648
0
0
-3.10375
-4.04429
-2.97938
-6.83645
-5.1564
-2.36512
-1.77729
-6.01278
0
-2.2549
-0.421262
-7.84379
-3.92086
-3.86752
-2.86389
-2.06764
0
-1.06011
0
-5.27107
-0.177645
-1.92525
-0.949457
-4.15315
-1.9486
-0.777477
-3.05249
-0.0917103
-0.56904
-2.29775
-0.492347
-4.44285
-0.041332
0
-0.556407
0
0
-5.31913
-6.80573
-1.83755
0
-1.67232
-2.4073
-3.2561
-4.66208
0
-3.56638
-3.26426
-4.65611
0
-4.34047
-4.85522
-1.25432
0
0
0
-0.593068
0
-3.57168
-3.48929
-4.06129
-2.65409
-0.339227
-1.81455
-1.55631
-0.0161897
0
-6.34668
-4.94841
-1.59667
-5.89057
-0.532694
-5.87802
-1.16654
-2.81313
-0.800769
0
0
-0.42269
-0.508727
-3.55863
0
-5.573
-0.54053
-0.59005
-2.72294
-1.44275
-0.721087
-4.41168
0
0
-5.64377
-1.48503
-0.852575
-4.22703
-2.81204
0
-0.470308
-1.80245
-0.512996
-2.96171
-1.53618
-1.9558
0
-1.09881
0
-1.28251
-1.24351
0
-2.89751
-5.28712
-1.63915
-4.33267
-0.676402
-0.158865
-3.29783
-3.60847
0
-0.245014
-5.2708
0
-3.05123
0
-0.431594
-0.930815
-6.13385
0
-5.81473
-3.69591
0
-0.339229
0
-3.52937
-0.594373
0
0
-0.522731
-5.54865
0
0
-0.622451
-2.21546
-0.38512
-1.86156
0
-6.1903
-0.371034
0
-3.23574
0
-0.671565
-4.92827
0
-4.45708
-1.61277
-1.20731
0
-0.998113
-2.33057
0
-4.1092
0
-4.73668
0
-1.53298
-0.692312
-9.06301
-1.73892
-1.01695
0
0
-3.31484
-1.95483
-0.354566
-8.20434
0
-5.06153
0
-3.42666
-0.532027
-5.18107
-6.61703
-0.83425
-2.7592
-0.402399
-2.55819
-0.20003
-3.33042
-0.54929
0
-0.0450973
0
-2.68533
0
-5.45532
-1.19292
-5.52981
0
-1.0971
-1.56719
-1.69612
0
-4.28424
-5.38567
0
-2.87073
0
-1.9646
-5.20871
-1.47782
-4.72931
-0.669909
0
-0.972939
-1.53777
-4.82619
-2.03863
0
-0.851832
-2.36968
-2.63268
-0.31868
0
-6.07994
-1.08713
0
-3.14543
0
-0.817995
-0.379607
-3.66519
-1.65941
-3.30652
-4.80154
-0.355226
-1.49105
-0.091466
-6.8643
0
-5.00679
-5.14776
-3.51454
-1.74296
-1.50813
-4.8282
-2.58338
-1.01144
-2.54896
0
-0.706149
-4.07861
-1.71856
-3.35361
-1.50077
-0.67587
0
-5.56708
-3.29972
-3.38565
-0.618435
-4.56605
-0.138048
-2.2656
-3.56232
-0.133461
-4.29626
-0.735389
-4.54017
-2.63909
-4.51274
0
-1.90119
0
-1.711
0
0
-0.199881
-7.18076
0
-8.03805
-3.60614
0
-2.55961
-3.89298
-1.58572
-0.804196
-0.525803
-2.41957
-0.986783
0
0
0
-2.50603
0
-2.72913
0
-3.29226
-1.75685
0
-3.61914
-1.02502
-5.32376
0
-6.78261
0
0
-2.30042
0
-1.69543
-1.5076
-1.8857
-0.0860098
-5.63327
-0.19929
0
-4.62191
-0.0954557
-0.538378
-7.763
-3.28168
-8.10103
0
-4.22719
-0.997454
0
-4.12287
-6.12972
-0.0308598
-2.64771
0
0
0
-2.93115
-0.0623293
0
-0.489766
0
0
0
0
-8.42384
0
-5.12083
-3.27457
-1.02949
-0.872811
-1.39158
-5.01909
0
0
-3.25366
-0.431825
0
-4.58598
0
-8.48853
-0.958656
0
-5.29151
0
0
-4.89502
-0.415872
-5.13434
-1.73553
-4.55578
-1.27661
-0.90988
0
-0.953403
-1.81332
0
-1.2125
-13.034
-2.37847
-4.24675
-6.84629
-0.566849
-5.90376
0
-0.67025
-0.258089
-5.77838
-0.227731
-2.61546
-2.25798
-5.76865
-1.01688
-2.86827
-1.88118
-2.20273
-1.30752
-2.33431
-2.79323
0
-7.54823
0
-1.00797
-2.84362
0
-6.09113
0
-8.00089
-2.08223
-4.84175
-1.2181
-2.94304
0
-5.19438
-0.0191647
0
-3.34893
0
-3.05292
-1.49735
-2.85285
-2.50951
-0.057145
0
-4.10714
0
-3.58446
-0.158719
-7.62465
-4.67266
-5.95338
0
-1.20948
-4.62533
-1.81722
-2.15866
-7.68509
-1.26099
-13.3264
0
-0.111059
-2.39749
-5.69391
-3.82426
-5.45936
-2.79385
-2.53747
-1.5734
-3.37913
-5.05046
0
-3.74537
-4.84445
0
-2.90443
-1.81288
-4.04722
0
0
-11.3629
0
-1.37096
-2.46028
-1.32479
-0.876057
-1.55074
-7.46453
-2.6611
0
-4.24985
-0.540829
-4.08918
0
0
-1.85574
-3.25281
0
-4.38879
0
-6.09292
0
0
-6.28651
-1.89474
0
-5.57692
-3.25778
-4.3794
-1.97468
-0.293568
-7.46302
-0.216248
0
-6.77296
-2.83977
-0.825848
0
-4.89704
-0.562881
-2.66397
-1.37226
-3.97739
-1.961
-2.60976
0
-4.44795
-1.17411
0
-1.53543
0
-0.111135
-4.66499
0
-3.66444
0
0
0
-0.765526
-1.00273
-0.0829268
-0.141693
-1.03017
-2.38705
-6.523
-3.37795
-1.81582
-1.87267
-2.69491
-0.898652
-1.14903
-4.10562
-2.39557
-1.8989
0
-1.99767
-1.49073
-3.8031
0
-6.25135
-0.0599886
-2.9824
0
-5.64087
0
-4.15905
-0.0801274
-3.48036
-1.04109
0
-2.88077
-3.4947
-2.32716
-0.956221
-0.896257
-3.71043
0
-2.84901
-3.20668
-3.17681
-1.31288
-2.63253
-1.54501
-0.647845
-3.93768
-2.17441
-2.69394
0
-2.50783
-0.360748
0
0
-4.07039
-0.108657
-7.96865
0
-2.43538
0
-2.64957
0
-6.24007
0
0
0
-6.4778
0
-1.57748
-2.05522
-4.76344
-1.31053
-4.96852
0
-4.25667
0
-1.0839
-2.12778
-2.91494
-0.834983
-0.676002
-0.54903
-5.61039
0
0
-3.81663
-0.365994
-1.30645
-2.29585
-2.68037
0
-1.93696
-0.115154
-0.0734812
-2.86712
-4.72927
-0.526071
0
0
-1.45537
-2.52899
-6.35484
-10.0134
-2.41082
-4.61707
0
0
-2.96006
-0.124078
-0.733908
-2.91225
0
0
-2.48213
-0.25415
0
0
-6.31077
0
-3.24908
-0.546798
0
-4.86799
-3.68946
0
0
-1.91491
0
-0.88946
-0.745106
-3.11649
-3.14218
-4.55098
-0.895799
-1.26829
-1.19052
-0.528859
-3.32818
0
-0.154006
0
-0.262787
0
-2.67911
-1.50539
-6.01413
-0.199933
0
-2.859
-4.0726
-0.0802445
-0.478581
-0.339326
0
-3.43467
0
0
-4.98622
-0.0783356
0
0
0
-7.23922
0
-1.15595
0
-6.22338
0
-3.02915
0
-0.774254
0
-7.02911
0
0
-4.30577
-2.53519
-1.18256
0
0
-2.58398
-0.227655
0
0
-3.05235
-3.1449
-2.28986
-0.628962
-2.77344
-2.97501
-1.99474
-2.63614
-2.76501
0
-2.11244
0
-0.0543309
-3.86712
-0.28412
-1.29573
0
-9.0243
-0.399408
-5.66502
0
-1.03533
-2.05667
0
0
-3.08039
0
-2.03054
-0.988783
0
-2.11398
-3.12201
-3.45906
0
-0.381343
-1.6561
-1.33743
-2.45582
0
-0.10384
-0.111665
-4.29332
0
-0.967059
-4.26812
0
0
-3.51278
0
-0.408825
0
-2.95295
-1.55938
-4.00223
-2.08546
-3.92552
-3.08094
-0.113962
-2.87855
-4.31755
-3.29961
-0.29244
-0.662041
0
-6.01332
-1.02824
-1.4598
0
-0.512256
-1.25104
-3.2597
-2.96046
-5.48802
0
-4.45442
0
-4.06241
0
-2.87618
0
-3.33132
-3.99497
-1.41039
-1.75752
-0.859131
0
-3.7981
-0.661854
-1.67041
0
-7.01205
-4.08222
-2.80518
0
-4.02798
0
-6.55676
-0.460078
-5.71312
-2.51495
-8.86008
-0.599772
-1.90591
-0.273683
-1.02149
0
-1.66038
-0.638215
-3.13939
-0.323988
-3.79862
0
-1.37713
-2.0698
0
-4.82887
-0.595506
0
0
-1.64237
0
0
-1.05427
0
-0.0044226
-4.72234
0
0
-5.21372
-0.916027
-6.38306
0
-0.482194
-0.994256
-1.55642
-2.69554
-1.93838
-0.635718
-6.26718
-2.4645
-0.986321
-5.31025
0
0
0
-2.28883
-6.07129
-0.631598
0
0
-2.93224
0
-4.49035
-0.10045
-0.262414
-0.729751
-5.41139
-4.61846
-4.97366
-5.58739
-0.133037
-4.56587
-0.29382
-1.90949
-1.33051
-2.66602
-1.0105
0
0
0
0
0
0
0
0
0
0
0
0
0
0
0
0
0
0
0
0
0
0
0
0
0
0
0
0
0
0
0
0
0
0
0
0
0
0
0
0
0
0
0
0
0
0
0
0
0
0
0
0
0
0
0
0
0
0
0
0
0
0
0
0
-0.326435
-1.30164
0.0441324
-0.525826
-1.51131
0
-1.72686
-1.40917
-0.713473
-1.52732
-0.141122
-1.28333
-1.73473
-0.236815
-0.443138
-0.676297
-0.511963
-1.13721
0.010002
-1.53964
-0.70398
-0.10318
-1.25109
-1.45363
-0.707857
-1.10642
0
-0.88291
-1.89002
0
-1.43873
-0.398618
-0.449292
-0.28753
-0.10048
-2.35733
-0.272251
0
-3.46488
-0.612141
-0.0172454
-1.8317
0
-0.0567749
-0.68706
0
-0.415513
-2.59117
-0.854075
-1.19071
0
-1.33702
-0.185604
0
-3.04609
-0.557847
-0.893648
-1.71086
0
-0.291155
-2.18115
-0.070487
-0.0937759
-1.24554
-7.34384
-3.53611
-2.76862
-3.00159
-6.8058
-0.92615
-0.594399
-3.34165
-0.318369
-5.48445
-0.606098
-1.89877
0
0
-3.74989
0
-9.12211
-8.95551
0
-6.60946
-5.3406
-1.33789
-3.74226
-3.91715
-5.38634
0
-2.96476
-3.90723
-0.0260658
-5.9023
-1.88987
-2.92495
-1.53106
-0.702328
-3.65266
-0.314704
-5.80052
-0.46054
-4.03378
-1.66907
-1.45973
-7.46481
-5.10018
0
-0.807095
-3.61159
-1.3766
-1.28029
-1.13511
-5.52894
-1.01072
0
-2.54592
0
-1.42717
-0.940968
-4.11741
-2.35138
-1.54248
-4.99175
-1.36916
-4.41998
-3.15198
-4.7135
-2.53125
-3.29174
-3.99406
0
-7.25334
0
-4.86261
-0.84591
-7.28977
-3.45211
-3.54293
-5.69227
0
0
0
-1.10548
0
-0.0954656
-0.856193
-3.9582
0
-1.7837
0
-6.38409
0
-4.67464
-4.79265
0
-0.359631
-1.9906
-5.62551
-0.738509
-6.28981
-0.465973
-1.27069
-6.36398
-0.0119341
0
-3.27175
-1.44424
0
-0.269865
-1.70337
-3.6342
-0.604851
-1.08681
-2.97172
0
-1.75874
-2.48302
-0.043595
-0.10595
-0.274271
-0.861837
-0.254948
-4.70796
-1.74087
-0.0982815
-1.42959
-2.42487
-0.506917
0
0
-1.97537
-1.09933
-3.13281
-2.56657
-3.89856
-0.71415
-2.67326
0
-0.912888
-1.82419
-2.27558
-2.3866
0
-4.33597
-1.9011
-0.946469
0
-3.65997
-1.16196
-5.47335
-1.20263
-0.703739
-2.32444
0
0
0
-2.82344
-0.0591174
-7.26805
-0.73787
-6.91081
0
-1.3436
0
-0.989869
0
-4.31419
0
-0.224065
-10.751
-0.347397
-7.42774
0
0
-4.71386
-4.23856
-2.10577
-1.50796
-2.70803
-0.0171026
-0.842222
-2.19959
-1.05156
-8.71816
-1.19067
-2.16626
-1.65928
-1.06186
-2.05981
-5.62422
-2.89814
-2.31584
-0.206672
-1.71118
-6.49066
0
0
0
-1.08015
-9.49646
-1.29409
-2.0886
0
0
-6.50609
-0.13113
-7.60527
0
-3.21052
-0.540731
-1.45449
-4.51474
-3.21734
-5.38959
-1.36679
0
0
0
-3.72263
0
-0.0265911
-1.69939
-3.29068
-1.49379
0
-4.13128
-4.56687
-5.59024
0
-5.17855
-0.674366
-3.35946
-2.06495
0
-5.07891
0
-3.19504
-7.09904
0
0
-3.9206
0
-4.33011
0
-1.33878
0
-0.541627
0
-2.40904
-6.37028
0
0
-0.142363
-6.45545
0
-1.34805
0
-7.92653
-0.0983361
0
0
-2.10553
-3.3633
-1.17824
-3.63981
0
-0.745512
-3.62478
-2.27227
-2.20665
-1.6124
-7.17164
-0.107361
-7.09091
0
-5.82995
0
0
-5.54923
-3.53025
-0.312119
0
-2.73479
-2.59051
-1.18087
-7.908
0
0
-3.17383
-2.39057
-5.4098
-1.03772
-2.28512
-0.393603
-2.78756
-1.64743
-1.52506
-0.564185
-2.77987
-1.39299
-0.970419
-1.11307
0
-3.20489
0
-1.73886
0
-4.37316
-8.42621
-5.01208
-7.08254
-4.83558
-3.73247
-1.34616
-6.06349
-2.16507
-5.33882
-2.12911
-0.919605
-2.0766
-1.9164
-2.86046
-3.54168
-4.10309
-4.14077
-3.68256
-7.41453
-0.436864
-8.44721
0
0
0
-1.5848
-3.24316
-1.20403
-3.33839
0
-0.501826
-2.78505
-3.53128
0
-10.4419
-3.45979
-4.3633
-1.2355
-0.199089
0
-6.42198
0
-1.06014
-6.57623
0
-0.452741
-3.96235
-0.170942
-3.20722
0
-2.61246
0
-4.03322
-1.91632
-1.18295
-5.18841
-0.816648
-4.21334
-0.763788
-3.38618
0
-0.610215
-0.112699
-1.35703
-1.68051
-3.97547
-0.693173
-6.49454
0
0
-2.5602
-1.53457
-1.9092
-2.53076
-0.896864
-2.42485
0
-8.99957
-5.64544
-4.52233
0
-5.45662
0
-6.73751
-1.48641
-1.90125
-2.75514
-0.731484
0
-6.77426
0
0
-0.495574
-1.6713
-2.01398
-0.403519
-7.08579
-2.25774
-5.93728
-0.446269
-13.3981
-0.813125
-6.88784
-0.193466
-4.54499
0
-0.492464
-0.658011
-1.46288
-2.72466
-5.61777
0
-3.16022
-0.269623
0
0
-0.0757382
-2.10182
-4.41844
-0.117242
-3.60268
-0.00985253
-8.0348
0
0
-0.427852
-4.23937
0
0
-1.11976
0
0
-0.567027
0
-1.43689
-0.17451
-0.808008
-0.977848
-1.63866
-3.76766
-0.554561
-7.89904
0
-1.172
-2.56026
-5.81327
-2.41977
-3.61873
-3.82008
-9.75685
0
-5.03535
0
0
0
-10.1736
-0.21592
-5.05165
0
-0.324009
0
-0.527141
0
-6.39979
0
-2.54579
0
-4.70166
0
0
0
-0.588048
-1.98351
0
-2.67084
-2.08283
-0.935897
-5.32299
-1.82138
-1.64008
-0.017261
-8.39341
0
-1.2629
-5.56313
-3.78674
-8.79851
0
-2.29311
-0.984199
-0.27168
0
-2.14899
-3.2839
0
-1.09675
-2.47222
-5.18296
0
-0.723651
-1.85582
-5.28052
-1.84125
-0.176235
-1.921
-3.98314
-0.480233
-5.90816
-2.41493
-1.35691
-0.988043
-0.893104
0
0
0
-1.14456
-2.16067
0
-2.04991
-4.46993
-4.34196
0
0
-1.73099
-2.57038
-1.72378
-1.47483
-3.17769
-5.19938
0
-7.65815
-4.47745
-0.623711
-5.91672
-1.41157
-2.71732
0
0
-0.181248
-1.6931
-8.07593
0
-5.43585
-2.01587
-1.06907
-7.74299
0
0
0
0
-1.12462
-3.46776
-2.36084
-1.5657
-5.89212
-0.360283
-5.34608
-5.5267
-1.91823
0
-4.64879
0
-2.74889
-0.577834
-2.10807
0
-0.901843
-0.357945
-4.03469
0
-4.64798
0
-3.39962
0
0
0
-3.16168
0
-0.832822
0
-1.82059
-0.405876
-9.02983
-6.17802
-0.332039
-3.62502
-1.95404
-0.975309
0
-1.67311
0
0
0
-8.73776
-0.664728
-0.599807
-2.45765
-1.00345
-1.97611
-4.03851
0
-4.21536
-5.6534
0
-0.0698414
-5.3038
-1.42237
-1.13103
0
-1.25058
-0.489449
-2.48779
-2.24703
-1.61522
-0.52716
0
-6.06811
-3.70281
-1.39914
-0.774868
-3.3185
-2.58596
-4.20723
-1.50872
-4.3426
-2.3524
-1.47831
-3.16792
-4.89183
-1.64372
0
-5.06787
0
-6.92436
0
-3.05303
0
-9.16988
-1.26633
-8.15009
0
-5.36253
0
0
0
-3.31687
-2.24427
-5.5644
-1.04611
-0.102357
0
-0.320619
-4.72417
0
-2.90153
0
-5.99369
0
-0.443429
0
-1.19084
-0.103962
-4.62637
0
0
-1.24181
-1.72542
-3.16177
-1.5215
0
-1.1127
-1.83331
-0.988616
-0.676323
0
-2.41605
-0.609427
-5.18882
-0.577417
-4.43479
-6.01227
-1.37948
-8.63961
-1.3401
-5.68853
0
0
-2.38164
-2.56735
-2.42638
-1.82973
-5.64027
0
-2.5625
0
-3.28263
0
-5.03552
-0.130226
-2.77796
-3.04886
-5.64654
0
-1.67564
-2.15404
-6.09909
-0.950772
0
0
-3.15308
-1.19316
-0.68924
-2.07872
-1.67526
0
-3.56606
0
-2.4927
-0.809415
-10.7374
-2.7032
-4.73317
0
-6.14263
0
-2.95484
-1.00317
0
-6.40583
0
-4.69235
-1.88832
-0.486644
-0.906059
-2.23481
-5.5046
-2.20509
-4.83028
-5.30955
-2.21093
-7.61915
-0.0778531
-4.84732
0
0
-0.0451323
-4.90591
-5.48374
-2.08963
-4.96758
-0.767005
-0.328112
-1.69019
-0.59668
-2.49787
-2.6687
-1.13569
0
-5.86525
0
-2.03748
-1.22956
-1.11817
-0.721146
-2.03499
-0.843795
-0.402018
-5.30798
-1.70505
-1.47976
-2.46972
-7.83332
-4.06809
-5.20183
-3.42594
-0.177073
-0.383056
-3.38249
-1.20412
0
0
0
-5.71823
0
-6.81171
-0.256428
-6.50507
-0.300212
-5.50807
0
-2.58348
-7.86985
-1.5494
-1.63778
-1.62586
0
-3.80104
0
-8.00374
-0.124844
-2.70162
-3.53857
-0.93839
-1.24912
-2.76139
-0.0359967
0
-5.33025
-0.26859
-4.16343
0
-4.35189
0
-3.50139
-3.22591
-1.08524
-5.00368
-0.468279
-7.46514
-1.21286
-0.0596089
0
-0.0367138
0
-1.89892
-0.0240839
-1.96951
-4.16431
-6.41154
0
-9.42911
0
-4.01894
0
0
-7.74417
-0.0337963
-5.40438
0
-6.09687
-1.41702
0
-7.35891
0
-6.52676
-0.254193
-4.62152
-0.139446
-3.92048
-2.03921
-1.28816
-5.30305
-2.16927
-2.04708
0
0
-0.7782
-2.93952
-0.954757
-0.75041
-0.845124
-4.92949
-4.22007
0
0
-4.72066
0
-3.37961
-7.04087
-2.55296
-1.79592
0
-6.31113
-7.10146
0
-4.79223
-1.6868
-2.87317
-0.860528
-8.15874
-0.336899
-1.90776
-2.01016
-1.30146
-2.4464
-0.890583
-3.91716
-2.94422
-8.18335
0
-2.99968
-0.0166643
0
0
0
0
0
0
0
0
0
0
0
0
0
0
0
0
0
0
0
0
0
0
0
0
0
0
0
0
0
0
0
0
0
0
0
0
0
0
0
0
0
0
0
0
0
0
0
0
0
0
0
0
0
0
0
0
0
0
0
0
0
0
0
0
-0.156046
-1.30088