<?xml version="1.0"?>
<VTKFile type="RectilinearGrid">
<RectilinearGrid WholeExtent="0 32 0 32 0 32" Origin="0 0 0" Spacing="1 1 1">
<Piece Extent="0 32 0 32 0 32">
<PointData>
</PointData>
<Coordinates>
<DataArray type="Float32" format="ascii">
0 0.524874 1.04975 1.57462 2.0995 2.62437 3.14924 3.67412 4.19899 4.72386 5.24874 5.77361 6.29849 6.82336 7.34823 7.87311 8.39798 8.92285 9.44773 9.9726 10.4975 11.0224 11.5472 12.0721 12.597 13.1218 13.6467 14.1716 14.6965 15.2213 15.7462 16.2711 16.796 
</DataArray>
<DataArray type="Float32" format="ascii">
-5.03879 -3.62163 -2.20447 -0.787311 0.629849 2.04701 3.46417 4.88133 6.29849 7.71565 9.1328 10.55 11.9671 13.3843 14.8014 16.2186 17.6358 19.0529 20.4701 21.8872 23.3044 24.7216 26.1387 27.5559 28.973 30.3902 31.8074 33.2245 34.6417 36.0588 37.476 38.8931 40.3103 
</DataArray>
<DataArray type="Float32" format="ascii">
0 0.524874 1.04975 1.57462 2.0995 2.62437 3.14924 3.67412 4.19899 4.72386 5.24874 5.77361 6.29849 6.82336 7.34823 7.87311 8.39798 8.92285 9.44773 9.9726 10.4975 11.0224 11.5472 12.0721 12.597 13.1218 13.6467 14.1716 14.6965 15.2213 15.7462 16.2711 16.796 
</DataArray>
</Coordinates>
<CellData>
<DataArray type="Float32" Name="Scalar" format="ascii">
0
0
0
0
0
0
0
0
0
0
0
0
0
0
0
0
0
0
0
0
0
0
0
0
0
0
0
0
0
0
0
0
0
0
0
0
0
0
0
0
0
0
0
0
0
0
0
0
0
0
0
0
0
0
0
0
0
0
0
0
0
0
0
0
-0.236218
-1.04831
0
-0.177186
-0.707328
-0.20842
-0.399985
-0.40129
-0.931208
0.026871
0
-0.00497189
-0.182763
0
-0.281493
-0.259163
0.274415
-0.0502787
-0.0312707
-0.0250002
-0.8741
0
-1.12701
-0.380745
0.141234
-0.0431353
0
-0.265235
-0.302413
0
0.0861251
-0.482421
-1.03384
-1.25163
0
-0.901731
-0.302395
0
-0.644008
-0.268716
0
-1.96777
0
-0.276413
-0.447573
0
-0.373485
-2.1553
0.0610813
-0.444014
0
-1.4707
-0.37819
0
-1.58916
0
0
-1.21809
0
-0.289372
-1.24327
0
-0.479706
-1.81297
-0.709209
-2.4684
0
0
-0.015524
-2.31901
0
-5.28534
-0.425683
-0.810003
-0.040837
0
-2.76831
-0.454861
-4.63515
-6.75513
-1.50658
-5.40112
0
-3.88403
-3.04378
-0.0680642
0
-0.390672
-2.59608
-0.656062
0
-0.634143
0
-1.69489
-6.62336
-0.460734
-3.93172
-2.29507
0
-2.19524
0
-5.34849
-2.80914
-3.31289
-5.56493
-0.167827
-5.54404
0
-1.57335
0
-5.27079
0
0
-6.75994
-1.24875
-13.5759
0
-5.04978
-4.66777
-0.0659847
-1.85312
-2.79933
-2.78294
0
-6.3848
-1.17578
-3.21422
0
-10.6754
0
0
-1.21102
-1.62673
0
-5.98676
-2.67918
-1.32311
0
0
-8.63116
-1.58091
-3.49256
-3.59722
-7.4452
-3.47563
-8.40977
0
-3.95463
-0.661463
0
-0.712328
-8.10616
-4.37367
-3.68149
0
-1.29271
-3.54068
-2.86258
0
-0.0641684
0
-13.1498
-1.12357
-13.6204
0
0
0
-0.823315
-1.68395
-0.264095
-1.3384
-3.17884
-5.52025
-0.163838
-3.91961
-0.568413
0
-1.44357
-1.45387
-3.48395
0
-5.86627
-2.40949
0
-2.0576
-3.24197
0
-0.058638
-2.91432
0
-2.6571
0
-2.75212
0
0
-8.88632
0
-5.24135
0
0
0
0
0
0
-3.92125
-1.03542
-10.5435
-0.814385
-4.27285
-1.69178
0
-2.80028
-1.01124
-2.21091
-4.70765
-4.07078
-10.186
0
-3.67296
0
-0.00390108
0
-3.56062
-3.47753
0
0
-0.200954
-1.7437
-3.84492
-1.21214
-0.00804373
0
-5.85579
-0.180081
-5.85928
-0.481337
-0.338868
-5.84507
0
-5.07858
-3.78607
-2.25366
0
-0.714689
-2.5907
0
-5.81285
0
0
0
-5.87613
-0.100413
-5.0215
0
0
0
0
-5.34319
-3.91979
-9.44228
-2.19994
-7.49488
-2.21193
-1.58581
-2.43636
-1.38075
-10.8591
-2.72799
-1.43142
-4.72749
-1.9437
-6.91557
0
-2.46322
-1.11678
-4.00388
-0.766303
-1.23435
-2.91834
0
0
-6.24501
-1.13032
-4.35546
-2.56394
-1.39613
-3.61204
-2.23963
-1.30644
0
-3.06003
-2.85273
-0.195808
-5.03518
-1.07386
-4.17664
-2.46699
-1.50816
-1.90523
0
0
-0.331586
-2.16843
-0.806463
-6.61878
-0.0823534
-2.9783
0
-2.89423
-6.9838
-0.0550632
0
-1.1232
0
-6.26135
-0.0588356
0
-7.64657
-0.82842
-4.17935
-0.382164
-4.96782
0
-4.24846
0
0
-5.50545
0
-1.52529
-2.69287
-3.43625
-1.40848
-4.31427
-1.80436
-0.85956
0
-3.14398
-1.49908
-2.39689
-2.04064
0
-4.26258
0
-6.05416
-3.87968
0
-8.79595
0
-8.94169
-1.31167
-7.63926
-0.511453
-1.14051
-5.87912
0
-3.33642
0
-0.949675
-2.59248
0
-4.55124
0
-1.46947
-9.48911
0
-2.45362
-4.63607
0
-2.39378
-2.4996
-8.41369
-1.08983
-7.44403
-2.57562
-12.9094
-4.10321
-5.91439
-4.77664
-1.16697
-6.60362
-2.40583
-3.1276
0
0
-1.79685
-4.15027
-4.5404
-0.342027
-1.02211
-3.14216
-5.28342
0
-1.00462
-2.01016
-0.92866
0
-2.0427
-0.899588
-1.2456
-3.03226
-3.64647
-7.6693
0
-5.762
0
0
-1.65581
-0.134232
-0.403689
-0.190414
-1.99818
-0.784182
0
-9.65397
0
-1.87778
-0.144643
-2.43704
0
-3.72643
0
-0.819961
-4.7348
0
-9.31107
0
-1.78347
0
0
-7.57752
0
-2.24867
0
-2.754
0
-0.0954031
-0.0137509
-4.19303
-1.95294
-1.53027
-3.79583
-0.185737
-3.41383
-7.50122
-0.745185
0
-1.4785
-0.649254
-4.50485
-7.61696
0
-4.15591
-1.55134
0
0
0
0
-2.53248
-5.73617
-10.1888
-0.0542173
0
-2.09635
-3.06896
-1.37353
-2.77645
0
-1.2172
0
-1.41478
-0.594821
0
-3.45504
-1.02972
-1.65213
0
-1.35765
-0.283551
0
-1.36524
-4.4539
-1.23349
0
0
-4.92548
0
-2.96726
-1.04097
-4.89817
-0.231698
-1.45583
-2.84917
-2.12748
-0.946731
-0.544046
-1.6039
-0.745848
-6.54106
-5.34414
0
0
-5.31015
-0.63406
-2.75826
-0.509806
0
-5.30572
-3.84769
-0.192352
0
-3.71285
0
-1.54155
-3.88986
-0.051346
-3.7249
-0.88281
0
-6.73043
-2.65059
-1.90874
-2.68206
-7.76062
-3.12741
-3.51643
-1.78919
-6.76944
0
-1.04652
-2.38584
-1.39619
-2.34447
-1.16256
-5.57427
-4.61389
-5.08266
-1.29986
-4.96443
0
-2.04608
-0.235045
-3.3676
-0.108986
-1.27861
0
-2.4675
-1.71516
-0.362237
-2.72014
0
-2.4641
-2.1
-5.9817
-3.01882
-0.00750112
-0.863073
-0.593815
-1.41365
-1.33339
-3.15752
0
-6.82223
-1.04579
-4.21291
-6.63126
-2.88988
0
-7.14879
0
-7.53697
-2.17429
-4.98962
-0.104493
-3.24213
-6.67976
-2.08109
-1.7741
0
-0.304294
-2.48968
-0.98155
0
-1.31989
-0.693086
-0.213448
0
-0.809507
0
-1.70352
-1.74174
-4.17126
-2.04322
-4.40896
-0.722631
-5.87931
-2.75892
-5.9399
-0.628481
-7.5518
0
-0.374583
-5.94389
-2.6895
-4.37201
-1.46872
-0.294682
0
-2.62693
-5.07405
-8.85682
-0.466965
-4.4167
-4.08172
-2.22248
-4.27541
0
0
-4.29268
-2.28579
-2.80469
0
0
-6.59615
0
-1.62489
-0.0330494
-0.0429217
-7.09208
-0.536067
-6.05584
-3.48112
-9.38482
-0.117061
-9.51212
0
-1.15261
-4.6923
-6.94675
-0.725123
-0.435282
-2.10315
-8.75349
0
-5.04504
0
0
-1.7004
-0.335384
0
-6.51523
0
-3.74738
-0.997109
0
-6.3855
-1.33013
-7.77571
0
-4.59516
-1.1701
-1.73115
-5.2976
0
-4.40495
0
-8.22773
0
-11.033
0
0
-3.38949
-1.1295
-4.21518
0
-8.26861
-0.721297
-3.70469
-6.41134
-0.144094
-7.60609
-2.48786
-2.03779
0
0
0
-0.68046
-6.07114
-3.76665
-3.9512
-0.56122
-0.308214
-5.85009
0
-2.6009
-3.29861
-3.5203
-0.511464
-3.4594
-1.49508
-2.36099
-1.78383
-2.98785
-3.20502
-3.58149
-2.46644
-5.50794
-3.53408
-1.53645
0
-1.19428
-1.80005
0
-1.11165
-1.01337
-4.98823
0
0
-3.47152
-2.11166
-3.80098
0
0
-4.15793
-2.98559
-4.74227
-0.874231
-1.94474
-0.856599
0
-3.48832
-4.21352
-0.426301
0
-0.346831
-3.49224
0
0
-3.61073
-0.706248
-1.93421
-0.296683
-3.24005
0
-1.65433
-2.29728
-0.837112
-3.4918
0
-8.11073
0
0
-4.4878
-7.57091
-5.68253
-4.5188
-7.86075
-6.30292
-0.221037
-0.250675
-1.49909
-2.73465
-0.0555851
-3.33212
-0.517008
-2.21649
0
-3.13316
0
-1.10463
-4.11274
0
-2.47504
-1.01467
-4.01801
-4.85986
-4.49771
0
-1.73627
0
0
-3.40049
-2.39842
-0.755238
-1.28001
-3.74612
-1.29956
-5.79036
-0.287626
-4.40322
-6.38984
-2.64093
-3.35155
-0.441989
-1.04752
-1.76222
-2.68421
-5.20356
0
-1.22092
-2.44453
0
-0.0519141
0
-1.1049
-4.1683
-2.06129
-1.15395
-3.65964
-2.31492
-2.66111
-0.734245
-0.676994
-2.36623
-1.67763
-0.426449
-3.11702
-3.76453
0
0
0
0
0
-4.81884
-0.0690051
-4.43966
-1.24617
-0.378831
-4.87551
-1.11141
0
0
-1.18996
-5.86002
0
-9.7187
0
-0.786358
-1.16116
-4.90332
0
-4.37343
-0.165733
-1.76899
-0.64154
-2.41616
-0.686884
-3.82422
0
-4.30856
-0.999104
-1.12755
-7.69642
-2.25692
-5.61513
0
-5.09844
0
-4.92857
-3.09877
-3.04743
-0.388307
0
-1.55217
0
0
-0.839888
0
-6.30502
-0.156483
-0.170362
-0.973212
0
-2.03231
-3.98837
0
0
-2.12372
-6.58673
-4.27162
-4.90676
-0.656808
-7.23164
-3.61932
-0.673294
-2.56395
0
-5.9741
0
-2.25867
0
-4.40937
0
-4.16825
-1.16135
0
-1.35609
-6.91338
-1.05638
0
0
-3.2233
0
-0.852622
-1.64589
-0.689394
-1.02536
-0.50779
0
-0.0381479
-1.67352
0
-3.58518
-0.839719
0
-1.38057
-3.09749
0
-3.90803
0
-4.22257
0
-5.06571
0
0
-2.56812
-5.90691
0
-0.132365
-2.1168
-0.973085
-5.25124
-1.86375
-1.75594
-3.68643
-5.10494
0
-10.9838
-0.718721
-4.58113
-0.753139
-6.11252
-3.78073
-3.98852
-5.90754
-6.48927
-2.07374
-1.97204
-6.95409
-0.960325
-3.89945
-1.0392
-0.111326
-3.07011
-0.240307
-4.84485
-3.62905
-3.68837
-0.159236
-1.91237
-2.13446
0
0
0
0
0
0
0
0
0
0
0
0
0
0
0
0
0
0
0
0
0
0
0
0
0
0
0
0
0
0
0
0
0
0
0
0
0
0
0
0
0
0
0
0
0
0
0
0
0
0
0
0
0
0
0
0
0
0
0
0
0
0
0
0
-1.10138
-1.41769
0
-1.06831
-0.370574
0.226303
-1.63315
-1.34739
-0.221508
-1.22124
0
-1.92105
-2.32933
-0.408197
-0.888713
-0.472297
-0.29624
-1.2696
-0.0562481
-1.7472
-1.47559
-0.209555
-1.23144
-1.92287
-0.277846
-1.28221
0
-0.538712
-0.267077
-0.360298
-1.20737
-0.892741
-0.0427956
-0.956521
0
-0.225255
-2.86575
0
-0.625465
-1.87286
-0.891822
-0.303263
0
-2.82626
0
0
-1.94784
-0.344039
-0.164894
-2.20934
0
-0.838622
-4.59975
0.0267581
-2.4279
-0.976105
-1.69293
-1.88083
0
-2.63444
-0.362524
0
-3.20394
-0.572099
-1.35375
-5.77786
0
-5.16004
-3.41068
-1.42176
-5.28723
-1.64452
-0.515046
-10.5422
-8.23115
-7.97692
-5.74401
-4.00376
-4.08126
-1.15116
-2.40556
-2.2638
-1.95112
-7.26454
-3.65663
-4.86542
-6.64478
-8.46914
-1.19544
-6.26368
-0.647789
-6.59248
-3.93126
-1.6741
-0.0326264
-9.50396
-0.564802
0
-2.7439
-2.85114
0
0
0
-0.372232
-3.42457
0
-0.123656
-1.29292
-7.82548
0
0
-4.53095
-4.13019
0
-0.488292
-5.13769
-1.60353
-0.469373
0
-5.92092
0
-5.42439
-2.52717
-0.511382
0
0
-3.98755
0
0
-9.11509
0
-8.02266
-1.66076
-0.840362
-2.70012
-2.12943
-2.46187
-2.02135
-3.98672
0
-5.50193
0
0
-2.31157
0
-1.76947
0
-0.394063
-2.16223
-4.16823
-5.34034
0
-0.115668
-0.431819
-4.28912
-1.56062
-1.18768
0
-2.65875
-4.14098
-3.49188
-2.98666
-3.18585
0
-2.85566
-0.933707
0
-2.89594
-2.89526
-2.98791
-4.58694
-2.26758
-0.0358541
-0.609128
-5.16129
-0.0939395
-4.45046
-1.49635
-2.85905
0
-6.16621
-0.0236451
0
-1.28054
0
-1.2438
-2.28158
-2.05976
-1.58247
-0.0288666
-2.90762
-2.99849
0
-7.55223
-1.10551
0
-1.8492
-9.09719
-3.63881
-2.45564
-2.3213
-3.54408
0
-7.30785
-0.141945
-2.06842
0
-2.65581
0
-5.15731
-0.551139
-3.24644
0
-0.633261
0
0
-3.87809
-0.784991
-2.04937
0
-4.33873
-0.158928
-3.25944
-8.16153
-1.39292
-3.14837
-3.63812
-1.40715
0
0
-5.99773
-0.4873
-3.07305
0
-4.4003
0
-6.0739
0
-3.82711
-2.46459
-1.69345
0
-4.75995
-2.92937
-2.14576
-5.20857
-7.93394
0
-7.06409
-0.181027
-3.54717
-3.73111
-3.7405
-0.809176
0
-1.252
-2.6176
-3.83524
-0.482101
0
0
-0.551915
-1.1801
-7.42506
-2.36954
0
0
-0.522033
-5.09531
-0.623294
0
0
-7.09584
-0.630483
0
-1.77919
-0.767611
0
-2.5546
-2.21856
0
0
-1.18574
-4.01747
-0.675776
-4.47931
-0.057303
-2.36227
-2.30461
-0.574645
-0.953824
0
-3.53317
-0.75352
-1.99889
-1.90727
-2.0049
-0.863339
-4.24588
-1.94521
-4.0106
0
-5.51286
0
0
-10.3245
0
-0.208995
0
0
-0.804163
-3.81272
-0.308735
-4.61184
-3.22234
-0.606493
-6.81171
-0.953082
-4.53102
0
0
-0.355709
-2.68903
-0.134162
-3.51284
-4.82182
-1.86483
-0.503716
-4.82756
-1.59494
0
-4.31553
0
0
-3.22096
-5.46537
0
0
-2.77778
-5.34599
0
-3.9135
-0.878252
0
-4.24644
-8.95414
-2.61865
-4.02449
0
0
-0.0995249
-5.49853
-0.628697
-1.58909
-6.72944
0
-5.08733
0
0
-5.34118
-2.80731
-5.78303
-1.84085
0
-8.37364
-5.6504
-0.922299
-7.63415
-0.672252
-2.06548
0
-1.44974
-4.17552
-0.819363
-0.209714
-1.44491
-1.02336
0
-6.43462
0
-5.68034
-2.44232
-1.03338
-4.22045
-4.24265
-1.60979
-0.351349
0
-4.71967
-0.410753
-0.0438288
-1.35875
-0.340221
-5.17836
0
-4.98064
-0.789401
-0.80023
-1.47288
0
-7.97731
0
-3.51618
-4.51112
-2.28009
0
-6.07905
-1.19434
-3.19845
-1.83205
-2.71272
0
-3.32474
-1.25097
-0.266005
-1.28878
0
0
-4.30489
-0.781432
-1.68714
-1.134
-2.68377
-3.83976
-1.47382
-3.63588
-1.59199
-2.12436
-3.73901
-0.614438
0
-5.86522
0
-1.1462
-1.15922
-1.34545
-0.167865
-2.33644
-2.57774
-1.90953
-4.10006
-2.48405
-3.26982
-1.99252
0
-2.69122
-8.48536
0
-0.576026
0
-3.6441
0
-3.69464
-0.817217
-4.6567
0
-6.72193
0
-1.66541
0
0
-7.71983
0
-4.48116
0
-5.07359
0
-5.74406
-0.812629
-3.35013
-0.753098
0
-1.76317
-1.43007
-3.44281
-5.71701
-1.92875
-7.18214
0
-8.03091
0
-1.51543
-6.38232
-1.59193
-0.668663
0
-6.85758
0
-1.91066
0
-4.31406
0
-1.54307
-5.07876
-0.929073
-3.95574
0
-0.141728
-0.303886
-8.05115
0
-0.709906
0
-6.18335
-1.66595
-8.03967
-2.80239
-1.12263
-6.45001
-7.08948
0
0
-1.24956
0
-1.81519
-0.366575
-1.08091
-3.53986
-1.17182
-0.879954
0
-0.0711088
-0.0290636
-2.33053
-3.35705
0
0
-9.26678
0
-3.48886
0
-0.257009
-3.49148
-1.71935
0
-3.90875
0
0
-3.61277
-1.47386
-7.6908
-6.38601
-2.08611
-4.65695
-4.23122
-0.1762
-4.26247
0
-3.46905
-2.46724
-3.19498
0
-1.90004
-0.0673961
-5.08959
-1.93179
-0.211563
-3.05394
0
-3.15388
0
-0.135729
0
-0.350539
0
-0.127132
-4.86571
0
0
-3.42151
-2.54154
-5.28674
-0.797851
-0.452595
0
-5.95438
-1.52757
-2.62069
-3.39029
0
-2.02572
0
-0.373686
0
-6.22671
0
-3.33324
0
-1.44207
-3.05102
0
-0.646901
-2.22246
-1.82692
-3.19606
-1.95974
0
-1.16706
-0.665408
-0.617037
-0.549566
0
0
-1.69486
-4.37424
-3.76831
0
-0.235054
0
0
0
0
0
-0.938625
-5.56497
-5.93148
-1.43577
0
-0.685793
-5.3264
-4.78907
-0.315232
-0.626186
-0.654743
-5.69434
-2.66429
-0.159248
-0.877689
-4.14545
0
-4.09659
0
0
-0.00652606
-0.0679837
-6.67586
-0.178813
-2.61747
-2.97524
-0.898763
-2.29681
-0.318361
-0.983207
-2.37935
-0.824524
-1.85396
-1.5722
-0.825221
0
-2.43428
-2.19024
-5.09484
-2.39706
-3.87022
-0.0754716
0
-0.0370448
-0.228691
-4.66464
-3.29226
-0.931061
-6.65157
-2.26189
-1.77427
-1.89845
0
0
-0.209275
-1.19624
-4.16817
0
-3.01788
-0.563206
-7.10246
0
0
-2.21485
-0.415443
-5.3538
-1.27282
-3.64336
0
-8.10525
-6.06417
-3.82739
-9.67873
-0.899354
-0.300277
-3.56203
0
-7.40389
0
-9.50684
-0.271469
0
0
0
-5.03287
-0.22359
0
-6.22426
0
-1.01331
-3.25964
-2.19881
-0.682116
-0.34775
-1.30771
-3.78444
-0.470373
-1.88502
-2.39944
-2.19514
-0.219023
-0.861222
-0.847425
-3.08207
0
-0.485247
-0.769128
-7.18994
-0.767527
-2.82261
-1.42435
-2.52824
-2.71408
-4.7381
-2.99868
-5.60409
0
-0.825892
-4.90201
-9.04932
-2.88495
-5.59221
0
-8.86761
-0.514458
-0.319584
-1.86066
0
0
-0.0754743
-3.26693
-2.72892
0
-5.22136
-1.34155
-3.55876
-1.91014
-6.28724
0
0
-7.02365
0
0
-2.39926
-5.13023
-3.09897
-4.70972
-3.86864
-0.917492
-2.59643
-0.394957
-1.46918
0
-1.95634
-2.36182
0
0
-0.212697
-2.9631
-0.282913
-2.15439
-0.105489
-1.76839
0
-3.64678
-1.15794
-4.43606
-3.12771
-2.80538
-4.08399
-1.61695
0
-0.33322
0
0
0
-0.227601
-0.287525
-0.208167
-3.27808
-8.72309
-0.897283
-0.937801
0
-4.88926
-3.44048
0
-0.00302461
-3.3844
-1.4962
-0.439699
0
-1.3332
-0.256794
0
0
-0.534478
-3.14255
-4.94105
0
-3.22657
-2.97912
-1.41354
-1.0731
-5.18575
-2.90562
0
-4.45594
0
-5.48718
0
-0.89655
-1.1477
-1.81052
0
-0.338055
-3.04636
-0.693033
-2.08828
-0.874373
-0.00596624
-4.5371
0
-4.25994
-1.11871
-6.22097
-2.05104
-2.46029
-2.38419
-4.55759
-0.641362
-1.25757
-4.75466
-0.826327
-0.240262
0
-0.362826
-2.33456
0
0
-4.17283
-1.50655
0
-3.37926
-7.10371
-0.214975
-0.600199
0
0
-6.36288
0
-0.054638
-5.07087
-0.849387
0
-1.81476
-2.29791
-0.357946
-7.30993
-0.544162
-2.92214
-3.1665
-7.29677
-4.32154
0
0
-1.62
0
0
-1.2742
-3.1254
-2.39957
-2.84437
-3.23507
0
-8.08613
0
-8.24415
0
-2.01363
-1.16997
-9.27298
-2.9797
-2.60512
0
-5.84809
0
-2.60321
0
0
-1.32709
-0.0768015
0
-1.86673
-1.11278
-1.31593
-3.47939
0
-0.11022
-3.29682
-7.13651
-0.136625
0
0
-0.48099
-0.944241
-2.06431
0
-0.220713
-0.498341
-3.06469
-1.98556
0
-7.41143
0
-4.26299
0
-3.25044
-2.9528
-2.20444
-0.162643
-1.4349
-3.81471
0
-0.218419
-6.82754
-1.13874
-1.5462
-2.53058
-4.95866
-3.43554
-2.61827
-2.54591
-3.25815
-0.32349
0
0
-2.97418
-0.0523949
-5.45607
0
-4.29032
0
-1.1402
-3.26743
-4.03994
0
0
0
0
0
0
0
0
0
0
0
0
0
0
0
0
0
0
0
0
0
0
0
0
0
0
0
0
0
0
0
0
0
0
0
0
0
0
0
0
0
0
0
0
0
0
0
0
0
0
0
0
0
0
0
0
0
0
0
0
0
0
0
0
0
-0.186925
0
0
0
0
0
-0.111664
-0.240597
-0.367887
0
0
0
-0.190875
0
-0.309098
-0.259416
-0.21585
0
0
-0.0537656
0
0
-0.576445
-0.019613
-0.0517484
0
0
-0.402894
0.0099639
0
0
0
0
0
0
0
0
0
0
0
0
-0.123328
0
0
-0.229223
0
0
0
0
0
0
0
0
0
0
0
0
0
0
0
-0.338905
0
0
0
0
0
-1.92184
-1.95056
-1.35031
-2.60377
-2.76328
-4.73184
-2.88484
-3.03309
0
-0.0240835
-0.429406
0
-6.3101
-3.02248
-1.21306
-4.56611
-4.87995
-2.45648
-1.41287
-0.616938
0
-0.142877
-2.33271
-0.0289532
-3.07931
0
0
-4.66438
-1.68717
0
-7.21706
-5.42771
-1.60644
-1.54529
-6.79626
0
-5.95275
-3.5065
-1.94667
-3.52407
-1.83555
-0.256953
0
-7.0955
0
-2.45504
0
-1.87972
-2.21087
0
0
-7.27357
0
-0.0634885
0
-3.22162
-3.03408
-0.754572
-2.8844
-3.04773
0
0
-5.61726
-0.358139
-1.33294
-1.06125
-1.87547
0
-3.20699
-4.2396
-6.77583
-2.31744
0
-1.68879
-0.860946
-5.20393
0
-6.03542
-3.01262
-3.03348
-4.02546
-5.03776
-7.33449
0
-1.62226
-1.06571
-9.05272
-3.93579
-4.97952
-1.4299
-3.50149
-8.82736
-4.48888
0
-3.41706
0
0
-5.00496
-1.36511
0
-2.21215
-2.87858
0
0
-7.53299
-0.853744
-4.21384
-0.365948
-1.15992
-0.028704
-3.785
-1.13429
-3.72139
-1.6794
0
-2.41812
-6.36141
-2.55905
-2.85379
-0.325544
0
-2.15324
-1.54961
-4.70537
-0.720572
-0.595514
0
-3.39497
-1.65645
-5.23651
-3.87764
0
0
0
0
0
-7.4303
0
0
-2.404
-0.552017
-5.1612
-0.978378
-6.17857
-0.53261
-1.40464
-1.4999
-4.98582
0
-5.87484
0
-5.03736
-1.26226
-5.31428
-0.210398
0
-0.265305
0
0
0
-0.37702
-2.5766
-2.53733
-3.39436
0
-0.103584
-1.24515
0
-1.09281
0
0
-5.68419
0
-3.7398
-5.2352
-0.764086
-4.53083
-0.635846
0
-2.38214
-2.81718
0
0
-2.63821
-4.18011
0
0
-2.68571
-0.452447
0
-8.69805
-0.0557508
-0.921536
-2.4024
-0.579825
0
-3.25351
-0.974346
-2.84617
-2.87651
-3.55146
-6.77337
0
-0.772735
-4.93475
0
-1.8333
-6.98841
-2.80541
-8.4324
0
-9.73121
0
-3.52334
-0.625866
0
-1.0252
-1.0709
-3.24489
-2.06678
-2.08101
-3.21803
0
0
-9.07684
0
-4.18887
-2.04793
-3.23893
0
-1.3219
-2.22964
0
-0.481796
0
-3.40878
0
-5.10546
0
0
-0.664812
-7.36535
-0.214586
-3.74899
0
-2.68687
-0.389992
0
-0.298668
-4.29549
-3.10037
-2.1222
-7.18131
0
-7.83298
-0.0258568
-6.49826
-2.04897
-3.22045
0
-2.3671
-0.597586
-6.71834
-5.7313
0
-7.54258
0
-9.96016
0
-4.91417
0
-7.13575
0
-3.80485
-1.67204
-4.79759
-1.55343
-5.33238
-0.221309
-4.77415
0
-0.697213
-1.89589
-4.61692
-3.49605
-2.33871
-2.86127
-0.927844
0
0
-5.05033
-3.19962
-11.8661
-1.43923
-0.843234
-0.364409
0
-4.46694
-0.913391
-0.129268
0
-0.525475
0
-4.71802
-1.41511
-0.601801
-0.66183
-5.63381
-2.97
-0.373867
-4.70144
0
-1.11473
0
0
-0.737712
-1.61752
-1.21656
-0.460694
-4.35312
-2.40677
-4.32449
-1.78812
-4.53625
-0.492926
-1.46268
-3.50792
-6.74667
-1.06635
0
-0.207136
0
-5.78671
0
0
-5.26725
-7.07136
-0.505558
-2.40639
-1.39492
0
-1.98886
-1.47733
-0.654384
-6.81337
0
-3.17643
0
-0.379874
-3.15797
-5.98868
-0.761612
-4.12149
0
0
-4.26148
-0.947968
-4.86106
-0.717148
-0.520059
0
-0.8559
-2.37072
-3.8805
-3.89065
-1.62386
-2.1786
-2.02735
-1.42182
-4.47079
-3.11278
-2.77632
-2.98313
-2.95937
-4.50533
0
-0.887646
-3.6126
-1.71066
-6.94941
-0.932728
-3.58005
-0.585078
-3.78122
-1.14875
-2.44001
-0.343749
-4.08244
0
0
-0.133601
-1.4739
-0.956627
-1.92277
-0.143845
-0.314106
0
-1.1244
-3.76242
-0.0982478
-3.62392
-0.237838
-0.159963
-1.41795
-0.345385
-4.89836
0
-6.8635
0
-0.792374
-0.624267
-2.55037
-4.73566
-3.25396
0
-2.51183
0
-4.96055
-2.49276
-6.60486
0
0
-4.58648
0
-3.15322
0
-4.38453
-3.78464
-1.24757
-1.04538
-0.719234
-0.90074
-1.50048
-1.42865
-5.2776
-6.9326
-1.70806
-2.0512
0
0
-0.772882
-2.15757
0
-1.75094
0
-6.16524
0
-4.16128
-1.95934
0
0
0
-0.450225
-3.37401
0
-1.25391
-0.049797
-2.15186
0
0
-0.840215
0
-4.81473
-4.2882
-2.991
-7.66342
-0.808751
0
-1.45492
-1.20319
-4.15848
-1.28476
-1.61629
0
-1.32942
-0.382716
-0.136257
-0.192172
-5.86687
0
-7.29231
0
-0.852063
-4.14565
0
-4.62305
-2.68507
-5.92522
-0.209543
0
-2.09742
0
-14.6993
0
-1.43256
0
-10.6433
-2.05259
-7.81438
0
-1.95048
0
-7.01549
0
-4.21603
0
-5.01379
-4.00024
-7.38927
0
-1.75676
-3.80167
0
-7.90297
-0.234098
0
-5.92248
0
-0.229482
-3.07036
-2.62588
-1.22942
-7.8921
-1.39721
-0.574036
-0.696877
-4.21159
-1.37357
-1.79732
0
0
-0.662568
-3.65516
-1.70458
-3.19546
-0.180358
-5.50964
-0.113037
0
-2.06881
-5.18314
-5.3269
-5.61135
0
-3.64626
-5.95196
-2.4314
-5.27744
-0.355755
-0.83761
-8.36413
0
-2.18375
-0.0500835
-0.254719
-3.43266
-6.62341
-1.89113
0
0
-1.92895
-0.995027
-2.86644
0
-2.4706
-0.15797
-5.85227
-4.91536
0
-1.67516
0
-3.26909
-2.17841
0
0
-3.52975
-4.95542
-2.96262
-1.44575
-0.206185
0
-4.30565
-1.10218
-4.84972
-1.71333
-3.71497
0
-1.11976
-11.0149
-1.11015
-8.47739
-8.05111
-2.81096
-6.8519
0
-1.9722
-4.81328
-1.12445
-1.06822
0
-1.77551
-1.15039
-2.69783
-0.122512
-1.4152
-0.597772
-0.137217
-2.7633
-3.71904
-3.10436
0
-8.23524
0
-6.87891
-1.75709
-0.524037
0
-0.208044
-0.261899
-0.710933
-0.207364
-0.144399
-1.12547
0
-0.712405
0
-1.71261
-1.99814
-4.69533
-0.408792
-8.84011
0
-11.1738
0
-4.66566
0
-3.97273
0
0
-2.92423
-5.21525
-5.0884
-1.39076
-6.55018
0
-2.11635
-0.0832038
-1.49602
-1.10179
-0.864997
-1.03452
-5.11434
-8.15299
-0.487131
-0.243584
-1.87725
-1.02894
-0.558683
-2.35325
-5.18399
-3.05934
-0.124768
-2.70444
-4.94174
-3.60119
-2.16435
0
-8.46951
0
-2.27464
-1.16986
0
-4.04079
-0.440816
-4.179
-0.286157
-3.62833
-2.11962
-3.31215
-5.53734
0
0
-7.11126
0
-5.46483
-3.40861
-3.76324
-2.28232
-5.43516
-2.9216
-5.62234
-2.49059
-4.71805
-5.77334
-1.00475
-1.23872
-4.03337
0
-0.967508
0
-4.03723
0
0
-1.95363
-0.454851
-1.79563
-1.35935
0
-7.48671
-0.379732
-0.349171
-1.82228
-0.934914
0
-3.37239
-0.780672
-1.10904
-2.76348
-0.601974
-5.55304
0
-7.4499
-1.30587
-6.9684
0
-6.59689
-1.32196
0
-2.57726
-6.91517
0
-3.91041
0
-6.00593
-0.277206
-1.00001
-5.63921
-2.709
-8.10485
-4.3307
-0.642167
-2.4784
-4.63255
0
-6.50078
-2.06931
0
-0.714704
-1.96829
-5.31526
-3.5363
-0.730299
-2.55396
-0.698271
0
0
-1.97352
-2.13174
-4.58383
-1.27286
-3.79066
-0.639022
-0.190436
-1.32813
-0.918523
-2.20034
-6.09928
-2.04136
-0.749882
-1.11768
-1.62455
-3.66188
0
-0.681774
-2.54536
-0.0741834
0
-3.6983
-1.50898
-3.96966
-2.63489
-0.844697
-2.8964
-2.33512
-4.26064
0
-1.72199
-1.06348
0
-7.89998
-0.500769
0
-2.55795
-1.1212
-7.29398
-0.0274797
-1.40328
-0.791623
0
-1.68647
-0.240496
-7.34993
-1.32576
-0.368953
-1.95417
0
0
-4.17106
-1.73598
-1.59703
-1.0563
-5.12648
0
-3.46869
-4.39192
-0.75089
-2.31785
0
-6.94886
0
-3.9268
0
-0.924725
-1.2081
-3.46871
-2.38659
-7.72945
-1.82411
0
-3.02509
-5.08443
0
0
-2.89148
-1.09891
-10.4194
-4.8135
-0.337357
-1.27227
-0.296072
-1.64594
0
-0.225088
0
0
-4.18085
-1.03087
-0.5952
-2.82963
0
-5.56283
0
-4.56104
-0.885271
-1.42658
-1.61649
0
-0.697626
-2.80086
0
-0.247129
0
0
-7.31127
-1.59617
-0.199081
-3.51564
-4.02098
-0.193059
-3.58362
-4.2558
-7.47854
-0.845226
-3.29326
-6.64126
-0.386038
0
-1.4621
-0.991606
-2.97565
-3.69518
-4.25702
-5.48592
-4.39121
-0.853877
0
-2.65154
-1.71458
-4.17251
-4.94739
-0.698157
-6.14462
0
-8.75946
0
0
0
0
0
0
0
0
0
0
0
0
0
0
0
0
0
0
0
0
0
0
0
0
0
0
0
0
0
0
0
0
0
0
0
0
0
0
0
0
0
0
0
0
0
0
0
0
0
0
0
0
0
0
0
0
0
0
0
0
0
0
0
0
-0.0548553
-1.50628
0
-2.03066
-1.83123
0
-2.01353
-1.0707
-0.570413
-2.04799
-0.112181
-1.23875
-1.11571
0
-1.04703
-0.983427
0.114588
-1.04771
-0.276215
-1.86565
-1.38897
0
-1.12908
-0.683932
-1.30691
-0.890345
0
-0.856618
-1.81195
-0.346914
-0.955962
-1.16186
-1.28347
-0.552889
0.0164362
-2.10399
-0.299997
0
-2.39806
-0.131361
-0.0718604
-2.25485
0
-0.908351
-1.24336
0
-0.112845
-0.676302
-1.33133
-0.331933
0
-1.13086
-0.0963536
0
-2.11511
-0.0253964
-0.573398
-2.01303
0
-0.489765
-3.93589
0
-0.740862
-1.49856
-4.93997
-5.19748
-0.40949
-2.82699
-5.1742
-4.90822
0
-6.21633
0
-4.6311
-4.34369
-1.33461
-6.57352
-1.18174
-1.58754
-0.551912
-3.81494
-5.66682
-0.0370172
-2.25575
-1.02499
-4.25663
0
-4.8065
-0.532005
-5.45808
0
-1.00693
-6.26556
0
-6.3363
0
0
-1.49127
-4.24202
0
-6.47624
0
0
-0.211544
-1.39693
-0.903279
-0.268763
-6.53955
-1.28209
0
-6.85046
-3.26571
0
0
0
-4.11236
-0.44775
-3.33641
0
-1.45525
-1.01346
0
0
-7.13554
-1.39438
0
-6.25435
-1.38287
0
0
-7.83994
0
-7.50021
-3.8352
-3.61118
-0.339675
0
-7.00761
0
-2.44083
-0.736119
-6.1167
0
-0.395512
-1.83478
-0.877085
0
-0.411853
0
-0.988852
-1.32028
-3.5514
0
0
-0.884792
-2.32404
-0.531556
0
-7.21864
-4.07631
0
-3.41626
-1.05404
0
0
-8.15102
0
-3.84188
0
-4.27767
-2.61293
-3.10811
-4.96047
0
-3.12409
-1.27263
-2.56578
-2.8703
-2.70773
0
-7.09334
0
-0.0867696
-0.148669
-1.17709
-5.62952
-0.308197
-6.84349
0
-2.22142
-0.0829494
-5.12836
-0.297071
-4.09593
0
0
-0.181422
-7.49668
-4.51298
-9.38677
-9.44311
-7.63439
-0.491116
-1.20922
-4.66943
0
-6.3448
-0.66063
0
-2.18673
-3.15343
-2.67387
-5.3013
-1.94537
0
-1.42128
0
-6.0999
-1.77151
-0.25194
-7.73382
-0.2226
-9.35353
-6.04595
-4.61872
-2.92206
-3.27068
-3.72314
0
0
-4.79874
-0.948846
-1.49316
0
0
-3.97146
-4.44794
-3.02602
-3.95958
-6.97079
-5.6033
0
-5.46099
-0.367877
-5.0905
-6.13062
-0.743237
-5.80801
-0.284118
-1.60336
0
-2.00252
-3.26715
-2.25699
-0.973474
-5.58015
-0.714403
-2.67904
-1.62044
-0.0771882
-3.7288
-2.49382
-3.94046
-1.32063
-1.60135
-3.35496
-1.43561
0
-1.50919
0
0
-4.97879
-0.0804742
-2.89866
0
-2.26155
-1.88604
0
-1.25749
-4.85958
-3.98656
-5.27095
0
0
-3.91411
-0.0387498
-1.7201
-1.17521
-5.16312
0
-3.1085
-2.97531
-6.29873
0
-1.48175
-0.0997092
-3.12292
0
-0.225921
-3.49563
-2.55592
-4.06672
0
0
0
-3.95858
-0.36418
-1.40097
-0.959728
-0.501869
-1.27181
-3.059
0
-4.92369
0
-3.93493
-1.89702
-1.54472
-3.24394
-3.73468
0
-7.69097
-2.76214
-0.334038
-4.53051
-0.949996
-2.46229
0
-0.628849
-0.121416
-1.7939
-1.05843
0
-0.0428189
0
-3.73427
0
-0.181342
-9.11581
-0.964495
-4.54045
-0.28082
-2.3406
-1.26711
-6.80509
-1.48706
-2.54221
-3.71109
-0.372297
-0.145783
-0.880528
-6.02895
-0.0343562
-0.988841
-4.27938
-3.52088
0
-1.10737
-1.47818
-4.4116
0
-4.46591
-2.44949
-0.140706
-1.10645
-4.22358
-4.22729
-5.1091
-5.31564
-4.62525
-2.29654
-1.75683
-2.35592
-2.14681
-1.4797
0
0
-2.43782
-2.81311
-0.756261
-3.53888
-1.787
-4.49693
-3.59325
-0.0414928
-3.88108
-0.984869
-3.63343
-1.45676
-1.74159
-0.190644
0
-0.0923864
-3.38997
-0.359696
-7.56028
-3.72274
-5.59697
0
-6.74207
-1.28225
0
-0.615886
-1.91713
-0.0618568
-5.90198
0
-1.9447
-0.480101
-5.16206
-1.1798
-3.44134
0
-4.96138
-0.60113
-1.94303
0
-3.3665
-2.296
-4.12623
-2.26501
-0.542216
-2.34293
0
-5.27812
0
-5.9491
-3.04316
-4.22148
-1.7991
-1.4216
-1.47541
-5.7284
-0.553647
-3.25489
-1.30512
-3.28648
0
-0.960751
-3.09324
-5.414
0
-4.63191
0
-5.77088
-1.65836
-4.86043
0
-0.274565
-3.81025
-0.0205196
0
-2.30414
-3.84323
-1.75234
-3.17682
0
-5.82244
-4.27646
-2.89252
-3.2718
-0.888103
-2.15151
-0.848247
-1.80294
0
-2.88697
-0.566574
0
-1.48338
0
0
-0.651156
0
0
-5.51267
-7.3856
-1.18207
0
-0.036604
0
-7.73203
-1.35054
-5.56339
0
-0.0626397
-3.24997
-4.4216
-2.78674
-3.82901
-0.202261
-1.07908
-4.23351
-0.126016
-3.32158
-0.257626
-2.54482
0
-5.71049
-0.695038
0
0
-5.62818
-0.928797
-4.74706
-3.83548
0
-3.24058
-0.355377
-1.69254
0
0
-1.20231
0
0
-3.80912
-4.36846
-3.29964
-1.60633
-4.29907
0
-0.219113
-0.858092
-3.60151
-3.99056
0
-4.29515
0
-3.64547
0
-6.17233
-0.129758
0
-0.559044
-1.18754
-0.182738
0
-1.3159
-1.10184
0
-4.51361
-5.46599
-2.00497
-3.8501
-12.1012
-7.96266
-2.41189
-11.2962
0
-9.33053
0
-1.48628
-0.545203
-0.310891
-2.34294
-2.15471
-3.09962
-1.44671
0
0
-3.36327
0
-0.918737
-0.641101
0
-0.70839
-3.8238
-2.32754
-1.9818
0
-3.02361
0
0
-0.343789
-5.82966
-1.66841
-4.10028
0
-4.34641
-0.823401
-3.11118
-2.42254
-2.79476
-4.55756
-1.78628
-5.52627
-4.23491
-3.8787
0
0
-1.90256
-2.24626
-8.81786
0
-9.13437
0
-9.2233
0
-4.35586
-0.515658
0
-4.83899
-1.39369
-5.57546
-3.64257
0
-2.42013
-0.676376
0
-1.18809
0
0
-6.50706
-3.41608
-6.1559
-4.05653
0
0
-6.46731
-3.31099
-5.91885
0
-1.23045
0
-3.69041
-4.52349
-0.685662
-0.584264
-1.75529
-1.39589
-0.639636
-1.74083
-0.517373
0
0
-2.2092
-1.1426
-3.66131
-1.1563
-3.1198
-2.16628
-0.570637
-0.0291252
-6.98501
0
-6.43492
0
-1.53314
-7.04055
-1.17272
-4.08053
0
-8.59116
-1.16203
-0.557492
-0.0854341
-1.9567
-2.57643
-0.163613
0
0
-5.26497
-2.49252
-2.56115
-1.41411
-0.926144
0
0
-2.75077
-0.350365
-5.58812
-0.95278
-13.5457
-0.581014
-1.25501
-0.982735
0
0
0
-1.9703
0
-2.49009
0
-4.09211
-0.0472593
-2.2344
-1.54644
-5.58591
-2.525
-1.77458
-3.70022
-2.59279
-1.6302
-2.5248
0
0
-0.312113
0
0
-2.19966
-7.23228
-1.05304
-1.46509
-1.18982
-1.20601
-2.67903
0
-2.51425
-0.699884
-3.85523
0
-5.38294
-0.805707
-0.760114
-0.698539
-4.71818
-3.8952
-1.48271
0
-5.54688
-1.88433
-1.13267
0
-6.52393
0
0
-0.597759
-3.30994
0
-1.76764
-5.17166
-2.66441
-2.12978
0
-1.16429
-3.67292
-0.972773
-2.03441
-1.1949
0
-0.241006
-0.0379253
-0.35923
-0.121825
0
-2.41371
-5.74015
-0.0365668
-1.09963
0
-5.72633
0
0
-0.910968
-1.10701
-1.70219
-1.57735
-4.42008
0
-4.72588
0
-7.04296
0
0
-1.89377
0
-1.31663
0
-2.16104
-2.35172
-0.473473
0
-4.14316
-0.208341
-1.05515
-1.49308
-8.19792
-5.22504
-2.64473
-5.43848
-2.16382
-2.6202
-0.672254
-3.64724
-5.9785
0
0
-0.277057
0
0
-0.494797
-1.19393
0
-5.82194
-0.318055
-1.35921
-0.177578
0
0
-1.43861
-3.5277
-0.768291
0
0
0
-1.72737
-7.42812
-1.19072
-0.538508
-4.10495
0
-1.07331
-7.72147
0
-2.58149
-0.737908
-0.143903
-0.227978
-0.222874
-2.03923
-7.1898
0
-4.22289
0
-2.17622
-0.490465
-2.12321
0
-6.95605
-0.807364
-6.63451
-2.14424
-1.34688
0
-2.31326
-1.17347
0
-1.87918
0
-5.44527
0
-5.42819
-0.732006
-1.21762
-1.30948
-5.77649
-0.0662974
-4.1907
0
-7.73824
-0.433384
-5.25402
-1.6305
-6.33864
-1.0818
0
0
-3.94207
0
0
0
0
-5.75986
-0.416396
-1.14002
-3.32481
0
-2.23981
-3.07935
-0.872167
-0.958943
-2.89172
0
-5.94953
-1.41151
-3.19306
-0.926328
0
-1.62564
-5.06488
-1.6505
-0.633625
-5.14682
0
-1.57675
-0.462103
-0.291902
-5.3814
-0.81233
-0.554207
-0.283375
-6.27412
0
-1.01305
-5.13446
0
-5.12427
-4.3519
-4.38047
-2.96886
0
0
-3.5023
-1.02608
-5.23531
-2.3107
0
-1.81383
-0.936815
-2.54375
-0.472706
-0.018023
-2.37016
0
-1.10506
0
0
-1.16408
0
-7.25021
-1.24366
-2.34117
-2.11158
-3.2323
-2.63347
-2.29371
-1.88996
-1.3547
-0.679282
-1.50672
0
-5.08924
-0.305494
0
-4.64107
-1.09681
-0.783815
0
-3.40641
-4.3258
0
-3.55784
-2.93549
-1.39304
-0.727462
-0.695558
-0.687066
-1.18522
0
-1.75484
-1.92938
-2.06326
-2.92215
0
0
-8.37913
-0.363906
-1.29592