<?xml version="1.0"?>
<VTKFile type="RectilinearGrid">
<RectilinearGrid WholeExtent="0 32 0 32 0 32" Origin="0 0 0" Spacing="1 1 1">
<Piece Extent="0 32 0 32 0 32">
<PointData>
</PointData>
<Coordinates>
<DataArray type="Float32" format="ascii">
0 0.524874 1.04975 1.57462 2.0995 2.62437 3.14924 3.67412 4.19899 4.72386 5.24874 5.77361 6.29849 6.82336 7.34823 7.87311 8.39798 8.92285 9.44773 9.9726 10.4975 11.0224 11.5472 12.0721 12.597 13.1218 13.6467 14.1716 14.6965 15.2213 15.7462 16.2711 16.796 
</DataArray>
<DataArray type="Float32" format="ascii">
-5.03879 -3.62163 -2.20447 -0.787311 0.629849 2.04701 3.46417 4.88133 6.29849 7.71565 9.1328 10.55 11.9671 13.3843 14.8014 16.2186 17.6358 19.0529 20.4701 21.8872 23.3044 24.7216 26.1387 27.5559 28.973 30.3902 31.8074 33.2245 34.6417 36.0588 37.476 38.8931 40.3103 
</DataArray>
<DataArray type="Float32" format="ascii">
0 0.524874 1.04975 1.57462 2.0995 2.62437 3.14924 3.67412 4.19899 4.72386 5.24874 5.77361 6.29849 6.82336 7.34823 7.87311 8.39798 8.92285 9.44773 9.9726 10.4975 11.0224 11.5472 12.0721 12.597 13.1218 13.6467 14.1716 14.6965 15.2213 15.7462 16.2711 16.796 
</DataArray>
</Coordinates>
<CellData>
<DataArray type="Float32" Name="Scalar" format="ascii">
0
0
0
0
0
0
0
0
0
0
0
0
0
0
0
0
0
0
0
0
0
0
0
0
0
0
0
0
0
0
0
0
0
0
0
0
0
0
0
0
0
0
0
0
0
0
0
0
0
0
0
0
0
0
0
0
0
0
0
0
0
0
0
0
-0.0561333
-0.662385
0
-1.16032
-0.439504
0
-1.04085
-0.860864
0.0951539
0.205272
0
-0.248913
-0.344758
0
-0.358377
-0.614568
-0.184152
-1.73996
-0.135473
-0.371153
-0.642797
-0.0646684
-1.36828
-0.627875
0.0780917
0.0422753
0
-0.107447
-0.20625
0
-0.472431
-0.415265
-0.629631
-1.21983
0
-1.4854
-0.31465
0
-1.32973
0
0
-0.935471
0
-0.138407
-0.0256331
0
-0.0064324
-0.671504
-0.163348
-0.197975
0
-0.47374
-0.232353
0
-0.777448
0
-0.128275
-1.58809
0
-1.14228
-2.39951
0
-0.874698
-1.11568
-2.76829
-4.84419
-2.96879
-0.806188
0
0
-4.29507
-4.64668
-1.61179
0
-1.42313
-5.46402
0
-0.99691
-4.47659
-5.49236
-5.15127
-5.44609
-1.44785
-1.04773
-0.584291
-4.32169
-0.617166
-5.82585
0
-4.81337
0
-5.09352
-1.32233
-1.63125
-6.11971
-0.0355211
-2.41976
-0.277042
-2.11316
-1.75134
0
-9.18036
-1.09862
-3.82552
0
-5.17696
-0.376087
-6.70454
-0.921014
-3.31228
-1.30843
0
-1.09886
-0.37813
0
0
-3.99663
-2.98913
-2.57817
-3.03729
-4.52971
0
-0.551797
-0.0692726
-1.05578
-1.61393
-0.00542421
-2.4582
-2.95848
0
-1.00847
-1.66679
-3.16521
0
-1.18911
-0.524975
-10.7528
-3.65618
-1.4632
-0.930589
0
-0.311764
0
-5.53785
-0.0598293
-1.67447
-5.53392
-1.92582
-9.66445
-0.944161
-0.757599
0
0
-5.01634
0
-8.35174
-1.23166
-4.06791
0
-5.27817
0
-1.09645
-7.26549
-0.0731281
-2.40958
0
-2.44906
0
-4.01042
-2.20391
-0.0579318
-1.06227
0
-7.94405
-1.72118
-1.49479
0
-3.09267
-2.65267
-1.06205
-5.58913
0
0
-1.98781
-3.59802
0
-0.792618
0
-0.141417
0
-7.08229
-0.187865
-2.12906
-1.08084
-0.768574
-1.43321
-0.874843
0
-1.8665
-2.23933
0
-3.25897
0
-7.54701
0
-1.50232
-0.561156
0
-2.0331
-5.76766
0
0
-0.626674
-1.65268
-1.04686
-2.44763
-2.31512
0
-1.19451
-1.72696
-2.02033
-3.36196
-1.09334
-2.11176
-2.59679
-2.13144
-0.919724
-4.12853
0
-3.28605
-1.5851
-0.343499
-0.737749
-6.24004
0
0
0
-6.68598
0
-2.94326
0
-3.74365
0
-0.698097
-0.0489749
0
-3.45186
-3.44924
-2.91295
0
-2.78721
-2.77935
-1.45954
-0.902063
-0.409874
-2.82067
-2.45587
-0.575096
-2.13848
-3.97539
-0.420361
-4.64523
-0.028851
-6.42914
-2.24458
-2.43957
-2.15552
-0.725859
-4.34757
-1.32156
-0.181497
-3.53106
0
-0.86858
-2.07171
0
-4.93899
0
-5.37983
0
0
-1.92916
-0.990574
-8.39794
0
-7.75621
-2.87451
-4.49362
-3.90684
-1.92293
-2.07248
-0.752161
0
-5.87276
0
-3.81342
-0.245605
-3.32599
-0.508676
-0.494573
-5.34097
-2.66386
-8.63382
-0.454872
-0.11146
-0.197931
-2.49873
-1.94703
-4.20968
0
-3.34912
-0.570974
-3.7308
-5.48482
-4.4665
-1.27907
-4.27621
-1.7325
-0.538572
-2.56763
-0.198176
-0.74268
-4.16142
-0.593498
-2.62078
-2.69941
-3.8198
0
-0.506062
-6.53681
-3.59449
-1.18449
-2.59091
-0.0241155
-2.3329
0
-1.63879
0
0
-3.08344
0
0
-3.12669
0
-1.66367
-0.0462861
-2.14638
-0.567615
0
-7.51987
0
-0.712259
-6.82772
0
-3.66329
-4.45122
-4.4093
-2.39867
-2.68077
0
-4.64217
0
-0.300575
-9.26039
-2.35139
-3.05102
0
0
-1.30244
0
-2.82437
-4.00978
-6.25618
-2.62859
0
-5.10905
-0.578289
-4.43352
-3.50019
-2.12177
-0.485803
-0.263868
-5.22591
-1.84517
-0.979049
0
-5.24074
0
-3.76741
-1.74395
-5.38396
-2.06413
-0.551835
0
-6.7617
-3.16143
-4.48387
-1.14854
-6.00421
0
-7.35337
-6.84431
0
-2.12385
-0.701499
-4.05773
-0.402699
0
-7.15948
0
-5.74819
-0.517807
0
0
-6.01225
-0.0445459
-6.37535
0
-6.40556
-1.09701
-3.41921
-4.7916
-2.23882
-2.99894
-0.0671543
-7.36626
-4.20998
-7.03176
-4.10886
-5.27358
-0.815413
-0.0429374
-4.39253
0
-5.16779
-0.100309
-7.99856
0
-7.25156
0
-0.944077
-4.64667
-0.782779
-6.52826
-4.53127
-3.05965
-3.00931
-1.75163
-7.49991
-3.1852
-3.01139
-3.7321
-6.58131
0
-5.94019
0
-3.07301
-2.64851
-0.12976
-0.151424
-3.50651
-1.33811
0
-5.11772
0
-8.82624
0
-4.43352
-2.20979
0
-1.10325
0
-2.30293
-1.46254
-2.20885
-0.877848
-0.643153
-3.9299
-2.927
-0.743848
-3.92797
-2.32074
-3.04382
0
-0.480778
-0.0545045
-2.1767
0
0
-1.91041
-5.99634
-0.4981
-3.81314
-2.0072
-9.99677
0
-4.42345
-8.59974
-2.10208
-0.421982
-1.82134
0
-1.39755
0
-0.335965
-2.85828
-1.1654
0
-2.69779
-2.94815
0
-2.39473
0
-0.61922
-0.5239
-4.22213
0
-0.416406
-2.39802
-2.32252
-4.36092
0
-2.55943
0
-2.83354
-1.91433
0
0
-0.0831847
-0.700485
-1.15279
0
0
0
0
0
-2.48949
-3.34843
-3.66589
-4.24576
-1.15394
-6.89586
-2.292
-5.64254
-0.257007
0
-2.60738
-0.390219
0
-9.12204
0
-0.293441
-3.39803
-4.5042
-3.05682
0
-6.00618
-4.1431
-2.93218
-0.558429
0
0
-6.89059
0
-4.29033
-0.818462
-1.38056
-0.743893
-1.22927
-0.986807
-0.762457
-2.50627
-3.06964
-3.05657
-1.06234
-6.50579
-1.15283
-2.93132
-5.46119
-1.49372
0
-7.15784
0
-8.39181
-0.87025
0
0
0
0
-2.92032
-0.217672
-0.255254
-3.6097
-1.39175
0
-3.32055
0
-0.329662
0
-4.21279
-2.61661
-2.68938
-0.456164
-3.41583
-0.383711
-4.40073
-0.850313
0
-0.52738
0
0
-3.07753
0
-4.74118
-1.33772
-2.74607
0
-1.3348
-2.01118
-0.996123
-1.49326
-0.0545599
-1.84915
-0.617274
-1.24445
-2.01437
-5.62006
-1.16564
-7.72886
-0.361713
-6.79094
0
-0.781126
0
0
-4.6798
0
-0.804739
0
0
0
-6.45256
-0.196943
-4.36337
-0.0826845
-1.76583
-3.92564
-0.174785
-0.596426
-0.801407
-5.01373
-1.36548
-6.25203
-1.09833
-4.9969
-0.351868
-4.78189
0
-6.47481
-1.45619
-1.78882
-5.94408
-2.4972
-1.43961
-3.19172
-1.21696
-1.21693
0
0
-3.49217
-1.43608
0
-3.81523
0
-1.97781
-0.340991
-5.40823
-2.75236
0
-0.517913
-5.62132
-0.883158
0
-0.458358
-1.34173
-2.56857
-0.335186
-4.71102
-1.26585
-5.34599
-0.20236
-1.58469
-3.78913
0
-1.83164
-2.53535
-1.53047
-0.571923
-6.90666
0
-2.54069
-2.11994
-4.62822
-0.235483
-3.42436
-2.76802
-1.30312
-0.0483369
-1.25403
-1.50418
-0.216144
-1.75333
0
0
0
-1.17079
-8.17348
0
-2.21935
-0.235187
-5.72097
0
-1.77497
-1.32858
0
-0.244656
-2.44084
-0.330097
-3.59174
-4.9169
-4.77928
-5.92253
-0.918244
-0.988228
-0.664486
-6.31063
-1.73395
-2.48669
-6.35943
-1.40334
0
-3.1803
-4.07749
-5.65424
-3.63949
-0.632429
-3.628
-3.83788
0
-0.837682
-0.660095
-3.84614
-3.05685
-2.32971
-6.39269
0
-0.555906
0
-0.65277
-3.45585
-3.06165
-1.13347
-0.910635
-1.65118
-0.295496
-0.545167
-3.20402
-0.098838
-1.54452
0
-6.42432
0
0
-6.288
0
-4.06397
0
-2.8319
-0.08083
0
-5.81339
0
-5.15125
-4.50709
-0.410685
-4.78772
0
-2.32683
0
-4.64955
0
-0.683927
0
-6.17636
-1.55768
-6.59058
-1.93191
-4.34826
-4.80834
-1.56432
-2.25694
-7.04815
-0.87321
-2.16524
-0.514591
0
-0.481684
-0.574744
-1.02256
-4.00893
-2.96303
0
-8.46573
-1.98952
-4.36829
-1.67966
-0.233494
-0.00254258
-4.29122
0
-5.52579
-0.916159
-2.48084
-1.34847
0
-1.07248
0
-5.30007
-0.764513
0
-1.11227
-2.09058
0
0
-0.251273
-3.83692
-2.62957
-1.71224
0
-3.86571
-2.07221
-0.0326059
-1.53906
0
-5.95332
0
0
-4.19302
-0.309735
-4.96805
-1.39361
-1.60463
-0.259863
-4.76778
-1.02797
-3.19604
-1.81736
0
-2.61957
0
-4.30627
-4.41113
0
-0.159182
0
-0.163414
-3.70075
-5.135
-1.10178
-1.82428
-0.429251
-1.741
-2.25399
-7.66231
0
0
-2.09649
0
-5.22094
-0.382249
0
-3.0043
-0.878138
0
-0.804513
-3.93982
-2.03333
-3.3724
-0.877954
-1.65498
-1.63722
-3.17034
0
0
-2.84602
-4.7136
-0.233338
-3.60865
-0.89957
-1.00611
-2.15996
-8.6411
-0.051319
-8.09818
-0.579769
0
-3.92851
-2.02668
0
-2.6924
-0.615134
-7.13693
0
-7.30717
0
-6.37067
-1.38419
-0.658086
-0.367142
-5.69991
-7.93945
-0.715435
-1.44336
-2.7356
-6.46631
-5.87144
-0.656184
-7.15504
0
-1.67394
0
-6.8436
-10.5214
0
0
-1.65544
-0.950519
-7.32683
0
-0.33282
-2.10125
-2.6831
0
-1.0198
-0.72235
0
-4.90623
-9.02893
-1.59347
-3.58649
0
0
-1.92271
-3.781
-7.70554
0
0
-4.87804
0
-3.82687
0
0
0
0
0
0
0
0
0
0
0
0
0
0
0
0
0
0
0
0
0
0
0
0
0
0
0
0
0
0
0
0
0
0
0
0
0
0
0
0
0
0
0
0
0
0
0
0
0
0
0
0
0
0
0
0
0
0
0
0
0
0
0
0
-0.887877
-1.30644
0.00843605
-1.97155
-3.3182
-0.355218
-1.96095
-0.714549
-0.179812
-1.66165
0.0580465
-1.71689
-0.907539
-0.0516709
-0.633925
-1.20145
-1.03032
-1.42898
-0.194398
-1.47738
-1.49025
-0.0027621
-1.13038
-1.50422
-0.362994
-0.536448
0
-2.00166
-2.76234
0
-0.797555
-1.03426
-0.317015
-1.87838
0
-0.38926
-3.31865
0
-0.309662
-1.78858
-1.13595
-0.566259
-0.0186606
-3.03415
-0.3206
0
-0.908438
0
-0.167398
-1.28234
-0.103496
-0.847241
-1.06166
0
0
-0.527955
-0.296986
-0.456888
0
-1.63242
-0.441366
0
-2.27746
-0.649824
-0.732644
-2.5384
-3.81779
-3.36064
-5.45273
-2.9748
-4.78036
-1.40489
-6.46175
-0.950621
-1.93561
-1.12597
-4.03025
-8.41075
0
-3.25582
0
-1.50995
-4.05842
-3.75209
0
-3.23761
-0.0480822
-4.42736
-2.53151
-4.67499
0
-4.47856
-4.17265
-2.15503
-0.301089
-2.79877
-3.27255
-4.22264
-0.138891
-11.2374
-0.442721
0
-0.669989
0
-1.81358
-0.0399693
-2.46474
0
0
-3.9634
0
-0.918616
-0.00146162
0
-3.04965
-0.103837
-1.56923
0
-1.97346
-0.7915
0
-6.15665
-0.618523
-2.13071
-1.89812
0
-3.55661
-4.29554
-0.165851
-8.50889
0
0
-8.85839
-0.373732
-9.54523
0
-0.248415
0
-2.12287
-3.6975
-5.3925
-4.95651
-4.10796
-5.22033
-2.23759
-5.81544
-1.61374
-4.99806
-2.01376
-0.0875013
-6.95606
0
-4.28349
-5.24392
-0.877661
-3.51401
-1.97686
0
-9.09932
0
-9.03586
0
0
-8.32345
-1.28586
-4.15548
-4.36976
-0.332118
-0.716475
-4.66386
-5.20401
-2.20988
-5.60184
0
-5.37991
-2.03314
-7.11967
-2.19934
-2.98925
-0.985026
-0.517425
-0.833224
-0.0609489
-1.24161
-5.73577
-1.38595
-7.44512
-1.27326
0
-7.07234
-0.597208
-3.48335
-1.33397
-2.28757
-3.79923
0
-0.348601
-3.38321
-0.944705
-5.90393
-2.05324
-4.11735
-2.70208
0
-4.48525
-4.2635
-4.92405
-1.49068
-2.30574
-0.755148
-0.76495
-7.39086
-3.47486
-0.342229
-5.7557
-0.707722
-1.46893
-2.65683
-1.47536
-0.980515
-2.25314
-0.251542
-0.34217
-1.88515
-1.31264
0
-3.51688
0
-4.27429
-2.25145
0
-2.36548
0
0
-0.790689
-4.12228
0
-1.20421
0
-5.77331
-1.5139
-3.76315
-3.34896
0
-3.97825
-0.170194
-3.62941
-1.23324
0
-5.68363
0
-6.27043
-4.52776
-3.74512
0
-1.74708
-2.37163
-2.35133
-0.451186
-0.789867
-8.06008
-1.47826
-0.961506
0
0
-0.0434198
-2.66474
-2.69423
-1.63587
-3.25811
-1.71892
-5.98433
-4.20665
-2.62937
-8.43164
-2.89623
-2.18446
-3.24562
0
-4.77754
-3.0586
-5.2918
0
0
0
-1.03913
0
-2.23298
-1.14591
-3.58487
-0.379415
-6.11577
0
-2.88996
0
-2.20728
-0.187084
0
-1.70509
-2.91008
0
0
-1.57612
-5.73719
-7.74284
0
0
0
-1.3126
-4.6964
0
-1.71949
0
0
0
0
-3.5405
-0.526078
-1.02157
-2.97485
-3.23515
-4.22814
-3.88535
-4.25384
-1.23705
-4.90768
-2.96236
-7.70132
-0.509001
0
-0.472306
-3.63088
-0.822439
-2.15569
-1.86447
0
-2.6131
-0.923055
-7.97719
0
-4.63024
0
-1.84023
0
-3.16689
-0.449827
-1.14212
0
-3.66955
0
-2.38718
0
-6.68106
-1.8643
-4.61825
-7.82461
0
-4.37187
-2.56631
0
-8.58047
-0.053292
-6.92095
-0.804429
-0.232011
-7.15803
-1.40215
-7.1206
0
-7.89497
0
-6.62598
0
-4.48986
-1.74954
-0.4708
-0.0571802
-1.87823
-5.33885
-1.77209
-4.50568
-4.86243
-1.79446
-1.49354
-6.93532
0
-0.586914
-3.6016
-3.83419
-0.0832101
-4.26703
0
-1.08633
-2.34627
-0.605316
0
-3.12727
-0.512164
-1.6843
-2.86624
-0.214903
-0.907549
-4.9218
-7.01746
0
-2.25933
-4.607
-2.96535
-4.91774
0
0
0
-5.3539
-1.16966
-1.42427
-0.361908
0
0
-0.771844
-2.52825
0
0
-1.84958
-3.78887
-0.970808
-1.03351
-0.211832
-0.129193
0
0
-8.60337
-1.28325
-3.37439
0
-1.00642
-1.08938
0
-0.316435
-2.73292
-3.25242
0
-4.20525
-2.43236
-2.11865
-1.05989
-0.752069
-3.40957
-3.44705
0
-0.700487
-4.65985
-0.0615364
-0.735372
0
0
0
-7.02266
0
-7.39387
0
-2.25358
0
-2.90674
0
-2.26961
-1.1702
-7.28299
0
0
-1.23339
-4.65889
-1.89552
-5.48295
0
-1.12821
-4.61975
0
0
0
-1.41669
-1.15927
-1.50152
-3.47146
0
-2.90792
-0.65384
-2.63288
-1.26098
-4.53805
0
-0.167631
0
-2.01001
-0.213597
0
-8.098
0
0
-1.45367
-0.0913489
0
-5.15707
0
-5.87868
0
0
0
-1.92016
-2.496
-2.43146
-3.99995
0
-2.55022
-5.24677
0
0
0
-5.36582
-0.183346
-0.90887
-0.455043
-5.07425
0
-6.55153
0
-2.16373
-1.94743
-5.14437
-1.21846
-1.6687
-1.40004
-4.97024
0
-6.72964
0
-5.833
-0.17265
-4.92672
-1.20301
0
-1.94637
0
-0.898176
-0.185619
-0.402347
0
-6.03854
-4.99508
-4.12816
-1.64077
-4.79948
-4.17397
-2.39888
-2.74622
-3.40301
-2.01867
0
-0.816156
-1.00041
0
-6.52683
0
0
-0.776932
-2.8849
-3.3917
-1.1042
-1.99406
-4.12928
-4.79847
0
0
0
0
-5.0858
-1.59969
-0.35473
-5.80337
0
-5.49984
-5.16662
0
0
-0.12314
0
-5.23613
0
0
-5.23693
-0.332026
-8.83441
-0.886108
-0.621802
-2.33355
0
-4.66214
-2.7154
-4.86315
-1.23434
0
0
-1.70097
-1.58029
-4.83241
-1.94054
-2.20416
-2.84815
-4.21198
-1.70052
-5.93523
-0.455727
-0.457907
0
-5.90764
0
-3.24083
-4.09119
-0.333581
-9.55994
-2.14478
-4.2604
-0.0441251
-1.18033
-0.923291
0
-4.90862
-0.236253
-3.68977
-0.361367
0
-0.278348
-2.01538
-3.38771
-4.80583
-0.585719
-4.19817
-1.18784
-7.34147
-1.16666
-3.81503
0
0
-3.86457
0
0
-7.72645
0
-5.45279
-5.22255
-0.110794
-1.5258
0
-4.06954
-4.67799
-5.77719
-7.34356
-1.31032
0
-1.1252
-0.57215
-3.26319
0
0
-1.37719
-0.928411
-2.54593
0
-3.958
0
0
-5.36844
0
-5.55691
0
-5.56233
-0.750637
-6.56118
-1.98903
-3.38062
-2.24512
-0.927529
-1.48063
0
-0.25324
-1.03704
-0.507827
0
0
-2.89943
-1.91988
-1.8492
0
-1.08351
-2.81958
-5.04019
0
-0.197343
-2.27621
-0.574462
-0.618561
-4.41196
0
-0.8665
-1.63593
-3.86981
-0.428977
-3.83544
-0.82013
-0.0347364
-4.60195
-2.42969
-2.74773
0
-6.37574
-1.99738
-7.40382
0
0
-8.48119
-0.27888
-2.40001
-1.88071
-3.71989
0
-4.93974
-4.72135
-3.44027
-7.27347
-0.0698236
0
-1.3449
0
-5.88354
-0.594077
-2.32181
0
-0.985284
-0.278538
-0.0105868
-0.0746946
-8.16762
-1.50798
-0.837303
0
-3.02917
-5.09003
-3.10968
-1.01876
-2.0969
-0.516036
-1.10128
0
-2.10229
-0.435138
-0.638673
0
-6.90888
0
-5.87857
0
-5.19011
-2.34826
-4.46823
0
-5.11573
-0.756375
-1.18339
-6.61116
-2.4654
-0.857735
-2.92656
-2.36145
-0.0655554
-0.351347
0
-2.65286
-2.22919
0
-4.47047
0
0
0
-1.22681
-0.953266
0
0
0
-4.88034
-0.415704
0
-3.50015
-7.56757
0
0
0
-0.380651
-0.644814
-0.297776
-1.82574
-1.65076
-5.98081
-1.65529
-1.00057
-6.4114
-1.85898
-3.36676
-0.220366
-5.50513
0
0
-3.40101
-0.61629
-1.11028
0
-1.65126
0
0
-4.67985
0
-6.09532
-0.113366
0
-4.83569
0
-10.773
-8.46158
-2.05029
-8.69077
-3.22075
-4.38718
0
0
-4.75462
-1.66299
-1.32814
-0.476804
-1.9775
0
0
-2.82536
-0.173071
-7.49299
0
-2.72264
-2.07876
-6.2379
-0.514645
-0.475164
-1.68967
0
-2.27134
-3.14467
-6.00648
0
0
0
-0.343298
-2.98057
0
-1.85669
-2.84642
-0.237736
-6.69958
-3.6862
-1.18616
-0.382479
-2.59968
0
-1.0489
-2.31168
-0.287539
-1.14508
-1.23789
-0.815259
-1.11868
-6.90331
-3.59515
-1.30351
-1.85711
-2.02624
-5.78587
0
0
-3.66983
-0.995626
-0.251438
-0.235633
-1.49576
-1.51271
-1.02358
-1.86752
-2.24313
-1.63933
-4.17858
0
0
-2.21365
-1.15331
0
-0.579837
-0.386965
-1.26675
0
0
-0.373528
0
-4.16963
0
-5.74557
-0.357788
-0.593412
0
-4.34171
0
-0.424316
-0.824751
0
0
-4.52888
0
-3.18695
-1.83829
0
-0.273292
0
-0.379588
-0.289265
0
-4.40247
-6.08511
-6.66302
-0.884775
0
-6.49572
-3.09136
-4.48335
-0.529694
-2.09422
-0.881689
-6.30028
-0.166279
-4.51232
-8.27514
-2.36875
-7.11739
-2.97898
-6.00444
0
-3.28857
-0.543272
-3.23752
-0.488563
-2.53184
0
-0.37927
-4.98922
0
-3.0051
-2.38581
-1.92258
0
0
0
0
0
0
0
0
0
0
0
0
0
0
0
0
0
0
0
0
0
0
0
0
0
0
0
0
0
0
0
0
0
0
0
0
0
0
0
0
0
0
0
0
0
0
0
0
0
0
0
0
0
0
0
0
0
0
0
0
0
0
0
0
0
0
0
0
-0.22502
0
-0.290552
0
0
0
0
-0.183553
-0.378863
0
0
0
0
-0.116865
0
-0.0357159
0
0
0
0
0
-1.45149
0
-0.248196
0
0
-0.248426
0
0
0
0
0
-0.12684
0
-0.466432
0
0
0
0
-0.0857502
-0.0210807
0
0
-0.0883941
-0.462219
-0.277971
0
-0.0432344
0
0
0
0
0
-0.214211
0
-0.0957241
0
0
-0.198672
0
-5.52283
-3.07144
-1.84922
-3.35861
-0.130476
-0.73812
-1.21793
0
-3.03789
-1.02094
0
-2.74258
-3.08018
-0.838862
0
-5.94224
-1.52977
-4.28804
-0.730374
-2.24342
-6.00764
-4.33746
-5.20294
-0.778036
0
-1.37663
-4.23764
-2.22578
-3.41826
-6.41917
-2.06152
0
-4.59219
-2.39533
-2.0054
0
-3.53108
-1.34737
-3.67087
-1.42123
-8.62975
0
-3.86829
-1.69488
-7.33565
-1.63831
-2.55357
-8.34813
-1.83021
0
0
-0.186976
-3.15882
0
-1.17494
-0.389237
-0.514009
-2.91572
-0.609372
-3.08141
-0.852754
-4.7152
-1.26857
-0.486723
0
0
-0.0380006
-8.38229
-5.54129
-0.802353
-4.43171
-0.856845
-2.64471
-0.78605
-6.5722
-0.629962
-0.183249
-2.33367
-2.77714
-1.90796
0
-5.0692
0
-0.444913
-1.92732
-0.920769
-0.175771
-0.125203
-2.85281
0
-6.03035
-0.826884
-7.64588
0
-3.50566
-0.0123276
-0.953713
-0.352942
-2.35669
-2.53025
-0.231906
-0.74389
0
-10.457
0
-5.32652
0
0
-3.1775
-0.0710465
0
-2.05776
0
-2.52251
0
-3.75937
-0.494042
-8.45409
-0.162119
-6.87201
0
-1.15912
0
-4.06443
0
0
-1.16786
-0.496909
0
-1.38351
0
-4.63321
-1.79789
-2.33053
-2.79729
0
0
-0.215614
-1.55653
-1.58885
0
-0.320714
-2.26105
0
-7.80261
-5.36777
-1.39646
-0.00459834
0
-1.80848
0
-0.134627
-3.97123
0
0
-2.60738
-1.40618
-2.34899
-1.60306
0
-3.49818
0
-0.257222
0
-1.71628
-0.279493
0
-2.05613
0
-5.58508
-0.668981
0
-1.57761
-0.595039
-7.10035
-0.156727
-0.532989
-2.57545
-1.30226
0
-0.744903
-1.44499
-2.12366
-6.28038
-0.937828
-1.9456
-0.588115
-3.34712
0
-1.63879
-8.72549
0
0
-1.83674
-7.92333
-0.363891
-0.743004
0
-9.97731
-4.883
-8.20552
-1.02716
-6.17682
0
-6.49389
0
-6.81836
-1.82217
-1.31819
-5.42692
0
-5.89562
-0.682713
-3.29304
-4.06904
-1.68187
-1.95481
-2.26433
-0.676209
-4.83364
-1.65481
-1.27834
-1.19873
-3.84666
-2.96982
0
-0.0577984
-1.07241
0
-2.83126
-4.86194
-1.84507
-4.07405
-7.26632
-0.4628
-0.215508
-2.59595
-7.68605
0
-2.84461
0
-6.52126
0
-6.43725
0
0
-1.99565
-0.704959
-1.51691
-5.05533
-0.438936
-7.23577
0
-2.54562
0
-1.78285
0
0
-0.234891
-1.4103
-0.417976
-5.82905
0
0
-6.6863
-3.5226
-2.28173
0
-1.89538
-0.874748
0
-1.90341
-6.1388
-0.531074
0
0
-1.70712
-0.161024
-5.63146
-2.37956
-0.966637
-0.0707124
-0.626349
0
-4.68287
-5.04439
-2.78195
-3.86387
-1.03083
-6.63491
0
-3.62032
0
-7.77598
-3.44091
-3.92242
-3.25696
0
-4.49023
-2.62129
-1.13888
-0.618451
-1.50259
-4.94933
0
0
-1.74363
-0.363382
-2.92449
0
-2.56614
-0.309801
-4.05736
-4.00276
-2.43611
-0.995509
0
-1.47565
0
-8.51303
0
-4.99955
-3.81874
-9.78024
0
-2.74429
-0.494384
-0.0379838
-3.7032
0
-5.52583
-1.59365
-4.57296
-4.34046
-1.72033
-6.08605
-2.45412
-3.84068
0
-0.907651
-5.82671
-2.91277
-1.06654
0
-1.41245
-0.0985783
-1.60836
0
-1.83753
0
-4.03431
0
-3.70688
0
-0.50885
-4.05104
0
-1.4139
-0.47756
0
-7.56263
-0.52007
-5.43102
-1.18401
-3.28841
-1.69206
0
0
-2.91877
-4.98009
-2.29045
0
-10.0725
-4.10391
-0.0689821
-0.677385
-4.79774
-0.318905
-3.75887
-1.56359
-2.05804
-4.00143
-1.31619
0
-0.052437
-3.26578
-1.4389
-1.78411
-0.878968
-8.74942
-1.19655
-9.86238
0
0
0
0
-4.30224
0
-3.2299
0
-6.17278
-1.47454
-1.88427
-4.09462
-0.689719
-6.69778
0
-5.4157
0
-4.20717
-1.01784
-0.319309
-1.42159
-4.78862
0
-3.94318
0
-2.69765
-2.0476
-4.29056
-1.30525
0
-3.91833
0
-1.53631
0
-1.70421
0
-7.55294
-0.386905
-6.47143
-3.55797
-4.02817
-2.67618
0
-11.8751
-0.990164
-0.778059
0
0
0
-4.74559
0
-0.987623
-0.390335
0
0
-8.00388
-0.093525
-1.18858
-1.50392
-3.40039
-0.0645107
-0.0784635
-0.450038
-2.55515
-1.96074
0
0
-1.93052
-2.60581
-3.16819
-7.40522
0
-3.64714
-8.51896
-0.792784
-0.176644
-0.155757
-0.612241
0
0
0
-2.04588
-0.804587
-4.27732
-1.78762
-7.84177
-2.56205
-4.46936
-7.96868
-0.708855
-1.30714
-0.253781
0
-6.01835
0
-4.29651
-2.3135
-1.04591
-2.70771
-2.55492
-0.768021
-4.3856
0
-1.40374
0
-0.460741
-6.90023
0
-3.99085
-3.26802
-1.42583
-4.53877
0
-1.05136
-7.14201
0
-3.5318
0
-0.884901
0
-4.14094
0
-0.840196
0
-1.50895
-0.981049
-2.50093
-2.05742
-1.69262
0
-3.0544
-6.15089
-6.99534
-0.555866
0
-8.15592
0
-2.06532
-3.0668
0
0
-0.703545
-2.07862
-5.88022
-0.266609
-2.29434
-9.56165
-2.36786
-0.173527
-3.58555
-5.06345
0
-0.893782
-0.0587372
-5.51176
-2.28245
-8.14312
-0.70574
-8.34141
-2.80165
-4.20563
-1.2576
-0.176118
-2.12546
-3.12414
0
0
-2.36466
-1.40988
-1.44366
0
0
-1.45136
-2.33657
0
-3.68549
-0.841029
0
-1.22551
-1.37329
0
-0.387755
0
0
-5.77091
0
-6.67827
-5.39619
-2.83692
-1.40087
0
-1.08544
0
-1.7211
-2.89523
-2.48508
0
-0.429661
-4.96265
0
-6.63449
-1.68592
-3.83878
-0.216613
-3.59518
-0.847147
-5.53979
-0.746735
-5.66366
-0.362347
-0.51835
0
-2.06359
-5.19589
0
0
-4.20632
0
-0.0908047
0
0
-0.074898
0
-2.12575
0
-8.13533
0
-2.41387
0
-4.31395
-0.106639
-0.095694
-3.86926
0
-3.94145
0
-2.88246
-3.559
-1.65016
-4.19163
0
-1.20064
-4.10901
-4.84189
-0.424647
-4.61808
-6.9945
-1.01554
0
-7.91534
0
-2.98761
-4.90641
0
-7.52584
-0.403495
-0.482981
-1.5086
0
-2.85349
-6.37048
-2.3449
0
0
-3.25913
-0.261871
0
-5.67451
-3.14792
-2.11529
0
-0.123174
-2.87558
-5.03553
-0.100932
-4.11123
0
-0.967416
-0.749489
-7.49417
-0.621431
-4.80519
-0.964283
-4.30655
-0.513002
-1.4551
-1.22641
-7.04651
-0.0764481
-5.99875
-1.13529
-0.602522
-1.24513
-2.35137
-0.548787
-3.74716
-0.105406
-1.19917
-5.53469
0
0
-3.68932
-0.161243
-0.480031
-0.769617
-1.71365
-1.96379
-0.589061
-0.662731
0
-1.0644
0
-7.80529
0
-10.7786
0
-9.75566
-2.3398
-8.23766
-1.46224
-1.55901
-1.63878
0
-3.84327
-5.73965
-1.72246
0
-2.95113
-1.35173
-1.25412
-3.23565
0
-4.16477
-8.32961
0
0
-6.45105
0
-2.07834
-3.88169
0
-7.59426
0
-0.586834
0
-2.82869
0
0
-0.834693
0
-0.231046
-2.57302
-2.76822
-10.2609
-0.326227
-1.75251
-1.84095
-0.151209
-5.38735
-3.61539
-6.87319
-6.57233
-1.65602
-1.90875
0
-3.29349
-2.00434
-5.04056
0
-0.879704
-3.63683
-2.76264
-1.38115
-2.46454
-8.1786
-2.81187
0
-3.13232
-5.30387
-0.728774
-6.52962
-0.19505
-7.66153
0
0
0
-2.00426
-0.674236
0
-3.36706
-1.02552
-1.05255
-2.57898
-1.47885
-1.22377
-0.849902
0
0
-0.0915121
0
-6.38851
0
-3.52854
0
-1.99904
-0.649745
0
-0.0465234
-4.16638
-5.42716
0
-6.38168
0
-6.24904
-5.69373
0
-5.73406
0
0
0
-6.00174
0
-4.58231
-0.0198708
0
-5.11521
-3.10259
0
-11.3209
-1.92687
-9.97829
0
-1.35641
-2.80849
-2.10052
-2.85006
-1.5409
-0.873194
-4.91888
-0.738514
0
-2.43199
-1.91921
-2.23593
-0.617684
0
-3.3457
-0.495763
-4.33945
-1.03823
-4.48707
-1.17172
-5.68193
0
-6.00687
0
0
-7.48556
-1.13276
-2.82514
-3.99631
-1.73585
-0.49651
-1.32902
-0.602217
-0.309219
-3.43223
-1.55816
-2.58241
-3.68867
-2.34712
-1.98735
-0.852034
0
-0.799319
-5.04061
-0.615267
-0.564309
0
-5.22138
-1.22831
-2.98788
-0.618884
-2.69422
-2.61887
-2.05501
-5.4969
-3.77408
-4.05015
-0.307948
-5.84826
-0.855201
-4.78105
0
-4.4496
-0.925225
-4.18707
-4.00118
-2.00603
0
0
-3.99627
0
-3.53986
0
0
0
0
0
0
0
0
0
0
0
0
0
0
0
0
0
0
0
0
0
0
0
0
0
0
0
0
0
0
0
0
0
0
0
0
0
0
0
0
0
0
0
0
0
0
0
0
0
0
0
0
0
0
0
0
0
0
0
0
0
0
0
0
-0.200015
-1.25385
-0.0287477
-1.30968
-0.3482
-0.420525
-0.609253
-0.777131
-1.04053
-1.4955
-0.268317
-1.32754
-0.770016
0.00720783
-0.850272
-0.946299
-0.743254
-1.22529
0
-0.903099
-1.47671
0
-1.60391
-0.559213
-0.566503
-0.754433
0
-1.65333
-1.20698
-0.0242472
-1.55673
-1.37377
-1.87173
-0.0169371
-0.0687965
-2.9843
-3.22883
-0.152528
-1.99531
0
0
-5.08796
-0.352166
-1.72113
-2.25777
0
-0.691654
-0.917189
-1.27712
-1.49598
0
-1.9498
-0.64488
0
-1.86251
-0.119972
-0.0665144
-1.83197
0
-0.336901
-2.27159
0
-1.49199
-1.24123
-1.54748
-2.92064
0
-1.51685
-0.990142
-3.19596
-6.92921
-1.83983
-2.852
-10.697
-2.13447
-11.3173
0
-7.1839
-0.403111
-4.31971
-0.887385
-2.48601
-3.12652
0
0
-0.966652
-5.62836
-1.45999
-6.94178
-0.0430295
0
-0.513267
0
-0.977254
-4.61148
-5.11852
0
-0.993372
-3.26727
-2.66097
-3.04433
-1.0528
0
0
-4.03855
-1.36032
-3.89531
0
0
-10.5325
-3.47383
-1.49416
-5.95183
-3.76686
-3.06153
-2.79554
-8.02158
-2.51033
-2.68671
0
-5.33989
0
-1.1869
0
0
-1.31596
0
-6.20405
0
-8.7752
0
0
-0.350503
-1.10467
-6.34694
0
0
-1.5185
-4.33152
-1.66931
-6.55654
0
-5.04265
-2.96141
-2.36428
-6.48401
-0.466047
-6.04514
0
-4.51925
0
-8.68457
-3.06561
-1.29905
0
-0.59184
-2.43938
-1.23476
-2.57126
-5.15149
-0.426883
-5.73143
-0.19042
-3.21917
-3.09251
-3.15703
-3.90422
-0.392448
-0.165026
-2.64844
-0.501742
-1.70531
-2.18248
-1.72227
-3.92671
-4.82558
-1.68291
-8.77954
0
-2.29205
-1.68867
-0.435966
-0.791726
-1.05306
-1.4858
-5.60511
-0.323162
-1.57975
0
-2.82924
-0.426924
-2.51171
-3.6109
-4.48758
-2.54957
0
-0.382956
0
-0.22483
-2.66033
-2.86401
-3.00123
-0.815533
-4.21315
-3.07171
-3.59896
-0.926551
-3.43742
-2.8187
0
0
-11.0119
-1.14589
-4.15933
-2.40146
0
-2.47104
-2.31204
-3.39057
0
-4.14449
-0.595011
0
-2.65374
-0.190247
-5.08635
-1.00677
-5.16115
-0.462605
-1.94419
-3.5042
-9.78211
-2.05653
-0.460211
-3.05583
-2.89299
-1.82379
-3.05267
0
-1.86883
-4.8102
-0.625088
-6.20031
0
-1.24898
0
-2.65473
0
-3.86709
-1.62821
-2.21779
0
-8.1678
-0.205306
0
-4.53822
0
-3.31765
0
-2.58221
-5.81396
0
0
-1.32423
0
0
-0.586856
-5.30836
-2.12089
0
0
-1.48585
-0.853726
-3.72569
-2.18989
0
-3.32096
-7.86755
0
-7.22651
-1.64752
-4.51933
-2.21554
-3.61903
-0.648715
-1.69954
-3.57219
0
-1.64183
-8.77019
-5.42576
0
-9.69883
0
-1.11247
-6.42121
-2.28987
0
-4.55617
-0.820508
-4.47262
-0.035854
-3.85484
-0.441002
-6.50005
-2.3408
0
0
-3.21752
-2.59314
-2.73624
-0.490684
-0.801986
-0.198685
0
-1.73785
-4.05734
-1.57931
0
-0.621185
-6.92358
0
-10.5753
-0.139732
-8.44792
0
-7.80762
0
0
-2.34302
-0.0863216
-4.32928
0
-4.64058
-2.28332
-6.19293
0
-4.06913
-1.59059
-4.42323
0
-0.571465
-1.73521
0
-6.05586
-0.633005
-1.14864
-4.12094
0
-3.43113
0
-0.490231
0
-0.304725
-4.46407
-1.62952
-2.36078
0
-0.103643
-3.09037
-3.60297
-3.23839
-2.53858
-3.84209
-4.64865
-5.55998
0
-0.772347
-3.63273
-2.77002
-1.87349
-2.61329
-5.39333
-4.06322
-2.9308
-1.27397
-2.6875
-0.567214
0
-5.89704
0
-6.76253
0
-0.164824
-8.96498
-1.03381
0
-0.646062
-2.61606
-6.82815
-0.514743
-10.4994
-0.189161
-8.91377
0
-0.924999
-0.0565322
-2.00928
0
-0.945258
-2.74753
-5.97569
0
-5.63088
0
-6.76722
0
-4.71369
-3.36032
-1.61275
0
-3.33443
-5.20409
0
-3.78429
-0.625328
-1.86421
-2.24486
-3.57854
-1.11013
-8.70928
0
-7.1035
-1.1308
-1.49037
-0.953193
-0.352275
0
0
-0.155443
0
-5.67116
0
0
-0.893425
-6.37315
0
-0.150641
-8.5089
-5.33404
-4.85214
-4.51321
-0.493292
-4.65727
-0.121036
0
-3.87057
0
-2.54935
0
-3.84225
-0.706661
-0.620489
-1.03037
-1.13157
0
-1.29904
-8.09971
-0.877125
-7.37806
0
-3.88108
-0.842104
-8.89017
0
-1.72556
0
-7.26507
0
-0.521309
-1.39037
-1.7915
0
-1.29927
0
-6.44837
-1.17401
-6.1367
-2.02729
0
-7.32259
-1.03091
0
-1.25855
0
-0.0498035
-1.51628
0
-3.95052
0
-0.516734
0
-2.03274
0
-0.998924
-1.18865
-1.19255
-2.60667
0
-0.559893
0
-5.87668
-1.72752
-2.43373
0
-1.50864
-0.0783098
-2.42526
-0.655756
-0.445607
0
-1.21993
-2.30078
-2.36471
0
0
-5.6618
0
0
0
-1.58246
-5.09276
-5.09839
0
0
-1.59753
0
-0.410008
-3.30334
0
-4.45953
-0.164429
-5.70187
-2.09974
-6.63104
-2.98441
-2.68467
-0.798036
0
0
-1.35689
0
0
-1.12194
0
-0.67853
-4.80332
-1.04726
-6.8179
0
-6.76303
0
-3.9921
-6.0523
-3.25928
-2.45728
-0.904903
-1.70577
-0.750935
-3.06841
-6.19363
0
-0.334132
-2.27192
-6.2346
0
-0.120852
0
0
0
-3.15263
-0.206763
-4.20867
0
-7.50394
-3.65612
-3.36198
-0.537858
-5.48764
-0.690668
-1.07679
-1.60901
0
0
-3.60914
-2.59496
0
0
-0.101134
-5.46058
-1.07922
-1.34789
-3.11942
-0.263893
-2.19339
-0.163727
-0.529274
-3.0114
0
0
-0.904833
-3.32799
-0.295438
-0.0581329
-5.50473
-4.05586
-2.05064
-2.21654
-1.62214
-5.71252
-0.430824
-2.9916
-3.03784
-3.91334
-1.88775
-4.50988
-4.29291
-7.83126
-5.12166
-3.00826
0
-4.3418
-0.95691
-1.96083
-0.0320369
-0.404199
-4.33979
-4.87527
0
-2.01826
-0.0845216
-1.87475
-2.73369
-1.76533
-0.0310732
-4.52425
0
-6.71902
-1.14823
-7.19939
0
-3.70835
-1.52962
0
0
-7.79538
0
-5.00559
-1.96192
-3.16875
-1.35757
0
-2.78683
-4.60992
-5.55182
-5.53833
0
-0.161124
-2.08858
-1.57086
-1.46751
0
-2.39137
-0.769133
0
-1.1381
-2.82111
-2.18937
0
0
-5.31494
-4.05327
0
-9.85872
0
-8.56842
0
-10.8283
-0.676602
-3.80337
-1.02587
-1.64056
-0.427198
-0.372409
0
0
-3.27591
-2.99335
-2.58525
-2.467
-0.269076
-4.66589
-2.43706
0
-0.918926
-2.26318
-4.09915
-2.49406
0
0
-6.15766
0
0
-4.92752
0
-1.91083
-3.58612
0
-6.25191
-0.88976
-0.542813
-2.3593
-2.70884
-1.56011
-2.71529
-3.88305
-0.0913255
0
-3.21107
0
-0.261469
-2.79652
-5.42956
-1.88645
-0.828418
-2.54804
0
-3.55734
0
0
0
-4.21928
-2.49092
-3.71229
0
0
0
0
-3.82802
-6.43419
0
-2.68037
-2.04847
0
0
-0.0413412
-3.86081
0
-0.0661854
-6.22208
0
-9.02307
-0.147051
-4.61584
0
-4.6504
0
-0.81145
0
-5.85921
0
-6.1144
0
-3.44937
-2.56433
-2.08839
-5.78921
0
-3.60065
-0.961196
-1.54202
-1.15609
-1.6977
-0.204003
-0.835092
-2.18808
0
-5.19691
0
-2.72779
-0.564925
-3.90791
-1.2728
0
0
-0.16238
-1.38483
-2.14054
-3.52785
-1.53394
-1.12566
-0.220828
-1.46832
0
-8.36097
0
-0.49436
-1.21988
-2.52398
-6.08758
-5.11259
-1.06364
-1.6972
-4.00226
0
-6.77484
-0.447574
-10.5912
0
0
-4.75002
-2.98716
0
0
-0.443147
0
-2.22747
-0.590341
0
-2.77533
-1.14045
0
-2.38473
-0.467485
-1.94602
-4.98388
0
-4.59096
0
-3.71792
0
0
-3.07173
-2.45779
-0.0139815
0
-4.678
0
-0.667536
-2.51005
-1.03432
0
-2.29288
-3.73726
-5.62795
0
-2.5739
-1.07832
-4.32498
-3.75529
-5.06759
-1.20275
-4.22971
-1.78766
-5.2134
-1.02685
0
-1.87074
0
-1.12202
-1.71679
-1.04346
0
-6.93226
-2.76969
0
0
0
-0.40977
0
-4.17245
0
-1.34315
-0.269205
-5.76161
0
-1.20111
0
0
-2.21373
0
-1.47013
0
-8.02463
0
0
-1.09713
-4.88823
0
0
-3.75773
-0.977978
0
-4.17835
-0.994056
-2.93737
-0.585413
0
-0.97411
0
-0.971003
-1.11656
0
0
-0.979811
0
0
-2.78014
-0.392798
-3.58607
-0.208229
-4.74875
-5.84903
-0.0245823
0
-2.45294
0
0
-0.680957
-3.87417
-1.21796
-1.50647
0
0
-1.0952
-0.995518
-2.40177
-1.11872
-7.03778
-5.11959
-0.98323
-2.49407
-3.78321
-5.41684
-0.94248
-3.22619
-0.255532
-3.54269
-0.531461
-4.42211
0
-5.8779
-1.25928
-4.97206
-2.11229
-3.48491
-1.51101
-1.56865
-4.57029
-2.09407
0
-4.83511
-0.335864
-0.821913
-2.74731