<?xml version="1.0"?>
<VTKFile type="RectilinearGrid">
<RectilinearGrid WholeExtent="0 32 0 32 0 32" Origin="0 0 0" Spacing="1 1 1">
<Piece Extent="0 32 0 32 0 32">
<PointData>
</PointData>
<Coordinates>
<DataArray type="Float32" format="ascii">
0 0.524874 1.04975 1.57462 2.0995 2.62437 3.14924 3.67412 4.19899 4.72386 5.24874 5.77361 6.29849 6.82336 7.34823 7.87311 8.39798 8.92285 9.44773 9.9726 10.4975 11.0224 11.5472 12.0721 12.597 13.1218 13.6467 14.1716 14.6965 15.2213 15.7462 16.2711 16.796 
</DataArray>
<DataArray type="Float32" format="ascii">
-5.03879 -3.62163 -2.20447 -0.787311 0.629849 2.04701 3.46417 4.88133 6.29849 7.71565 9.1328 10.55 11.9671 13.3843 14.8014 16.2186 17.6358 19.0529 20.4701 21.8872 23.3044 24.7216 26.1387 27.5559 28.973 30.3902 31.8074 33.2245 34.6417 36.0588 37.476 38.8931 40.3103 
</DataArray>
<DataArray type="Float32" format="ascii">
0 0.524874 1.04975 1.57462 2.0995 2.62437 3.14924 3.67412 4.19899 4.72386 5.24874 5.77361 6.29849 6.82336 7.34823 7.87311 8.39798 8.92285 9.44773 9.9726 10.4975 11.0224 11.5472 12.0721 12.597 13.1218 13.6467 14.1716 14.6965 15.2213 15.7462 16.2711 16.796 
</DataArray>
</Coordinates>
<CellData>
<DataArray type="Float32" Name="Scalar" format="ascii">
0
0
0
0
0
0
0
0
0
0
0
0
0
0
0
0
0
0
0
0
0
0
0
0
0
0
0
0
0
0
0
0
0
0
0
0
0
0
0
0
0
0
0
0
0
0
0
0
0
0
0
0
0
0
0
0
0
0
0
0
0
0
0
0
-0.146849
-1.18442
-0.273563
-0.276219
-0.249223
0
-0.187579
-0.316563
0.0649169
-0.183879
0.00631171
-0.721071
-0.300372
0
-0.507319
-0.691051
0.0426422
0.335718
-0.0675287
-0.337235
0.192039
-0.148618
-0.536035
-0.176551
0.112662
0.34143
0.0512526
-0.653362
-0.36191
-0.0475447
-0.510095
-0.469052
0.0243281
-1.26131
0
-0.897165
-0.497156
0
-0.906516
-0.611777
0
-1.26635
-0.186388
-0.828553
-1.71704
-0.00412588
-1.76523
-0.772864
-0.543764
0
0
-1.09471
0
0
-1.42351
-0.305445
0
-0.535712
0
-0.164401
-2.21105
0
-0.687447
-0.478113
-1.98429
-4.31032
0
-0.670047
-2.5268
-0.638943
-2.91064
-0.389286
-0.151437
-2.11762
-0.571235
-0.55214
-2.65983
-0.987897
-1.66821
0
0
-2.11373
-2.05811
-1.53795
-0.788055
-0.795488
0
-1.23471
-3.87754
-0.0673725
0
-8.29375
-1.64755
-1.18094
-4.15126
-9.28683
0
-5.41401
0
-1.66816
-3.35212
-0.532094
0
-2.53826
-0.591202
0
-1.83795
-1.92609
0
-2.24606
-0.55428
-10.309
-1.88732
-0.37179
0
0
-3.11819
0
-0.459498
-0.254187
0
0
-2.44351
-1.43034
0
-1.81182
0
-2.31189
-7.58144
-0.0473406
0
-4.02936
-4.31574
-0.961024
0
-3.6516
0
0
-2.00734
-0.815805
-3.71887
0
-4.24634
-0.158803
-0.718155
0
-1.67153
0
-0.138002
0
0
-2.57071
-1.53838
-5.28545
-0.939687
0
-1.53628
-3.13897
-0.620066
-5.51588
-4.052
-1.05397
0
-4.59139
0
-3.51568
-2.93972
-0.62284
-1.50029
-3.11841
-1.87573
-1.90931
-2.09884
-4.3498
0
0
-3.34496
0
-1.57154
-0.983182
-3.7716
-0.271943
-0.968075
-1.4302
0
-3.77087
-0.496598
-0.306651
-6.6043
0
-7.69622
0
-5.60799
0
0
0
-1.03128
-0.790023
-5.6922
0
-1.9587
0
-0.939914
0
-1.20633
-2.49697
-0.0450043
-2.50684
0
-5.26986
-0.32192
-5.42768
-1.7065
0
-4.99484
-2.20664
-4.3538
-1.78365
-0.0955079
-1.4725
-0.13135
0
-4.70177
-0.411066
0
-12.6105
0
-6.78678
-2.44704
-2.03279
-1.7357
-6.01544
-0.195585
-1.20089
-0.870629
-1.30866
0
-0.79698
-5.94919
-1.9147
0
0
-4.22034
-0.776574
-4.07823
-3.07064
-0.0557957
-8.845
-4.2378
-0.404774
-0.319919
-2.75291
-1.60113
-1.0871
-3.9303
-2.88214
-4.32964
-0.777419
-3.01404
-0.629047
-6.39252
-7.02146
0
-1.41026
-2.64522
-0.912884
-5.18123
-0.307725
-5.36952
-2.06938
-5.68866
-0.573342
-2.24193
0
-2.77257
-0.508403
0
-3.23259
0
-4.15076
0
0
-4.23333
0
-4.26799
-1.08431
-1.98816
-0.930843
-0.677172
-2.8311
-4.976
-5.00372
-0.879768
-4.12756
-3.26152
-2.97131
0
-5.39483
-0.0953603
-3.14653
0
-0.880892
0
0
0
0
-6.7639
0
-4.66566
0
0
-1.78567
-3.76318
0
-0.857646
0
-1.98983
-1.06249
-3.21528
-5.47128
-3.05068
-0.273679
-1.8723
-0.0988896
-0.299573
0
-1.93824
-3.84727
0
-0.738004
0
-2.47608
-2.64352
-5.47043
-6.53774
-1.78946
-0.64876
0
-0.0820165
-2.70986
-0.716851
0
-1.94345
-1.04254
-9.68722
-3.63858
-7.03507
-0.07641
-4.00676
-1.96372
-3.14783
-2.34193
0
0
-0.23051
-3.82172
-2.34392
-4.92098
0
-1.74085
-0.930011
-0.704385
-5.03505
-0.355451
-1.58755
-2.90175
-2.70305
-3.78601
-2.53517
-0.166762
-4.64462
-1.81808
-0.376567
-2.06227
-0.927672
-3.87159
-1.67277
-2.41012
-5.57076
0
-1.08718
-2.32239
-0.894178
-3.83422
-0.976999
0
-3.8287
-5.60225
-6.56509
-2.02852
0
0
-0.986081
-0.533281
-6.76641
-3.02465
-4.16901
-2.27237
-2.35015
-0.828951
-1.60799
-3.75618
-0.0026016
-4.2597
-1.28601
-0.930131
-6.3189
-1.77346
-2.38662
-1.84328
-9.21693
-0.642498
-6.38297
-6.42563
-0.218944
-1.58586
0
-0.332651
-0.8652
0
-4.81285
0
0
0
0
-2.74009
-0.515426
-1.16582
-1.27747
-0.943504
-7.45633
0
0
0
-13.0423
0
-5.16299
-0.754338
-0.707411
0
-3.69527
-0.647401
0
-0.260756
0
-1.28375
0
0
0
0
-3.62602
-4.09319
-0.807838
0
-0.406675
-1.88652
-3.89989
-1.01816
-7.58292
0
-5.69756
0
0
-0.0349176
-7.88862
-2.62635
0
-1.47832
-0.29661
-2.16286
-2.8616
0
-0.863326
-3.97748
-5.57706
-0.235809
0
-0.929378
-0.50263
-7.7446
-4.57376
-3.21907
0
-0.145972
-4.52837
-0.478401
-0.953668
0
0
-1.77021
-0.647825
0
-3.11993
-1.87798
-2.60961
-1.92136
0
0
-2.73306
-1.14796
-5.32929
0
-3.86808
0
-0.941341
-1.02454
-1.25404
-6.40307
-2.24591
-4.73133
-1.84803
-6.57479
0
-10.3615
0
-1.88518
0
-4.99292
-1.58363
0
0
-3.48327
-1.80309
-0.738512
-5.5057
-2.77436
-0.335004
-4.25121
0
0
-8.02534
0
0
-1.28451
-3.47433
-3.68917
-1.7568
-6.55503
0
-2.39136
0
-2.52911
0
-9.88049
0
-0.41743
0
-3.0754
-3.6949
0
-4.54845
-1.39606
-4.50385
0
-2.97518
0
-0.877114
-0.529911
-0.233372
-0.372126
-4.30749
-0.628187
-4.89212
0
-2.58835
-2.84139
-2.08153
-4.657
-3.7198
-3.94588
-4.51277
-3.28355
-0.0916544
-2.70723
-1.09881
-9.13307
-0.101534
-5.73735
-1.41343
-0.119737
-0.777096
-0.995592
-1.56016
-1.38209
-7.35837
0
-0.349473
-3.06213
-2.21606
0
-0.878976
0
-0.855542
-0.870385
0
-2.22218
-1.456
-1.29911
-0.419713
-3.73245
-5.72312
0
-0.53264
-1.7493
-1.92497
-5.56127
-2.45399
0
-5.15326
-3.37835
-3.33593
-0.766401
-6.68104
0
-0.795979
-5.7171
0
-1.54308
-2.69028
-6.53879
0
0
-10.5285
0
-6.56163
-0.798004
-6.05888
-1.00509
0
-1.23511
-4.61846
-6.33841
-0.214408
0
-0.588042
0
-3.41216
-1.52483
0
0
-0.206269
-0.613802
-0.637876
-2.41267
-2.18501
-1.58013
-6.76753
0
-5.1199
-0.393906
-0.866904
-0.713618
-9.21755
0
-4.05002
-9.55333
-0.105657
0
0
-1.15511
-1.3379
0
-0.187809
-6.25971
-1.64744
-5.93546
-1.00122
0
-4.68913
0
0
-0.400288
-0.289512
-3.98717
-0.458124
-2.0384
0
0
-1.21696
0
-8.90489
-1.03236
0
-5.7262
0
-0.59194
-0.670268
-6.93429
0
-2.72672
-3.8335
-2.73292
-0.774962
0
-0.654353
-4.22945
0
-1.07616
-0.394749
-2.78407
-0.323973
-3.90222
-1.91847
-1.5038
-1.12396
-3.25468
0
-0.277319
-2.14778
-0.712439
-4.46445
0
-4.62226
0
0
-1.29648
0
-7.11165
-0.791963
0
0
-0.0630264
0
-1.19144
0
-3.7146
0
0
-10.9889
0
0
0
0
0
0
-6.52349
0
-3.33076
-1.88728
-3.20795
-0.409912
-3.83738
-2.48585
-3.11187
0
-2.05047
-0.681986
-3.27273
0
-4.67041
-2.62091
0
-0.630025
-3.99651
-3.70908
-5.4095
-0.938319
0
-0.263144
-0.383939
-4.10194
-1.94085
0
-9.74461
-4.46448
-7.73076
-3.22694
-5.89449
0
-2.22841
-4.81872
0
-3.01699
-0.504911
0
-5.33003
-1.20874
-0.142723
-11.0626
-0.0196017
-0.0455715
-5.16989
-1.05926
-8.88273
0
0
0
-0.0642296
-0.0273193
-1.24197
-12.7164
-0.336872
0
-3.08013
-1.09976
-5.05958
0
0
0
-0.157996
-7.52273
0
-11.2707
-2.49517
0
-1.03611
-0.0647857
0
-3.51456
-3.06226
-3.47353
-1.92705
0
-3.68471
-1.44289
0
-5.41301
0
-4.1586
0
-3.83176
0
-2.85028
-1.79211
-6.14474
-1.27046
-4.57631
0
-0.801507
-1.35133
-7.55724
0
-3.0611
-2.97724
0
-4.89549
-1.62237
-6.8763
-0.284132
-4.48023
-1.94884
-0.0997211
-1.28959
-2.43777
0
-0.432142
-0.382962
-0.570854
-9.98972
-5.66853
-2.10268
-4.7333
0
-4.62974
-1.44991
0
-0.861173
0
0
-1.15498
-4.4545
-0.997887
-1.27356
-7.46507
-9.9449
-1.35893
0
-3.39546
-2.61214
-2.78571
-0.955665
-2.14888
-2.26991
-3.00306
-0.926661
-1.52573
-2.27258
-1.04005
-0.169154
-2.20775
-3.19149
0
-2.54039
0
-0.945487
-0.933941
-0.372976
0
0
-3.40201
-5.12843
-7.63947
-4.76503
-2.67554
-1.33728
0
-4.29854
0
0
0
0
0
0
-11.0443
0
-2.71889
-2.92673
-0.512014
-2.7016
-4.09011
0
-0.156974
-3.41452
-1.82275
-3.559
0
-5.06652
-1.58
-4.8159
-3.57139
-3.88638
-2.31197
-3.52218
-2.84726
0
-1.59563
-0.0634308
-1.25742
0
-0.319258
-3.30458
-5.54198
0
-1.01328
-0.700674
-2.94567
-1.45084
-6.35996
-1.82452
-0.525254
-3.2528
0
-0.819601
-7.33627
0
0
-6.20383
-6.63184
-0.286875
-3.71544
0
-6.92598
-1.46257
-3.04487
-2.22686
-0.75568
-1.46666
0
-2.00888
-0.61786
0
0
0
0
0
0
0
0
0
0
0
0
0
0
0
0
0
0
0
0
0
0
0
0
0
0
0
0
0
0
0
0
0
0
0
0
0
0
0
0
0
0
0
0
0
0
0
0
0
0
0
0
0
0
0
0
0
0
0
0
0
0
0
0
-0.856725
-1.85695
0
-1.36609
-0.671247
0
-2.05645
-1.29334
-1.04741
-1.78859
-0.0222866
-0.927865
-1.42413
0
-1.43209
-0.787594
0.39271
-1.25586
0
-0.94207
-1.50191
-0.206971
-1.03463
-1.03339
-0.0276601
-1.37523
0
-0.748093
-0.655211
0.0375057
-1.33319
-0.824306
0
-1.56442
0
-1.18711
-1.5784
0
-0.784553
-2.12869
-1.5709
-1.67731
0
-3.15307
-1.83369
0
-2.42105
-0.888528
-0.0638056
-0.980757
0
-1.05737
-2.55847
0.0215368
-0.270084
-0.760083
-1.29848
-0.544988
-1.65464
-5.63932
-0.984262
0
-1.86397
0.0710141
-2.64783
-1.70703
-4.47184
-4.51496
-4.74439
0
-5.27683
-1.71813
-5.66961
-6.44333
-2.53221
-3.77794
-3.7272
0
-7.09971
-1.63302
-2.17501
-3.77708
-1.73754
-2.58666
-5.4388
0
-7.0409
-0.835936
-4.96034
-5.46591
-2.52476
-0.447646
-5.59592
-8.72551
0
-3.96197
-3.13707
-1.10271
-3.65013
0
-4.79493
-4.21421
-1.28531
-3.91107
-1.89132
-8.78559
-6.86872
0
-5.88724
-1.58918
-0.775431
0
0
-6.04281
-2.24083
-5.24937
-5.15271
-2.5871
-6.29295
-1.22994
-2.55714
-7.93591
-1.82739
-1.54478
-5.84939
0
-2.10693
0
0
0
-6.26288
-2.29889
-3.04146
0
-6.03523
-1.03904
-3.58919
-3.35529
-2.59316
-0.322292
-9.83376
-0.878356
-3.45908
0
-6.12134
-0.793328
-4.20896
-4.70249
-1.16666
-2.19612
-3.4517
-1.29016
-0.934289
-1.27382
-5.55296
-0.420938
-1.06909
0
-8.4505
0
-0.319416
-9.66113
-2.94477
0
-0.70733
-3.59814
-3.37473
-0.258383
0
-1.08968
-0.455896
-0.273057
-0.379302
0
-3.04445
0
-2.85801
0
-1.52954
0
-0.600165
-2.83553
-3.07453
0
-6.14518
-2.42753
0
-7.83199
0
-2.13769
-1.69231
-2.31383
0
-1.91971
-2.13788
-1.44969
-3.43265
0
0
-0.032166
-3.17915
-0.996889
-0.798641
-5.97757
0
-2.85756
-4.74045
-1.00261
-0.414435
0
-0.224239
-0.967007
0
-1.51285
-3.73569
0
-0.319013
-2.08223
-2.68135
-3.1862
-3.73616
0
-0.0924265
0
-4.02676
-1.10897
0
-3.31065
-1.34789
-3.20831
-1.38172
-0.206688
-3.75648
-2.97594
-2.95097
0
-3.59741
0
0
-2.62573
-3.87509
-1.26152
0
-1.35643
-2.93928
-0.923932
-2.80251
-0.838661
-1.41743
-0.673658
-5.81275
0
-0.881928
0
-2.27231
-2.21643
0
0
-2.33834
0
0
0
0
-3.87099
-0.679509
-1.86543
-1.36522
-2.0164
-2.10632
0
0
0
-1.9792
-2.35141
0
-4.82898
-0.748598
-1.28412
-0.515369
0
-2.84068
-1.19283
-0.105533
-1.7991
-3.89703
-2.02588
-0.81033
0
-1.82606
-0.79945
-0.20291
0
-6.47544
-4.97935
-0.219094
0
-2.90476
-0.318925
0
-0.134907
-3.47976
-0.748963
-2.38447
-3.38216
-3.83218
-0.544231
0
-3.69385
0
-0.401755
-5.66267
0
0
-7.28181
0
-6.9624
0
-5.61941
0
0
-2.24634
-4.2886
-6.94283
-1.15834
-4.85761
-0.156871
0
0
-9.83192
0
-13.3473
-3.14822
-4.56479
-1.04615
-0.308442
0
-6.90125
0
-0.870346
0
-6.36383
-0.841273
-5.45032
-0.534557
-2.66267
-0.27516
-4.34455
-4.4787
-3.7396
0
-2.20436
-0.199117
-3.28583
-2.4704
-5.52776
0
-4.91795
-0.716461
-2.90547
-0.767976
-6.48064
-0.56839
0
-4.02007
0
0
0
0
-0.69146
-6.90852
-0.994788
-1.13641
-4.20935
-6.5645
-0.561822
-1.03761
0
0
0
0
-4.88493
-4.44374
-2.3486
-2.82959
-2.83747
-10.3648
0
-2.55665
0
0
-11.5631
-0.812124
-4.62434
-1.12276
-1.83171
-0.601019
-5.98201
0
-0.810835
-2.85613
0
-3.90573
0
0
-2.80924
-0.234644
-0.932612
0
-2.46003
-3.54476
0
-3.673
-2.2179
-1.60899
-0.572326
-5.44372
-0.717873
0
-5.19397
-0.841102
-3.7308
-0.894149
0
-4.12487
0
-0.342158
0
0
-1.07689
-0.603558
-1.80219
-2.08318
-0.93636
-3.86188
-0.332045
0
-6.37222
0
-8.57633
0
-0.237411
-3.93036
-0.563908
-4.04612
-3.24453
-1.55363
-2.8826
-5.30181
-3.90545
-6.42305
-0.890816
-0.0993621
-2.22012
-3.05333
-4.68838
-2.96718
0
-5.25898
0
-12.5283
0
-9.53328
0
-8.05575
-0.1771
-3.94261
0
-3.87332
-7.50062
0
0
-5.71381
-4.97166
-1.92124
0
-0.32888
-3.38406
-3.20453
-0.193861
0
0
-1.91516
-2.34371
-4.45765
0
-3.1077
-3.37292
-2.31778
-4.67037
0
-3.30376
-0.874285
0
-1.28969
-2.41377
0
-5.18901
-1.72961
-6.9463
-0.513884
-1.40297
0
-4.99843
0
-3.82438
-1.11879
0
-1.23229
0
-6.27264
0
0
0
0
-7.83806
-3.39521
-3.42066
-1.1839
-1.17912
-0.0646153
-3.13072
-2.54772
-0.589265
-2.36763
0
-0.438564
-3.39152
0
-1.91905
-0.343398
-4.20387
0
-6.63374
-0.317445
-1.40198
-3.90731
0
-6.57744
-0.551692
-3.71203
0
-2.48183
0
-0.591805
0
-3.72005
0
-0.0329827
-3.9328
0
0
0
-1.99179
0
0
0
-8.32044
0
-8.8261
-0.929059
-5.57016
-3.2839
-2.68227
-1.47342
-6.3003
0
-0.13915
-4.19496
0
0
-2.00083
-0.0687098
-8.11212
-0.271262
-1.43913
-0.406666
-6.82961
-2.09294
-2.37928
-7.00477
-2.07687
-12.5004
0
-2.16
-0.438475
-2.02569
-6.59075
-2.12882
-1.00749
-3.93609
-2.59981
-0.346811
-10.864
-2.38378
-4.78327
-2.12276
0
-8.08201
-0.402948
0
-2.97989
-4.01915
-7.15477
-1.36369
-0.872211
-1.01687
-1.24495
-3.87462
-9.29707
0
-5.29491
-2.91534
0
-8.58092
-0.73153
0
-10.4678
0
-6.6837
-0.298906
-2.64679
-4.62295
-0.112543
0
-0.562679
-1.08737
-4.77942
-0.581449
-10.0279
-1.79706
-4.38921
0
-3.21177
-2.20953
-4.55253
-4.50054
0
-5.42178
-4.05691
-3.33755
0
-3.65615
0
-1.36272
-2.18665
-2.44766
-0.159364
-4.35561
-0.599185
-1.37447
-2.84835
-1.23454
-0.685037
-2.72106
-3.31917
-0.129016
-2.85812
-6.14229
0
-1.99837
-5.63788
-1.4431
-5.28385
-1.27311
0
0
-6.29963
-3.99207
0
-6.09281
-1.45965
-3.30855
0
-4.15593
-1.44232
-1.07515
-8.0795
-1.38484
-8.50613
0
0
-5.89737
-4.56272
-4.90433
0
-4.34134
-2.51629
-0.583992
-2.13157
-1.34492
-1.61927
-0.673102
-0.670308
-6.25142
-0.272446
-8.76159
0
-1.3805
0
-0.429127
-1.5492
0
0
-3.96924
-1.56876
-3.5052
-6.81824
-2.75139
0
-2.30761
-0.21935
-3.70422
-0.257972
-3.0237
-1.79364
-0.793511
-4.19125
-0.314038
0
-4.59144
-9.1284
0
0
-7.02542
0
-3.59935
-10.6832
-0.0780147
-0.867413
0
-8.27776
-8.32675
-0.750929
-9.08053
-0.278231
-5.32534
-8.3103
-0.0859743
-2.68847
-2.22255
-1.5115
-7.82304
0
0
-3.04563
-0.959818
-1.03087
-2.00792
-1.97439
-2.52453
-3.00121
-4.37667
-1.00339
-1.1832
0
0
-9.4545
-1.2143
-6.5472
-1.5687
-2.33738
0
-5.79619
0
-1.60486
-0.952081
0
-1.23887
0
-2.80186
0
-1.32067
-1.21623
-1.67984
-1.89586
0
-7.87363
0
0
-3.16808
-8.28399
-3.9063
-2.06696
-0.543408
-0.941506
-10.0929
0
-4.45634
-5.31759
-0.839356
0
-1.23485
-6.3113
0
-0.189869
-3.55471
-0.359881
-9.30634
-1.11285
-7.19307
-0.259115
0
-0.664599
0
-7.09945
-3.67971
-2.94282
-1.08681
-2.85616
0
-3.82725
-2.5323
-3.77461
0
-2.81072
0
0
-1.85357
0
-1.8273
0
-5.12182
0
-2.88686
0
0
-2.18198
-1.37519
-2.83907
-1.14084
0
0
0
-1.10708
-7.32593
0
-4.38665
-1.2284
-1.06266
-2.10864
0
-6.80051
-0.0522052
-5.15218
-0.457108
-7.1672
-0.532814
-6.14537
0
0
-3.06849
-0.792719
-1.89578
-0.938773
-0.384148
-5.08207
0
-4.94783
-0.200996
0
-1.32906
-0.37338
-5.49866
-3.19525
-0.706258
-2.27093
-6.26081
-2.2769
-2.89088
-2.90886
-1.03187
-6.98059
0
0
-1.98304
-2.60883
-0.19332
-6.35355
-4.32232
-3.01012
-1.85408
0
-8.58324
-2.3983
-6.91901
0
-6.64584
-0.940366
-7.8641
-0.0534101
0
-3.22985
0
0
-9.06011
0
-2.71279
-1.68131
-6.68918
-6.37902
-4.39773
-4.08196
0
0
-3.73476
-0.554004
-1.72573
0
0
-0.791238
-0.188677
-0.818524
-2.24375
-1.81119
-0.737159
-1.58548
0
-3.5935
0
0
-4.97629
-2.48239
-0.0921143
-2.5704
-0.943638
-1.24064
-0.607921
0
-1.39352
-8.30369
-0.05916
-0.436889
0
-5.93073
-0.0334673
-1.09806
-1.23508
-1.93332
-6.60435
0
-6.09866
0
-4.94244
-0.200726
-5.60839
-3.25458
-1.01041
0
-3.91631
-3.19619
-1.22501
-0.0412127
-2.16266
-0.923335
-3.71988
-0.610919
-5.5566
-0.116727
-6.30667
-2.71415
0
0
0
0
0
0
0
0
0
0
0
0
0
0
0
0
0
0
0
0
0
0
0
0
0
0
0
0
0
0
0
0
0
0
0
0
0
0
0
0
0
0
0
0
0
0
0
0
0
0
0
0
0
0
0
0
0
0
0
0
0
0
0
0
0
0
0
0
0
0
-0.162194
-0.138915
-0.659249
0
0
0
-0.479003
0
-0.169232
0
0
-0.168049
0
0
0
0
-0.335504
0
-0.00930667
0
0
0
0
0
0
0
0
0
0
0
0
0
0
0
0
0
0
0
0
0
0
0
0
0
0
0
0
0
0
0
-0.0591776
-0.855229
0
0
0
0
0
0
-1.18859
-3.63076
0
0
-1.78511
-0.621141
-7.30153
0
-0.786981
0
0
-0.812784
-2.64372
-0.598334
0
-1.81016
0
-2.56167
0
-0.228429
-1.3064
-0.35979
-1.59094
-0.480479
-0.104571
0
-0.4848
-6.95161
-0.203828
0
-3.16216
0
-0.254681
0
0
-4.91831
-1.78826
-1.46029
-0.121771
0
0
0
0
-2.05365
-1.8087
-1.62868
-6.71274
0
0
0
-2.09187
0
-2.15332
0
-5.38035
0
-0.803111
0
-2.41278
-0.742788
-0.238619
0
-6.17934
0
-9.6937
-1.11568
0
-4.16967
-1.27523
-1.66179
-0.540071
-4.65627
0
-1.76838
-1.88799
-1.18836
-3.25152
0
-1.103
-1.20757
-0.315832
-7.4192
-2.28654
0
-1.16851
-1.09388
-1.73517
-0.488257
-11.6322
-0.267922
-0.515184
-1.97541
-9.57577
0
-1.57011
0
-1.90628
-3.18663
-1.27421
-8.21584
-0.120045
-1.97122
-0.822228
-0.68596
-6.44504
-4.67517
-3.68473
-2.53519
-4.50116
-1.26487
-1.0601
-0.551435
-0.307715
0
-1.50149
-0.402143
-4.69122
0
-2.02518
0
-0.728171
-5.85625
-1.42025
0
-4.73682
-4.22225
-0.301849
-2.55224
-1.15258
-0.531307
-2.61852
0
0
-4.25502
-4.97855
-1.42854
-0.341619
-5.64806
0
0
-1.98966
-0.477999
-5.21936
0
-8.57118
0
-6.68718
0
-4.62704
0
0
-3.75378
0
-1.12414
-1.5248
0
-1.00768
-5.26208
-1.15485
-3.52427
-0.47008
-2.58096
-0.179789
-2.16312
0
-1.45353
0
-0.959558
-2.48262
-0.999621
-3.54025
-3.35025
-0.766818
-2.12839
-2.41217
0
0
-2.21554
-3.2147
-2.62727
-3.46516
0
-0.32197
-5.18734
-0.689013
0
-4.44281
0
-5.96975
0
-4.71177
-2.69461
-2.05564
-4.93464
-2.31762
-3.00244
-4.92742
-0.693099
0
-0.738835
-4.40854
0
-1.80235
-3.31889
-1.00747
-3.67982
-0.896304
-3.89984
0
-1.55651
-5.19842
0
-1.69071
-1.56155
-2.5774
-1.41559
-0.450259
-0.0528056
-0.260552
-0.349638
-1.6525
-0.975447
-4.58544
-2.34615
-1.00284
-7.16452
-3.06902
-0.220687
-0.315918
0
-5.44883
-0.82601
-0.791876
-4.23166
-1.14402
-7.91877
-1.92116
-0.287598
0
0
-1.00503
-3.65143
-5.03441
-4.84921
0
-2.81766
0
-1.96681
-2.93289
-1.62198
0
0
0
0
-0.484239
-7.14959
-1.09185
-1.23245
-2.21283
-5.32727
-2.73946
-8.21568
-8.10204
-1.58379
-3.69797
0
-0.5942
0
-1.49461
-0.0308034
-3.55735
-1.81869
-1.63658
0
-4.08373
-0.246488
-0.469222
0
0
-5.71533
-0.231188
-5.5909
-6.9041
0
-8.41138
0
-8.17991
-5.30667
-2.06468
0
-0.12084
-9.30273
-0.59283
-6.82092
0
-3.09112
0
0
-1.04361
-0.15465
-1.97143
-7.82348
-2.05546
-6.34337
-0.447261
-3.54498
0
-9.55856
0
-6.49302
-0.241639
-5.15165
-0.91969
-1.15448
-1.57277
0
0
0
0
-1.65156
-5.33361
-2.47908
-0.617397
-1.80102
0
-7.34954
0
-1.34065
-1.60251
0
-3.63997
0
-0.813118
0
-5.77941
-0.896474
-6.83864
-4.0191
-2.00804
0
-1.69442
-0.462822
-6.88899
-0.967977
-1.98708
-2.24593
0
-2.7497
-1.73353
-0.407201
0
-4.81523
-0.143323
-4.48089
0
-0.514487
-0.844408
-0.540991
-1.30568
0
-3.03507
-6.69427
-4.03358
-2.18811
-0.916558
-1.36852
-1.05265
-0.436723
-0.458879
0
-5.64937
-1.93215
-0.701143
0
-1.77843
-3.13445
-1.87184
0
-2.25002
0
0
-0.611957
-4.04197
0
-0.191335
0
-5.36216
-2.58583
-3.67851
-1.35329
-1.21472
-7.6876
-2.22049
-1.97157
0
-0.579646
-1.72317
-1.3646
-1.70489
-1.36333
-2.07749
-1.5472
0
-2.33258
-0.983166
-6.953
-0.0542656
-2.93104
-0.093341
0
-4.46317
0
-2.65846
0
-6.46505
-0.693021
-1.84306
-1.80791
-2.6299
0
-6.55955
0
-2.63431
0
0
0
-3.86597
-3.09827
-4.02431
0
-6.62736
0
-1.01868
0
-3.15167
-1.20271
-1.78733
-2.02552
-2.60668
-4.6875
-1.7008
-11.6155
-2.20698
-4.19213
0
-5.07137
0
-3.86699
-6.42546
-1.34733
-0.600499
0
-0.42091
-2.09109
-5.80189
-1.18732
-0.128917
0
-0.931857
-3.47037
-3.12701
-1.61371
-3.47131
-2.70422
-1.32523
-1.99198
0
-2.3718
0
-7.41059
0
-4.78875
0
-0.826171
-0.0136841
-1.99212
0
0
-8.0442
0
-4.25399
0
0
-3.47918
-1.87255
0
0
-2.98686
0
-7.251
-0.0241191
-5.43178
-1.64703
-3.34565
0
-0.0584627
0
-8.29031
0
-6.1938
0
0
-3.77218
-0.0801548
-3.14683
-6.12974
-6.12933
0
-0.869625
0
-5.87096
-2.72425
-0.749988
-0.950976
0
-0.0961314
0
0
-0.788685
-6.05428
0
-2.09498
-1.25207
-0.166632
-0.86187
-0.859808
-2.57015
-7.44895
-0.330653
-0.846541
-1.59943
-2.63602
0
0
0
-7.16333
-1.2245
-1.19537
0
-0.440049
-3.87614
-0.698045
-6.48089
-2.34122
0
-1.14588
-0.0299719
-2.91965
0
0
-1.39147
-6.25535
0
0
-2.80514
-0.137236
-5.59741
-1.63392
0
-6.59686
0
-3.23738
-1.4966
-4.68506
-0.287284
-4.93697
-1.83867
0
-0.478612
-0.571176
-7.72177
0
-8.07389
-1.6162
-0.156369
0
-2.51165
-1.30852
-3.90994
-5.80037
0
-1.86822
-1.11604
-7.51005
-1.28512
-2.81949
0
-3.16487
-1.39005
-2.50805
0
-5.04112
0
0
-3.50964
0
0
0
-1.89837
-0.0501129
-8.41686
-1.90719
0
-0.477166
0
-3.01373
-1.61776
-4.89541
-0.563371
-2.46011
-2.17394
-2.78857
-3.47365
0
-2.01451
-2.1529
-0.845548
-7.66754
-2.00542
-1.58187
-3.06576
-0.973295
-0.834063
-2.45774
0
-0.572151
-5.90204
-1.14228
-1.90733
-4.4487
-2.87564
-1.73045
-0.0449993
-0.958014
-5.35752
0
-1.97924
-0.713885
-2.08484
-1.28448
-3.78335
-1.27531
-1.43574
-2.91709
-4.98896
-4.77308
-0.485439
-2.82887
-3.04857
-1.21221
-6.56099
-1.50249
-0.718629
-3.02834
0
-1.15873
0
-3.98139
-5.65674
-0.654821
-3.03651
-1.75961
0
-1.30457
-1.91423
-3.07817
-7.32002
0
0
-8.53889
-0.721979
0
0
-1.29645
-2.08393
-2.88029
0
-1.21222
-2.6318
-7.58296
-0.16647
-4.04758
-2.53286
-1.24236
-3.0031
-4.01054
-0.69417
0
-4.25124
-3.54177
-6.37804
-3.32479
0
-0.728366
-1.86456
-2.25056
-6.07551
0
0
-1.25476
-4.88877
0
-5.63516
-1.72507
-2.86967
-2.92725
-3.7958
-4.06655
-4.34618
0
-3.90848
-1.20244
-4.71282
0
-5.50777
0
0
-1.70666
-2.60775
-4.73782
-1.51349
0
-6.80064
-1.67023
0
-0.837712
-3.24944
0
0
-0.879944
-6.5051
0
-4.82171
-0.839481
-1.20267
0
-4.10485
-0.978742
-5.35346
0
0
-1.77861
-2.09002
0
-0.452611
-3.89956
-0.818959
-0.340553
-0.544415
-5.06881
-0.977372
-4.1535
-3.64321
-4.9253
0
-7.20319
-0.423572
-5.14778
0
-2.98222
-2.6196
-0.847196
-2.73463
0
0
0
-6.65757
-2.095
-5.77936
0
-5.07251
0
-2.70236
-2.68906
-6.50235
-2.33516
-2.02374
-0.564883
-0.59331
-0.16882
-2.57914
0
-3.72313
-0.0597275
-6.91474
-1.66215
-1.81889
-1.11885
-7.4455
-3.23301
-1.41124
0
-1.92833
0
0
-1.43449
-6.39586
-0.664245
-2.85548
-0.485445
-5.81342
0
-0.0868306
-0.206804
-7.8721
0
-4.47496
-5.0555
-1.72554
-0.354787
-1.78597
-6.65009
-2.32084
-3.37826
-0.704181
-5.22016
-2.85631
-2.61879
-0.538754
-0.178521
-0.353984
0
-3.88563
-3.50726
-0.816412
-2.22523
-4.48377
-0.765038
-7.90369
-1.01392
-3.81381
-0.106681
-7.37015
-1.14034
0
0
0
0
-2.86885
-3.17468
-0.195234
-5.14139
-1.2856
-3.86343
0
-0.390215
0
-2.63968
-3.77084
-1.36369
-5.37729
-1.19058
-3.81638
-4.59116
-4.6565
0
-3.14702
-1.68687
0
-0.330013
-1.58976
-0.945104
0
-5.86691
-2.979
-2.21716
-2.27745
-3.83363
-0.115929
-0.88016
-5.03741
0
-4.12084
-1.64305
-6.11643
-0.373934
-5.70004
-1.94486
-3.58647
-4.07655
-0.0191419
-4.29704
-5.88754
-6.16049
-4.92474
-0.107054
-3.87601
0
-4.9239
-0.223672
-4.81264
-2.95688
-4.88919
-5.20224
-2.04829
-3.14226
0
0
0
0
0
0
0
0
0
0
0
0
0
0
0
0
0
0
0
0
0
0
0
0
0
0
0
0
0
0
0
0
0
0
0
0
0
0
0
0
0
0
0
0
0
0
0
0
0
0
0
0
0
0
0
0
0
0
0
0
0
0
0
0
0.20992
-1.37471
-0.0413371
-1.00175
-1.18485
-0.0560607
-2.33554
-0.890244
-0.186142
-1.6395
0
-0.980679
-0.895766
0.125903
-0.282699
-0.916203
-0.58073
-1.36009
0
-0.772549
-0.855394
0
-0.705577
-0.468794
-0.233294
-0.700287
-0.113096
-0.674767
-1.1798
-0.0355414
-1.07423
-0.497047
-1.40921
-0.573816
-0.0353231
-3.48059
-1.12988
0
-2.12746
-0.222789
-0.125528
-1.51162
0
-0.431096
-1.80801
0
-0.0839651
-1.90438
-0.458752
-0.690876
0
-2.34172
-0.622998
0
-1.95197
-0.231582
-1.0265
-5.4542
-0.015862
-2.73813
-2.32439
-0.36903
-0.538601
-1.10732
-7.1068
-3.79087
0
-7.62621
-4.82434
-1.64134
0
-5.2147
-1.04535
-6.4675
-1.9639
-6.68776
-3.62765
0
-5.12722
-3.26426
-1.42031
-3.57189
0
-3.65391
-2.53383
-1.35676
-3.86898
-2.52386
-3.06111
-7.88796
-1.1848
-1.51562
-5.08896
-2.60675
-5.2176
-0.673402
-1.57666
-5.78286
0
-1.49098
-0.0109389
-3.14711
-2.23926
-5.11351
-0.998588
-5.6243
-2.11659
-3.41137
-2.66467
-3.29047
0
-4.28814
-6.80745
-3.01836
-2.65716
-5.33996
-3.39953
0
-1.11909
-1.50481
-3.54579
-7.42875
-3.33149
-8.73732
-0.14818
-6.38647
-4.40193
-2.7346
0
-6.07272
-0.826134
-2.94874
-2.8613
-2.01772
0
-2.22081
-2.07064
-2.50521
-3.4977
-0.0953588
-2.80975
-2.71077
-2.7043
-2.59339
-1.92298
-0.119073
0
-7.42769
-2.8734
-3.32038
-2.48465
-0.687611
-0.0617471
-1.82332
-5.4809
0
-0.185016
-2.23318
-4.59469
0
0
-1.35662
-1.96896
0
-3.97625
0
-8.39211
0
-0.0834311
-1.58459
0
-2.38102
0
0
-1.63983
-1.5529
-5.36533
-1.43408
-3.62132
-2.35749
-2.69376
-4.75762
-2.73101
-6.93491
-2.66586
0
-0.327041
-3.79149
-0.7132
0
-7.32755
0
-0.245547
-5.72216
0
-5.20883
0
-2.96794
0
-3.72182
-7.46875
-1.71176
-0.775323
-5.58256
-2.17279
-1.61187
-3.40343
-2.06588
-0.135908
-1.67286
-2.81377
0
-4.35683
0
-4.12837
0
0
-1.0507
-0.235168
-4.95631
-3.23237
-0.249945
-2.3223
-0.691903
-4.55126
-1.74697
-1.28469
-0.440284
0
-3.31496
-1.16224
-5.62099
0
-3.392
0
0
-4.81981
-1.62496
0
-4.25617
-1.02277
0
-0.835056
-2.51376
-0.40165
-8.5958
-4.29541
0
-4.39873
-3.26376
-1.59828
-0.0871551
0
-0.457618
-7.93872
-0.82355
0
0
-1.5999
0
-0.640835
0
-8.1874
-0.189499
-1.31158
-3.21146
-6.91063
0
-6.94383
-1.69916
-6.08043
0
-1.47331
0
0
-0.282628
-1.57
0
0
-3.09997
-3.72673
-1.43076
-2.21971
-1.6023
-3.35298
0
0
0
-2.00959
-0.282798
-0.42774
0
-4.78467
-2.99935
-0.483007
-0.585775
-4.16678
0
0
0
-0.32055
0
-4.24935
-4.20395
-6.06137
-0.378211
-1.82055
-0.845495
-5.0888
-0.699439
-3.86856
-0.879513
-3.54852
0
-12.2235
-0.607393
-12.146
-9.10939
-6.9086
-1.99584
-0.838819
-2.91075
-0.291005
-0.0867673
0
0
0
0
0
-3.97379
-1.86143
-3.4347
-1.51464
-5.74622
-2.65763
-0.865727
0
-3.22724
0
-6.44718
-0.36677
-6.08618
-0.654658
-0.0545637
-2.453
-0.0554289
0
-5.2589
0
-2.46369
0
0
-2.81036
0
-3.04393
-0.749022
0
0
0
-3.49883
0
-9.46879
-0.227327
-3.86146
0
-0.15941
0
-0.98327
-0.0518629
-3.43288
-1.60109
-2.71486
0
-0.431779
-1.27258
0
-9.04869
-2.73437
-1.35176
-4.72709
-2.59617
-2.43753
-3.31316
-2.13146
0
-4.58558
-2.41323
-1.28305
-8.06411
0
-0.706239
-0.0853184
-1.23153
-0.110886
-0.759068
-6.84274
-6.03969
-7.87531
0
-0.205152
-3.2739
0
0
-6.36132
0
-5.11342
-4.16054
0
0
-0.705244
-8.95117
-2.91764
0
-2.98633
-5.03877
-1.48736
0
-1.02069
-3.23383
-3.17434
-1.11218
-0.842789
-3.32627
-4.69546
-1.85611
-1.43033
0
-1.44355
-1.45521
0
-6.30881
-0.300555
-2.68466
-2.26527
0
0
-3.07481
-0.676237
-2.09281
-0.130937
-1.76097
-3.9376
-2.25362
-7.73561
-3.5093
-1.76694
-1.17208
-5.38489
-7.52754
0
-3.42471
0
-2.98419
-3.75023
-0.568822
0
-2.33659
0
0
-7.85104
-2.06044
-1.37286
-2.45642
-1.61506
-0.78951
-6.74315
-2.62262
-6.31478
0
-2.65254
-3.65247
-7.07068
-3.23327
-2.0727
-2.83543
-0.923568
-9.0696
-4.73248
-0.378862
0
-0.915283
0
0
0
-0.3131
-2.11422
-0.783634
-1.58515
-8.20288
-3.33074
-1.45667
0
-0.453147
-7.03863
-0.262557
-1.55496
-4.18086
-0.545812
-2.93804
0
-0.694248
0
-2.29211
-0.398093
-4.92231
-1.20049
-1.22128
0
-0.418698
-1.51292
-1.75901
-0.0223641
-1.68967
-1.14736
-1.35144
-1.29695
-5.51715
0
-1.47657
-1.14952
-4.34779
-5.00372
-5.33025
-1.41578
-1.612
0
-1.46428
-1.69494
-0.0975258
-4.56352
-2.58921
-5.8647
-1.78517
-7.4652
-1.58466
-2.87994
0
-3.37243
-4.14145
-4.88844
-6.84723
-5.07955
-0.326759
-1.97998
-3.51098
-2.71215
-4.92932
-1.05653
0
-5.98278
0
-2.00837
0
-0.407584
-0.392295
-1.59237
0
-4.07138
0
-2.92818
0
-0.603886
-0.238371
-4.97885
0
0
0
-5.05288
-1.54399
0
-1.05354
-2.66158
-0.595468
-2.64301
-0.662212
-1.51107
0
-6.66251
-0.78579
-8.67868
-0.832877
-6.09484
-0.971846
0
-6.71989
-3.03963
-7.15283
-1.41423
-3.93319
-0.153392
-6.90288
-0.870544
-4.23225
-6.29969
0
-3.38057
-3.2885
-5.88157
-4.3982
-0.0688875
-5.63367
-2.25369
-3.10448
-2.10159
-4.37634
-2.95462
0
-2.09217
-0.265706
-8.75427
-1.7306
-5.9294
-0.426708
-9.10341
0
0
-2.40545
-1.92878
-1.47568
-2.8041
-4.787
-1.53816
-2.30921
0
-10.4896
-0.891645
-3.13493
0
-8.34068
-0.894661
-7.56925
0
-7.27047
0
0
-1.97488
0
-3.09701
-0.465722
-4.95278
-3.67957
-4.30154
0
0
-1.14341
-2.16123
-0.485889
-4.7803
0
-3.0424
-1.32219
-2.06225
0
-0.85601
-1.44908
-0.183453
-1.55583
-1.18352
-0.782857
-3.25493
-4.49252
-2.28138
-2.24694
-0.947667
0
-0.0839223
-0.305582
-7.33451
-0.0730868
-8.17419
-4.50884
-0.417507
-6.42137
-0.0901105
-1.90255
-1.78161
-1.945
-0.233558
-1.10118
-8.3577
-1.47993
-0.773684
-0.0765168
-0.711879
-0.231221
-1.17081
-0.544483
-4.76538
-2.93788
-4.88398
0
0
-8.13854
0
-0.919793
-0.749575
-3.81174
0
-1.83014
-0.245962
-0.879596
0
-2.45333
0
0
-4.80439
-4.05197
-0.368538
-2.12282
-1.18436
-4.87979
0
-6.11351
-0.687142
-1.76861
-0.61534
-4.21062
-0.566677
-5.34643
-8.32858
-3.34557
0
0
-2.90088
-1.74053
-2.5187
-3.57421
-3.81528
-4.46714
-0.117209
0
-3.81219
-4.12366
0
-3.12018
-4.13991
-3.96612
-3.77948
-0.0960508
-1.20394
-0.3956
-3.87226
-1.90212
0
-3.00009
-0.551933
-0.222527
0
-2.78405
-9.02506
-1.9152
-0.9801
0
-0.301822
0
-0.733739
-8.49607
-2.51979
-5.14881
-1.1388
-4.35525
-8.69471
-4.88828
-8.59845
-0.238131
-1.51267
-4.57001
-3.40477
-4.36706
-5.13134
-7.02073
-1.85512
-0.567333
0
-1.86238
-0.804742
-2.77205
-0.783677
-3.33863
-5.6637
-2.87354
-0.842932
0
-2.83572
-0.796799
-2.77471
0
-0.672481
-2.71775
0
0
-0.201992
-2.85121
0
-5.83983
-0.339359
-2.0948
-0.114736
-5.66666
0
-1.27014
-0.624335
-1.26599
-4.34767
-0.642674
-4.32881
-0.238937
-1.80191
-1.68078
-1.84205
-2.42041
-3.31249
-1.46353
-3.08922
-5.45263
0
0
-7.45525
-1.16723
-6.87169
0
-0.105708
-3.24706
-0.461143
-1.25212
-0.615532
-8.35657
0
-8.38608
-1.09646
-1.30754
0
0
-0.932329
-1.18564
0
-3.90092
-1.31765
-1.38065
-0.681615
-0.527201
-2.15173
-2.94741
0
-6.01089
0
-5.2972
-0.398989
-0.209022
-0.836646
0
0
-3.8826
0
-7.47055
-2.50502
-7.52684
0
-4.30322
0
-0.646585
-0.0198762
-0.734763
0
0
-0.4243
0
-0.102956
-2.6793
-2.44484
-3.7971
-2.03127
-0.0458985
-7.64551
0
-4.12666
-1.03049
-0.140723
-5.20563
-1.80302
0
-3.78243
0
-0.396331
-5.13972
0
-0.885576
-2.78349
-1.70207
-1.63911
-0.182845
-0.654938
-3.04549
-2.69052
-3.57561
-4.84469
0
0
-5.35063
0
-3.80977
-1.11788
-4.19201
0
-2.30315
0
-0.17574
-0.670409
0
-2.96787
0
0
-1.53241
-1.42977
-2.59895
0
-1.8376
0
-7.94039
0
-3.20818
-3.67529
-3.06722
-2.32827
-2.44002
-2.0461
-2.70634
-1.44305
-4.95079
-0.427378
-3.08406
0
-5.52529
-0.205848
-5.87302
0
-4.97152
-0.743854
-3.16035
-0.413153
-1.58022
-1.75655