<?xml version="1.0"?>
<VTKFile type="RectilinearGrid">
<RectilinearGrid WholeExtent="0 32 0 32 0 32" Origin="0 0 0" Spacing="1 1 1">
<Piece Extent="0 32 0 32 0 32">
<PointData>
</PointData>
<Coordinates>
<DataArray type="Float32" format="ascii">
0 0.524874 1.04975 1.57462 2.0995 2.62437 3.14924 3.67412 4.19899 4.72386 5.24874 5.77361 6.29849 6.82336 7.34823 7.87311 8.39798 8.92285 9.44773 9.9726 10.4975 11.0224 11.5472 12.0721 12.597 13.1218 13.6467 14.1716 14.6965 15.2213 15.7462 16.2711 16.796 
</DataArray>
<DataArray type="Float32" format="ascii">
-5.03879 -3.62163 -2.20447 -0.787311 0.629849 2.04701 3.46417 4.88133 6.29849 7.71565 9.1328 10.55 11.9671 13.3843 14.8014 16.2186 17.6358 19.0529 20.4701 21.8872 23.3044 24.7216 26.1387 27.5559 28.973 30.3902 31.8074 33.2245 34.6417 36.0588 37.476 38.8931 40.3103 
</DataArray>
<DataArray type="Float32" format="ascii">
0 0.524874 1.04975 1.57462 2.0995 2.62437 3.14924 3.67412 4.19899 4.72386 5.24874 5.77361 6.29849 6.82336 7.34823 7.87311 8.39798 8.92285 9.44773 9.9726 10.4975 11.0224 11.5472 12.0721 12.597 13.1218 13.6467 14.1716 14.6965 15.2213 15.7462 16.2711 16.796 
</DataArray>
</Coordinates>
<CellData>
<DataArray type="Float32" Name="Scalar" format="ascii">
0
0
0
0
0
0
0
0
0
0
0
0
0
0
0
0
0
0
0
0
0
0
0
0
0
0
0
0
0
0
0
0
0
0
0
0
0
0
0
0
0
0
0
0
0
0
0
0
0
0
0
0
0
0
0
0
0
0
0
0
0
0
0
0
0.0787482
-0.547342
0
-0.161356
-0.150961
0
-0.192157
-0.0985472
-0.0545725
-0.334825
0
-0.324167
-0.545962
-0.0245561
-0.572184
-0.145164
-0.0172195
-0.678355
0
-0.218291
-0.14114
-0.036208
-0.0957004
-0.851047
0.293788
0.185148
0
-0.0476799
-0.468583
0
-0.53676
-0.0126727
0.101275
-1.45981
0
-1.28664
-0.0737628
0
-0.771675
-0.0474237
-0.00905287
-0.908453
-0.070569
-0.513654
-1.37194
0
-0.0772495
-0.0482062
-0.197013
-1.28423
0
-1.74472
-0.0392695
0
-0.500702
0
-0.0181079
-0.633414
0
-0.169207
-0.256934
0
-0.290765
-0.664535
-6.30678
-3.57969
-4.78656
0
-7.36148
0
-1.40016
-0.164947
0
-4.33131
-2.79272
-7.46473
-1.67368
-1.10013
0
-5.26979
-2.50871
-1.76384
-4.03645
-1.60566
-0.339715
0
-3.28533
-3.25502
-3.2223
-3.32317
-5.15205
-2.84983
-1.65735
0
-10.1242
0
0
-2.80734
0
-0.452863
-9.65879
-0.463631
-2.20776
-5.04503
-7.15068
-1.13361
-2.97097
-4.4836
-2.59331
0
-6.26017
-1.39856
0
-5.31829
-0.343374
-4.84212
-0.300239
-3.48531
0
-9.32847
-1.29212
-5.4116
-0.433371
0
-4.55254
0
-1.16527
-3.19985
-1.87979
-5.82429
-4.80565
-2.45041
-1.02403
0
-3.85563
0
-0.189856
-5.42636
-4.05815
-4.31554
-6.29569
-1.70123
-4.7976
-1.69311
-5.90509
-2.0871
-1.21633
-2.0914
0
-4.27726
-0.30016
-6.70675
-0.309791
-8.80693
0
-2.27501
-0.821632
-10.3302
-1.47684
-5.65779
-3.39379
-0.0976141
-5.801
-0.15082
-9.02498
-0.206729
-0.115068
-5.46666
-0.700773
-0.348886
0
-0.534054
-1.21332
-4.8498
0
-2.18653
0
-1.21141
-6.34527
-3.11831
-0.117374
-2.51757
0
-0.900456
-2.95751
-1.65958
-1.67919
-2.10141
-2.15681
-0.205538
-2.81742
-0.967376
-1.04664
-0.464717
-1.67566
-3.63227
-0.170154
-1.45394
-2.52368
-5.3511
-1.1022
-6.64976
-3.8518
-0.160065
-1.14043
-3.55636
0
-0.866417
-2.29972
-1.49395
0
0
-3.60256
-0.210013
-10.2571
-0.383312
0
-1.63562
0
0
-2.53405
0
-0.682437
0
-0.505776
-1.40764
-1.73756
0
-8.53622
0
-4.16198
-1.36334
-5.2335
-2.66813
-3.37418
-0.0765386
-2.20581
-0.929861
-6.9055
-3.32868
-4.09955
-0.271456
0
-4.40439
0
-4.73387
0
-2.01604
-0.840385
-2.3121
-1.43252
-0.488314
-0.0408499
-0.8497
-3.58491
0
-1.64445
-3.51026
-1.51212
-0.653765
-4.27727
0
-1.62229
0
0
0
-4.8581
-1.55267
-1.04845
-1.85321
0
-2.84426
0
-4.48169
0
-3.79128
-0.218903
-1.78156
-1.02595
-0.104094
-4.75786
-4.56563
-6.12876
-5.03044
-1.62985
-2.49524
-0.821008
-2.03958
-1.4163
-1.89686
-0.852408
0
0
-5.06999
-6.86392
0
-1.1304
-7.69896
-0.27892
-5.84317
-0.319849
-2.95861
-0.851909
-2.31821
0
-0.459779
-4.44035
-2.66567
-6.87827
-1.1927
-3.55749
-0.666575
-6.27971
-0.955628
-3.131
-6.08755
0
-4.93928
0
-5.96764
-0.0475822
-5.13478
0
0
-1.82331
-2.33871
0
0
-1.5845
-1.71724
-4.53121
-0.0994803
-3.93226
-1.64631
-4.03615
0
-3.87234
-1.28446
-1.3964
-7.14952
-1.45883
-3.25527
0
-1.15216
-0.173247
-5.5163
-1.57733
-6.06042
0
0
0
0
-0.586027
0
-0.428725
-0.637991
0
-0.924624
0
-0.0800857
-1.32983
0
-3.45554
-3.93727
-2.98728
-3.2906
-1.77748
-1.53628
-1.84564
0
-2.88721
0
-0.452207
-1.01524
-5.78709
-1.12578
-2.51696
0
0
0
-3.4142
0
-0.705341
-0.474225
0
-0.830848
-0.0376237
-0.968737
-5.0094
-1.04747
-5.72476
-0.433527
-0.941514
-5.25569
0
-4.36106
0
0
-4.41153
0
-5.63522
-3.13219
-1.16189
0
-0.0975777
-2.1609
-2.25784
0
0
0
-3.99067
-3.04397
0
0
0
-3.37541
-3.15126
-1.5237
-4.93411
-1.30638
0
-1.94898
-1.44061
-2.56565
0
-1.95719
-2.17311
-0.0497965
-3.90074
0
-3.75156
0
-0.839799
-0.0110869
-1.02519
-5.55276
-1.00065
-4.53544
-1.7152
-1.10427
-0.069647
-0.472482
-1.03283
0
-3.06167
-1.33296
-2.65798
0
-6.1368
-0.309181
-5.5828
-0.0457438
-2.05507
-0.271872
-3.56989
0
-2.62954
-0.8563
-0.78001
-0.701178
-0.784068
-7.92281
-0.983896
-0.739876
0
-1.99725
-1.92953
0
0
-5.40993
0
-4.06822
0
-1.99838
-2.06019
-4.36604
0
-0.224982
-0.346654
-0.917611
-4.66363
-0.678798
-0.826717
-0.0497479
-7.24334
0
-3.61464
0
0
-1.03452
0
-3.38667
-1.34447
-2.40012
0
-0.202886
-2.62922
-1.64566
-1.40897
-5.53355
-1.45647
-5.57023
-0.5988
-3.89293
-0.298688
-3.1117
-0.806403
-3.97653
-1.05555
-2.93733
-0.773535
-3.68187
-1.21823
-4.27144
-5.14176
-3.53497
-8.04656
0
-0.276728
-5.21752
-2.12895
-3.81567
-1.80351
-4.77665
-0.562185
-3.03701
-0.939392
0
-3.10431
-2.9092
0
0
-5.78605
0
-0.129383
-1.80541
0
-2.90487
-2.67923
-0.144769
-4.80072
0
-3.85548
-7.06557
-0.451947
-0.011133
-0.411755
-1.4464
-2.00484
-1.77733
-6.61853
0
0
-2.1273
-1.52537
-1.86213
-5.66197
0
0
-6.81158
0
-0.261428
-3.28261
0
-4.58878
-0.450471
-6.96948
-0.87785
-1.59582
-3.73013
-9.60304
-0.970691
-4.39359
-1.29034
-3.02205
-1.08446
-5.4318
-1.61444
0
-6.6187
0
-1.19836
-2.29314
0
-5.80739
0
0
-2.13775
0
-2.91335
-4.89443
-2.90245
-0.609004
-4.53832
0
0
0
-6.69543
-1.15602
-1.14589
-3.38878
0
0
-4.53815
-2.18516
-2.2474
-0.216733
-4.77724
0
-6.29984
-3.00943
-4.6339
-2.26052
-6.93309
-1.56936
0
-4.1037
-2.12619
0
-0.601448
0
0
0
0
-2.43215
0
-5.73694
-0.393915
-3.9253
-0.903514
-1.0771
-5.34536
-0.432181
0
-1.10383
0
-7.71409
-0.729806
0
-1.53163
-0.655712
0
-1.58376
-7.17373
0
-4.47693
0
-6.19351
-3.27348
-4.57505
-5.28577
-4.02582
-0.500537
-6.98301
-0.78149
0
0
-4.77267
0
0
-1.72412
-3.62523
0
-1.51037
-1.55927
-0.795322
-0.570142
0
0
0
-1.41311
-0.901574
-6.56859
-1.0829
-2.75628
-1.26342
-7.28604
-0.451042
-3.54829
-0.729151
-2.52602
-1.52417
-4.02494
0
-7.64616
-0.560236
0
0
-6.14044
0
-3.36713
-1.99816
-1.46736
-3.26736
-8.18207
-5.67535
0
-8.83624
-2.38019
-4.38518
-6.17817
-1.56657
-0.496464
0
0
-0.546464
0
-7.6254
-6.14812
-1.78871
-1.21776
-0.297962
-0.14397
0
-2.01091
-2.50605
-0.0764842
-5.06426
-1.25484
-1.86307
0
0
0
-4.15178
-1.46319
0
-0.605541
-5.52803
-0.9867
-9.63907
-4.66614
-12.8624
0
-2.29661
0
-3.22445
-11.0013
-0.426283
-2.77329
-0.93607
-2.60486
-8.12231
-0.553037
-2.2277
-3.4854
-5.47517
-2.79262
0
-4.7729
-2.67756
-0.262013
0
-5.86943
-4.94531
-1.22095
-9.46294
0
-11.6997
-1.81381
-3.31609
0
-0.93222
-4.73326
-0.861275
-3.77705
-1.60337
-6.56386
-0.469329
-4.32996
0
-1.99136
0
-0.962349
-2.46781
-2.03341
-5.22523
-3.45465
-0.200218
0
-0.343541
-1.16006
-0.871475
-1.50432
-0.0487073
-1.7529
0
-3.36452
-1.808
-0.761104
-0.189968
0
-1.91853
-1.86009
0
0
-3.56938
0
-2.6747
-2.66379
-0.793276
-8.85667
-1.01638
-7.41772
-0.321897
-5.2117
0
-8.82718
-9.56569
-2.70744
0
-0.813118
-1.60075
-4.58349
-4.05705
-0.697089
0
-1.16587
-4.19116
-1.80672
-4.96075
-4.10722
-2.82682
-5.37534
-3.70546
0
-0.246839
-2.29013
0
-3.22039
-3.88612
0
0
0
-1.46214
0
-1.08068
-0.8324
-3.83108
-0.212637
-3.32782
0
-0.460383
0
0
0
-0.493089
-1.01299
-5.9186
0
0
-4.40301
0
-5.17697
-1.51021
-3.05857
0
-5.90756
-0.338696
-4.75859
-8.18066
-2.24815
0
-1.47209
0
0
-6.38305
-3.72021
-1.29616
-1.68429
-6.15199
0
-2.54104
-2.22433
0
-0.3434
-0.0295201
-4.38345
-2.79553
-5.19688
-0.150169
-0.672045
-3.66691
-1.80767
-0.721193
-1.14561
-4.00168
-0.558245
-3.57113
-1.5705
-6.29191
-1.40501
-4.28368
0
-3.09157
-2.95959
0
-1.89114
0
0
-2.2176
-2.71877
0
-9.47653
0
-4.92267
0
-1.08782
-0.917923
-2.99966
-1.57611
-3.00452
-5.26104
0
-11.3825
-0.169118
-5.10206
-1.61965
-2.81628
0
-4.19545
0
-0.580064
-1.55754
-1.66189
-0.162905
0
-8.42877
0
-0.157141
-3.0759
-0.466776
-0.752546
-4.69567
-1.99291
0
-5.4161
-1.12464
-1.91074
-1.09304
-1.94185
-11.5507
0
-8.16992
0
-2.05244
-3.9271
-2.39869
-4.3194
-1.50973
-2.95702
-4.22463
-4.01555
0
-9.37753
-1.47016
-3.66031
0
-2.80747
-1.86432
-5.79115
0
0
0
0
0
0
0
0
0
0
0
0
0
0
0
0
0
0
0
0
0
0
0
0
0
0
0
0
0
0
0
0
0
0
0
0
0
0
0
0
0
0
0
0
0
0
0
0
0
0
0
0
0
0
0
0
0
0
0
0
0
0
0
0
-0.53942
-1.15916
0.0125826
-0.704246
-0.859688
-0.188343
-1.33568
-1.34638
-0.393001
-2.31992
-0.243527
-1.32918
-0.93646
-0.00299488
-1.57051
-0.185983
-0.806433
-2.85186
0
-1.79596
-0.916598
0
-0.323345
-0.37353
-0.8094
-1.6528
0
-0.878983
-0.988004
-0.0488985
-1.06807
-0.990565
0
-1.96569
-0.10237
-0.858235
-2.70673
-0.0182326
-0.140113
-0.487898
-0.809831
-1.35772
0
-2.84938
-2.56429
-0.0348258
-0.83095
-0.410721
-0.381872
-2.40769
-0.963595
-0.427149
-3.36782
0
-0.30246
-1.25669
-0.454908
-0.649505
0
-1.18621
-0.168894
0.0068031
-0.809724
-0.132654
-6.13583
0
-2.8174
-5.07988
-3.068
-3.63537
-2.0469
-0.489081
-5.32048
-1.38326
-1.85388
-1.72428
-7.50954
-2.45133
-7.6356
-1.89753
-1.75287
-8.31423
-0.316249
-6.19331
-7.3998
-2.99636
-4.16688
0
-2.10405
-1.36647
-0.928323
0
-6.01466
0
-0.391434
-2.92857
-3.4733
0
-7.22108
0
-0.875668
-1.20859
-7.79995
0
-3.50724
-2.06929
0
-3.19084
0
-5.35433
0
-11.2423
-2.49796
0
0
-3.04466
0
-0.218629
0
0
0
-1.26087
0
-0.912871
0
-3.69625
-1.84863
-0.613724
-3.39774
-2.441
-2.32606
-6.43657
-3.03974
0
-3.37336
-1.61843
-0.709954
-2.75272
0
-0.43202
-0.729225
-1.1332
-6.36156
0
0
-1.21413
-3.38839
-0.469228
-1.69777
-4.53628
0
-2.9439
-0.782492
-0.91037
-0.804374
-6.02357
-2.07252
0
-0.719566
-3.4976
0
-0.815844
-0.211991
0
-1.20041
0
-9.04326
-2.1439
-4.55914
-0.687316
-6.01376
0
-5.42292
-2.15108
-4.3004
-6.44359
-1.99383
-4.4573
0
-0.974742
-1.486
-0.0564815
0
-1.60293
0
-1.32872
-0.191903
-2.76323
-0.361275
0
-2.0254
-0.184338
-4.62434
-0.257499
-5.72986
-0.248116
-3.16721
-3.52193
-0.767258
-1.69541
-0.701357
-0.142028
-3.17477
-2.00078
-2.5628
-1.83977
-2.95257
-0.662416
-2.01718
-3.37993
-3.44854
-4.08301
-0.866917
-2.20541
0
-2.85468
-3.60706
-3.54018
-3.75548
0
-1.26223
0
-5.10439
-0.855366
-1.01042
-1.24289
0
-5.37269
-0.31266
-2.90618
-3.04114
-0.634297
-3.7972
0
0
-4.15973
-1.20737
0
0
-5.7822
0
-0.428932
-0.678536
-0.870727
-0.980346
0
-0.936745
-1.56905
-1.92927
-0.39504
-1.15175
-1.33342
-2.74147
-0.625904
-2.1863
0
-0.167837
0
-0.536589
-5.31005
0
0
-3.82454
0
-1.35646
-3.56007
0
-2.52573
-4.00272
-5.95251
-0.202636
-1.43555
0
-2.7274
-0.066687
-1.96626
0
-2.95135
-4.34728
-0.561231
-2.83168
-0.190879
-0.873572
0
-0.537833
-1.60694
-1.70398
-0.952671
-1.28281
-2.39044
-1.48082
-6.00168
0
-1.04436
0
-11.3461
-0.657744
-0.0369086
-0.242623
0
0
-0.142626
-0.370931
-2.32789
-1.9022
-4.6234
-0.309028
-1.51748
0
-0.0909206
-2.26642
0
0
-0.715989
-0.776993
0
-0.363209
-3.64957
0
0
-5.45252
-2.83351
-0.983518
-2.89342
0
-0.937359
-6.02683
-2.17704
-5.28564
-1.69799
0
-1.44289
-0.479623
-0.461471
-2.90981
-2.45286
0
-1.26169
-2.77181
0
0
-1.93381
-1.33069
-1.83055
-0.333003
-2.05099
0
-2.50566
-1.7447
-6.20505
-2.91546
-5.00175
0
-3.93781
0
-1.2381
-1.32694
-0.0567509
-2.16859
-0.287773
-9.86994
-1.56813
-0.963029
0
-2.78736
-3.43732
-0.733023
-1.9272
-3.87112
-5.69728
-8.90457
-2.98554
-6.88278
-2.82071
-0.96609
-1.51086
0
0
-3.22978
-2.27946
-1.35307
-0.147527
-3.03118
-2.1459
0
-1.42847
-2.57712
-3.93592
-0.442722
0
-2.6681
-1.05255
-1.11145
0
-2.85733
-2.3241
-4.3861
-3.03252
-2.75839
-0.591748
-1.79637
0
0
-1.61783
-5.10655
0
-6.34392
-2.27802
-6.79876
-2.28729
-3.44261
-4.98998
-1.03579
-6.27008
0
0
-2.11756
0
0
0
-7.26032
0
-4.92545
0
-1.39037
-1.12337
0
-11.591
0
-1.28066
-1.51718
-1.66685
-5.07325
-2.13417
0
-2.31815
-0.0314203
-0.20602
-0.168343
-1.39363
-1.82247
0
-4.9151
-0.681939
-3.71347
-1.03388
-3.96906
-0.203551
-1.42035
-1.5028
-0.0854616
-3.09918
-1.23957
0
-2.36999
-5.73507
0
-2.43428
-0.0344527
-8.73127
-0.845867
0
-10.8331
-0.124518
-0.590571
-2.49646
-0.431543
-0.917795
-5.32747
-3.12809
-5.60832
-2.25653
-0.930825
-5.93636
0
-5.18284
-0.339779
-7.93466
-6.98541
-4.41932
-0.550038
-5.53251
0
-6.74058
0
0
-1.09766
-4.08574
-5.91654
-0.551763
-0.0719249
-4.40177
0
-2.2979
-1.90236
-2.14819
-5.5269
0
-0.561681
-0.809606
-1.57961
-0.870157
-1.32394
0
0
0
0
-0.220911
-1.76154
0
-1.18168
-0.582879
-1.59876
-0.762778
-3.00238
-0.684346
0
-2.07439
-1.00985
-0.75427
0
-2.92261
-1.18601
-1.25261
-0.0545717
-2.04745
-1.52386
-5.98422
-0.624039
-1.0278
-1.41364
-7.40172
0
-9.8846
0
-5.73456
-3.1562
-2.53814
-3.81372
-7.90608
-0.61822
-4.27537
0
0
-0.515285
-1.69454
-0.876781
0
-5.43647
0
0
-4.74301
-4.76556
-1.07806
-3.75657
-1.13829
-0.441698
0
-9.11456
0
-6.37258
0
-5.99029
-3.50118
0
-3.6939
-4.94945
-2.28272
-0.774851
-2.66173
-0.363828
0
-5.31971
0
-0.376877
-5.2896
0
-2.07063
-1.56969
0
-0.978601
-0.389614
-1.90563
0
-0.147786
-1.34536
-6.31555
-3.1114
-5.02465
-3.17868
-1.03689
-2.40468
-4.27419
-0.0676831
-0.385254
-4.47205
0
0
-0.744388
0
0
0
-1.41718
-2.29077
-1.06119
-4.65241
0
-1.84581
0
-4.60313
0
0
-1.03702
0
0
-11.7166
-1.08146
-1.66995
0
-2.95373
-5.04449
-4.18758
-1.66141
-3.4572
0
0
-0.0954278
0
-0.69379
-3.33244
-2.70687
0
0
-7.06865
-1.29201
-9.09541
0
-0.0941632
-3.69594
-0.509748
-0.698212
-5.90757
-0.360264
-1.3866
-4.30027
-1.61344
-0.258474
-0.908136
-1.38403
-4.90573
0
-2.01284
0
0
-0.170993
-6.83813
-2.20045
-1.82222
-2.40962
-3.61223
0
0
-1.16975
-2.18636
-0.915077
-3.68458
-3.89643
-2.05228
-3.57102
-9.39448
-5.30412
-8.61621
-0.592723
0
-5.39568
-0.101386
0
0
-7.4762
-0.300876
-5.11145
0
-2.128
-1.83438
-1.96065
0
-7.44393
0
0
-0.897215
-2.49842
0
-2.91362
-0.727342
-2.34051
-4.48362
-0.249685
-4.83284
-0.89557
0
0
-2.44083
-2.43874
-1.52804
-5.50171
-4.19295
-1.98306
-4.68343
-0.574141
-6.19728
-0.328407
0
-2.39668
0
-1.66928
-0.462857
-0.701959
-0.200229
0
-1.39302
-0.940435
-5.76509
-0.789762
-0.0256203
0
-2.36312
-1.28821
-1.01175
0
-0.620492
-2.13806
0
-6.87964
-0.622394
-9.00321
-0.889659
0
-8.63582
0
-7.30048
0
-0.727524
-2.27587
-3.40605
-2.09889
0
-1.83646
0
-3.70058
0
-3.75923
-2.3164
-1.7105
-0.966624
-1.65677
0
-0.0482892
-3.78239
-7.06186
-0.38615
-4.2123
-4.12825
-1.76713
-5.64822
0
0
-5.40344
-0.0836218
-2.19575
-1.32477
-4.3621
0
-3.68827
0
-1.58408
-3.12323
-1.64759
-4.78018
-1.9864
-10.6303
0
-5.10189
0
-3.15466
0
-7.12396
0
-1.85286
-4.39084
0
-5.10796
-0.502349
-0.732099
-4.33077
-6.68098
-10.2933
-4.62035
-7.12983
-1.61767
0
-0.664083
0
-0.588293
-0.232141
-5.81606
-0.732951
-3.54365
-1.31205
-0.430687
-9.90807
-2.55785
-3.93371
-1.41849
-0.683009
-4.9624
-0.909
-0.193162
-2.04415
-2.35514
-0.651439
-2.2506
0
0
-1.03395
-0.520273
-0.164191
0
0
0
0
-7.1531
-8.6508
-1.15138
-7.82206
-4.36112
-2.09009
0
0
-3.07295
-0.884884
-7.23137
-0.318445
-5.88693
-0.981045
-3.86321
-1.36532
0
0
-1.53472
0
0
-2.75826
0
0
-1.03091
-3.5266
-0.0596079
-2.83111
-0.836946
0
-2.77031
-5.86418
0
-7.15217
0
0
-0.585413
-4.08103
-3.23506
0
-7.75961
-0.133255
-1.9464
-1.41453
-4.19234
0
0
0
0
-0.0529384
-3.79298
-0.659453
-1.19917
-6.87216
-4.71755
-0.63317
-1.58118
-1.20662
-0.149273
-2.2105
-0.31688
-2.62797
-1.7549
-4.38738
-0.034651
-7.03795
-5.71138
0
-5.04501
0
0
0
0
0
-1.88834
-0.593944
-1.94415
-2.94985
-0.908972
-1.50008
-1.6177
-1.40732
-2.78918
0
-3.30009
0
0
0
-2.15478
-0.473779
0
-1.00065
-3.64888
-0.364881
-2.6816
0
0
0
0
-4.76447
-3.60852
-0.919886
-2.47344
-1.25546
-6.56674
-1.93878
-3.2092
-0.744401
-4.67968
-0.633798
-1.21514
0
-3.66267
-0.15199
-3.14864
-4.66333
-4.87135
-1.60431
-5.58639
0
-2.14653
-2.56502
-8.3197
0
-3.76619
-1.67175
-1.24654
-5.60295
-2.33074
-2.16311
0
0
0
0
0
0
0
0
0
0
0
0
0
0
0
0
0
0
0
0
0
0
0
0
0
0
0
0
0
0
0
0
0
0
0
0
0
0
0
0
0
0
0
0
0
0
0
0
0
0
0
0
0
0
0
0
0
0
0
0
0
0
0
0
0
0
0
-0.0702504
0
0
0
-0.105867
0
0
0
0
0
0
-0.117367
-0.109848
-0.0788778
-0.0410509
0
0
0
0
0
-0.0210902
-0.00296044
-0.131912
0
0
0
0
0
0
0
0
0
-0.197959
0
0
0
0
0
0
0
-0.0152097
0
0
0
0
0
-0.277781
0
0
0
0
-0.0477522
0
0
0
0
0
0
0
0
0
-0.182578
-4.06473
0
0
-0.578516
0
-4.94125
-1.64717
-1.5436
-1.43526
-4.9376
-4.30831
-0.122562
0
-1.59527
-1.16163
-2.08824
0
-2.64014
-2.74946
0
0
-5.12018
-2.36728
-3.60787
-2.87093
-4.15488
-0.828121
-5.8379
-0.153563
-6.42854
-1.32144
-1.24123
-3.31922
-2.12588
-0.414313
-11.221
0
-3.80516
0
-1.97154
0
0
-4.01171
-0.180854
-0.165331
0
0
-1.26422
-6.81276
-3.57585
0
-3.49581
-1.99468
-2.87372
-1.80107
-3.34137
-0.935531
-5.09715
-1.72573
-2.51877
-2.34957
0
0
-4.52309
0
-2.00291
0
-1.32607
0
-0.168956
-3.04371
-2.07422
-1.25132
-6.68234
0
-6.20827
-0.963966
-1.77049
-2.12908
-5.0036
-2.31612
-3.93002
-4.49501
-1.77719
-1.81759
-2.3757
0
-1.60445
-3.59671
-0.849208
-2.32112
0
-0.657365
-3.24642
0
-3.63901
-1.17126
-2.39652
0
-2.82424
-4.6733
0
-1.94052
-2.34806
-2.93209
-2.66015
0
-3.84248
-1.31013
0
0
0
0
-4.40064
-2.68198
-0.72067
-2.58811
-3.86718
-3.49782
0
-5.56322
-1.14697
-5.95438
-1.81216
-8.41439
-0.182075
0
-1.21713
-6.91086
0
-6.11987
-2.59698
-2.34159
-2.52922
-0.750795
-2.45199
-4.6896
-4.01407
-3.55487
-0.106533
-2.21294
-0.249966
-2.39675
-6.96275
0
0
-0.955853
-4.62786
-6.63126
0
-6.66085
-0.187374
-0.584785
-1.20168
-6.58406
0
-1.6467
-0.0345977
-2.05679
0
-6.13754
0
-2.23026
0
-3.79608
-0.377212
-2.74271
-1.17182
-3.60266
-1.27416
0
-4.51085
0
-2.73578
-3.60818
0
-3.80909
-0.370452
-0.261406
-2.4826
-1.81368
-3.63485
-1.58734
-1.33113
-4.36073
-2.02634
-1.50795
0
-3.18967
0
-6.95575
-0.260285
0
-4.10514
0
0
-4.8294
0
-6.78229
0
0
0
0
-5.22064
-0.763029
-1.06783
-0.103048
-5.71501
-0.475547
-9.06757
-1.19629
-5.61819
-3.1178
-0.380513
0
-5.42419
-3.6225
-7.26042
-3.98274
-2.60615
-5.81565
-2.04321
-3.44728
-1.11444
-2.04521
-0.744545
-6.16338
-4.0856
-7.2676
-0.310674
-2.37399
0
-2.49189
-6.80435
0
-6.2698
-2.65304
-6.69285
-0.0951516
-4.83958
0
-6.13819
-0.00722207
-0.0446189
-0.0850785
-0.0670868
-4.04794
-0.86843
-4.99809
-0.920479
-5.16482
-1.62372
-2.60717
-1.00409
-3.05212
0
0
-1.42067
-0.386378
-1.88585
-6.27883
0
0
-2.2263
-1.79266
-6.18941
-1.70201
-4.3558
-0.10622
-0.929213
-2.36672
-4.0571
-0.259659
-1.77067
-3.13962
-5.47386
-2.56048
-1.76068
-1.91584
-1.00397
-4.30285
-2.53807
-4.03852
-4.1229
0
-0.914084
-0.184765
0
0
-1.03943
-2.85727
-1.25101
-1.16056
-2.59599
0
0
0
-5.99271
0
-5.96644
-0.565957
-2.62069
-2.18539
0
-0.506733
-0.532361
-1.8514
0
-3.74949
0
-2.72798
0
-1.0479
-2.60139
0
-2.75678
-4.67353
-0.564603
0
-6.00109
-5.58667
-0.193165
-2.05493
-1.64983
-4.63748
-2.52452
-0.64962
-5.96188
-0.761376
-2.12163
-3.89363
-3.66193
-5.96265
-5.67124
-1.35344
0
-3.49467
-1.02722
0
-0.375335
-2.40097
0
0
0
-0.962514
-2.71129
-0.0238392
-0.39754
0
-2.49922
0
-2.58495
-2.15345
-4.96093
0
-0.237618
0
-0.690292
-3.89215
-1.98416
-4.04073
-3.02748
0
0
-5.45346
-1.26383
-1.65379
0
-1.08677
-4.53016
0
-3.27254
-0.139092
-1.17044
-4.48317
0
0
-1.69198
-0.437214
-5.07812
0
-1.69784
-0.316737
-3.08705
-4.46847
-2.2444
-2.50993
-1.67461
-6.15944
0
-0.0408087
0
-6.63167
-1.35392
-1.58912
0
-3.89241
-0.300614
-4.7382
-2.91318
-4.2616
-5.01182
0
-2.21292
0
-0.0630477
0
-3.04027
0
-7.19719
-1.52641
0
0
-0.216248
-1.87745
-3.13042
-2.84418
0
0
0
-4.52754
-0.0650827
-1.03722
0
-1.604
-0.108775
-0.536052
-1.14418
-6.03281
-0.490293
-1.01632
-0.498977
-0.681936
-1.71967
-0.818138
-3.7191
0
-3.18742
-2.5301
-2.2171
-0.920373
-4.50071
-2.83996
-0.748168
-6.81957
-1.50842
-4.98097
-0.794193
-3.06559
0
-4.37856
-0.0768366
-3.35693
0
-5.70591
-1.81129
-3.34876
0
0
-2.44469
-0.959709
0
-0.141761
-5.39241
-5.48082
-4.08025
-0.265705
0
0
0
0
-2.09007
-6.1882
-4.14035
0
-7.4692
-1.89196
-6.23096
-0.0488151
0
0
-0.952557
-1.32626
-3.56897
-1.51183
-5.76876
0
-0.723055
0
-2.2693
-3.69027
-6.86972
-0.44019
-0.0537923
-0.448336
-0.493576
0
0
-6.53103
-5.2823
-1.77038
0
-6.63298
0
-1.82308
-4.41552
-1.8108
-1.22856
-2.91242
-7.3655
-5.98914
-6.72934
0
-0.725832
0
-4.16543
-0.296827
-2.81489
-0.0499176
-5.15895
0
-3.12605
-4.86989
0
-2.70027
-3.72437
-3.26214
-0.222305
-8.37795
-0.613612
0
-1.40768
-1.1139
-4.10203
-4.65423
-3.86157
0
-3.2477
-0.0477854
-2.31143
0
-3.64919
0
-8.96742
-1.58727
0
-6.60118
0
-10.6283
0
0
-1.67538
-2.29483
-4.06561
0
0
0
0
-2.7652
-1.129
-9.4879
-2.28482
-2.27862
-3.1712
-1.28583
-3.06655
-4.66082
-3.04338
0
0
-0.692926
-0.0380555
-6.56346
-1.34629
0
-5.3196
-1.33695
-4.12984
-3.7826
-1.26685
-2.55004
-3.49449
-1.75748
0
-5.51476
0
-1.85532
0
-5.20754
0
-0.896068
0
-0.28007
-1.38759
-3.34631
-2.2715
-2.28432
-2.01248
0
-6.03939
-0.163838
-1.29575
-1.00452
-1.72941
0
-1.49184
0
-2.28761
-2.64467
-5.81552
-0.680322
-0.750877
-3.95061
0
-2.97343
-0.727812
0
-4.77636
0
-3.66896
0
-0.82448
0
-5.26166
0
-2.66965
-2.79847
-5.61133
-2.37535
-2.45658
-0.02362
-2.44571
0
-6.20772
-2.26549
-3.81915
-1.27236
-0.03495
-3.22244
-1.766
0
0
-2.52022
-0.0855528
0
-5.98988
-4.19806
-0.183027
-6.75061
-1.46057
-1.32159
-0.927049
-5.26154
-0.588849
-1.00403
0
-1.50197
-0.591943
-4.95158
-0.875795
-1.407
0
-1.45846
-3.54429
-0.0475996
-2.78964
-0.718731
-2.27247
-0.731909
0
0
-0.510447
-0.317421
-3.59579
-2.22202
-2.80345
-4.69103
-1.5893
-0.942541
-4.03966
0
-2.08669
0
-3.94307
-1.03691
-2.72949
0
-1.10165
0
-4.13595
-3.02567
-8.41182
0
-0.22433
-4.95861
-4.16294
-2.95872
0
0
0
-3.77204
-0.296575
-4.4644
-1.77395
0
-0.696256
0
-2.17155
0
-2.47792
-2.37022
-0.382748
0
0
-0.991225
-3.4723
-0.336124
0
-4.42701
0
0
-1.27474
0
-0.803418
0
-0.237756
-0.605972
0
0
0
0
-3.70275
-4.79609
0
-1.29392
-4.42139
-7.50113
-0.830822
-6.41647
-1.26591
-1.03256
-3.0517
0
-1.17551
-0.78156
-1.23831
-1.28168
-1.92352
-8.92216
-0.447367
-3.7559
-6.66411
0
-5.43689
-0.459645
-6.19646
-0.724305
-0.78591
-4.41909
-0.555742
-6.47868
-6.74993
-0.893671
-8.81668
-1.48872
-5.59154
0
0
-1.36291
0
-0.767332
-5.54367
-3.67284
-5.75671
-3.64948
0
0
0
-1.76415
-0.990337
-0.0477129
-7.54366
0
-2.42685
-3.9437
-0.325843
-1.17263
0
-8.32515
-0.738439
-3.50423
-2.9294
-1.02097
0
-2.75245
0
-0.237515
0
-0.850244
0
-5.38479
-0.744011
-4.1845
0
-0.162375
0
-2.58346
-3.75491
-4.56715
-0.769514
-4.6668
-1.90178
0
-2.91547
0
-2.36247
-6.7595
0
-1.81663
-0.22401
-3.59608
-1.10059
-1.35868
-0.983713
-2.32674
-0.774761
-4.42217
0
-4.12159
0
-0.913424
0
-0.167498
-1.91741
0
-1.83851
-2.2201
-2.0776
-4.88379
-1.92515
-5.42536
0
0
0
-0.340109
-0.563669
0
-2.46218
-0.48152
-5.06707
-0.375
-4.88418
0
-5.73329
-2.14589
0
-3.73856
-1.1711
-2.68904
0
-1.60778
-4.08747
0
-7.00635
-3.83597
-2.5369
-3.26748
-5.60261
-0.39635
-1.65649
-0.186846
-3.98915
-4.13886
-4.22073
-3.53809
-7.25765
-2.55796
-5.70881
-1.11653
-3.40687
-1.14274
-4.7006
-0.157923
-8.32897
-2.21545
-6.59748
-0.890374
0
-4.06132
-0.979399
-3.12038
0
0
-3.17314
-6.69194
0
0
0
0
0
0
0
0
0
0
0
0
0
0
0
0
0
0
0
0
0
0
0
0
0
0
0
0
0
0
0
0
0
0
0
0
0
0
0
0
0
0
0
0
0
0
0
0
0
0
0
0
0
0
0
0
0
0
0
0
0
0
0
0
-0.856488
-0.870987
0
-0.745616
-0.463058
0
-0.858345
-1.30255
-0.32571
-0.512717
-0.152219
-0.851636
-0.622247
0
-1.67084
-1.99034
-2.17429
-2.10675
-0.146808
-1.2747
-1.92614
0
-1.82767
-1.02299
-0.086381
-0.673426
-0.109154
-0.958925
-0.756313
0
-1.1257
-0.829215
-0.776341
-0.995262
0
-4.40895
-1.64714
0
-1.78106
-0.103866
-0.631182
-3.06754
-0.011733
-0.535262
-2.42086
0
-2.33377
-1.49878
-0.90824
-1.92147
0
-3.07668
-0.436478
0
-1.36773
-0.116198
-0.0886181
-1.01879
-0.067885
-0.548895
-2.27003
0
-1.07715
-0.977371
-3.31151
-7.60509
0
-9.03925
-5.2848
-4.20306
0
-3.21732
-4.12007
-0.818389
0
-7.46125
0
-5.81228
-5.73828
-2.23273
-0.955236
-2.19746
-1.85729
-3.01135
-9.54179
-1.61042
-6.43382
-0.268123
-3.63351
-0.564023
-4.86033
-2.03936
-2.06746
0
-3.02627
-5.44512
-6.44652
-2.57394
-3.5171
-0.959133
0
0
-1.65081
0
-1.20859
-1.50464
-5.06715
-1.09598
-0.406021
-4.69856
0
-1.20276
-0.732283
0
-0.553815
-0.00106273
0
-2.73744
0
-0.753283
-0.548901
-1.97234
-1.58229
-0.17338
-1.34955
0
-7.8133
0
-2.38769
0
-3.07924
0
-4.67395
-2.21014
-10.3811
-1.94976
-4.1893
0
-2.32718
0
-0.834423
-0.884552
-5.03707
0
0
-6.05005
-2.79322
-3.09174
-1.66879
-1.79436
-0.0104077
-2.57249
0
-1.46489
-3.8525
-1.83612
-1.13247
-0.50233
0
0
-7.19927
-2.6224
-0.35199
-5.86569
0
0
-3.69398
-3.85215
-4.86075
-2.07028
-0.249259
-1.73325
-3.63439
-0.328383
-6.1604
0
-7.15915
0
-2.18226
-0.369087
-2.45849
-1.38966
0
-1.70178
-1.87878
-4.40787
-1.32331
-0.0731797
-3.2527
0
-7.80772
-2.53691
0
0
0
-1.2996
-1.0083
-2.65314
-0.976373
0
0
0
0
-4.6049
-2.15697
-1.35036
-3.27561
-2.14814
-1.72847
-2.17199
-6.89233
-1.78005
-1.86425
0
-4.33515
0
-0.880295
-1.06496
-1.96565
0
-0.968865
-4.94119
-0.948675
-1.83038
-1.29142
-1.12979
-4.99941
-1.11488
-2.77093
-4.60788
-4.0155
0
-0.633088
-5.1679
0
-3.39849
0
-4.63337
-2.50431
0
-0.451845
-0.861102
-0.670254
-0.55916
0
-0.719255
-3.17704
0
-1.27764
-2.36541
0
-1.97084
-4.31758
-0.304539
-3.81302
0
-5.85495
-1.63536
0
0
0
-2.86752
0
-0.615313
-0.588071
-10.7082
-2.0328
-5.57795
-3.67688
-2.40871
-6.41997
-2.57786
0
-3.26668
-0.480329
-1.88123
-0.880721
-2.47321
-6.23983
-2.95482
-5.48172
-1.0894
-0.0124466
-0.95141
0
0
0
-0.144987
-0.441626
-4.75898
-0.393751
-2.29833
-4.31958
-3.07304
-4.6969
-3.18474
-4.75346
-0.110466
-5.36013
-0.677926
0
0
-1.55914
0
0
-0.106454
-2.60744
0
-4.92172
-0.472579
-6.78263
-0.940849
-5.80166
-2.03608
-1.76189
0
-0.573617
-0.277565
-1.24435
-1.04889
-1.32722
-3.69546
-0.396748
-6.33783
0
-0.330645
0
-5.68254
0
-3.7592
-1.76479
-1.02177
-0.00647685
0
-3.47176
-1.42335
-3.95548
-5.10856
0
-0.540232
0
0
0
-3.50537
0
-3.08583
-0.491469
-0.0671056
-4.62332
-3.88576
-2.89855
-8.32611
-5.19178
-1.79211
0
-2.15728
0
-0.212048
-0.729364
-2.87692
-6.19692
0
-4.44938
-1.05341
-1.1883
-1.63941
-2.30553
0
0
-2.44984
-0.449051
-4.59163
-0.409443
0
-4.65626
-0.987911
-5.97366
0
-3.7662
-1.15158
-0.71956
-1.97373
-4.99001
-3.26609
-0.212527
0
-3.40889
0
0
0
-3.42212
-2.07536
0
-1.03336
-5.68717
-1.11358
-0.644882
0
0
-3.79591
-5.60504
0
0
-9.75814
0
-3.8118
0
-4.38935
0
-2.33621
0
-0.0532234
-1.65429
-1.25667
-4.11925
0
-0.487189
0
-4.99036
-4.84404
-4.4937
-6.8797
-2.35761
-0.270708
0
-0.303652
-3.85859
-0.699298
-4.47101
0
-1.99312
-3.00959
-1.22306
-0.982436
0
-0.100165
-0.848574
-4.43517
-5.62897
0
-2.86883
-2.11074
0
-6.83392
0
-9.15147
-3.34953
-5.17237
0
-1.06716
-0.650421
0
0
0
-6.26231
-0.69778
-4.52185
0
-0.508681
-3.96051
0
0
-4.93446
0
-2.20936
-1.87774
0
-4.31407
-4.49682
-2.74551
-3.01407
-1.38099
-6.89276
-4.63801
0
-3.20644
-7.54891
-0.308071
-4.20253
-1.28046
-0.962043
0
-3.30804
-4.68224
-1.37941
-1.62436
-4.26305
-0.978909
-3.23977
-0.036783
-3.09719
-0.294043
-2.12454
-2.61327
-2.66407
0
-0.198342
-4.69928
-1.18194
-4.10371
-1.45896
-3.84413
-4.35697
0
-4.88929
0
0
-5.14186
-3.04527
-1.30789
-2.86147
-0.453134
-6.26139
-0.447277
-5.8777
0
0
-8.26224
-1.37767
-1.68044
0
-4.38008
-1.31889
-7.23719
0
0
-7.52723
0
-0.0188208
-2.0308
-0.365601
-2.77524
-0.0218257
-3.31827
-1.60478
-5.10901
-1.03854
-4.99305
-1.10594
-8.54322
-1.12101
-5.33381
-0.346224
-0.337588
-2.75854
-3.69431
-2.05947
-1.72188
-0.099482
-0.561388
-0.351359
-2.67538
-4.4282
-3.11253
-0.0426853
-3.10916
0
-0.162132
-1.46229
-6.71658
-2.89382
-1.33014
-5.45501
-1.08016
-0.789452
-2.11355
-5.08786
-1.96118
0
0
-0.638258
0
-2.83527
-0.447172
-2.45061
-2.13974
-1.98105
-5.70198
-4.20804
-13.9117
-2.2981
-7.85485
-1.3232
-0.190193
0
-3.44627
-1.84335
-0.317462
-4.17738
0
-1.2031
-3.83158
-1.31106
-1.36192
0
-7.44052
0
-3.38902
-1.2841
-0.535024
-0.285356
-0.171916
-0.787118
-4.00735
-0.292346
0
-0.972024
0
-0.6668
-3.40109
-3.39821
-0.293349
-1.63316
-0.687025
0
-6.30642
-1.795
0
0
-5.70201
-6.9284
-6.32334
-1.91497
-2.50278
-2.5872
0
-3.84554
0
0
0
-1.67494
0
0
-9.28725
0
-9.46374
0
0
-6.71187
-2.53908
-3.2634
-0.0401978
-0.881851
-6.0762
-0.866445
-3.6809
0
-3.33195
-1.07645
-3.53762
0
0
0
-0.719425
0
-3.24472
-5.18425
-3.74072
-3.02862
-4.06009
0
-2.99014
-1.23938
-1.18523
0
-2.80009
-1.43967
-4.4711
-2.81875
-5.31371
-0.399448
-1.29662
-0.208651
-0.945721
0
-4.36475
-1.66689
-0.664524
0
-1.87253
-0.80931
-1.46696
-0.929201
-8.13668
-1.49706
-0.71116
-6.2852
-0.676141
-1.06739
-1.37659
-5.26385
-0.262978
-0.180068
-0.736203
-1.87427
-3.32459
-2.31105
-3.60871
-0.358493
-5.02883
0
-5.1072
-1.04042
-1.18962
-2.20793
-1.26373
-3.39894
-0.943021
-2.2944
-4.12649
0
0
-0.165733
-0.456336
-0.838888
-6.15375
-1.00515
0
0
-6.24524
-6.13843
-4.98039
0
0
-4.67668
-0.613434
-3.34431
-1.94861
0
-2.15353
-2.12428
-0.733218
-3.80136
-1.11161
-4.19274
-3.82969
-2.8667
-4.43534
-0.310426
-4.57719
-0.15574
-0.00986809
-0.392023
-0.207023
-1.97948
-2.14985
-3.25947
-1.26578
-2.99968
-2.7727
0
0
-5.50286
0
-8.9355
-0.594037
-0.378637
-7.21175
-0.919952
-6.56329
-0.749472
-4.15486
-8.18192
-6.16243
-4.31864
-2.61442
0
0
-3.92318
-5.61804
-1.07223
-2.85397
-0.818229
-2.26038
-0.253217
0
-3.75799
-0.794527
-9.51394
-1.68387
-3.87837
0
-7.85069
-0.468306
-3.0361
-3.13021
-1.8187
-5.4293
0
-4.64811
0
-2.77689
-1.93989
-5.31745
-0.262439
-2.51678
-4.07335
0
-9.09782
-2.79288
0
0
-0.76024
0
-7.94854
-0.673335
-1.86785
0
-11.5891
0
-5.58801
0
-3.61813
0
-1.42904
-0.0910036
0
-2.09811
0
-1.42494
0
0
-2.01709
-1.51635
-6.91561
0
-3.38194
0
-0.223658
-1.71066
-3.26116
-0.113965
-3.92832
-0.252743
-2.82972
-2.03213
0
-0.759585
0
-0.118546
-2.33357
-2.77223
-1.77903
0
-2.18459
0
-2.05344
0
-0.481392
0
-2.10708
0
-2.75449
-3.18756
-6.42735
-1.08242
-5.04767
-0.188426
-1.89828
0
0
-5.39975
-0.396355
-8.0716
0
0
-1.14407
-3.28837
0
-9.09905
-1.22931
0
0
-1.81675
-2.63483
0
-1.03347
0
0
-1.71181
-6.46057
-2.327
-1.26014
-5.99279
-0.303929
-1.26444
-3.93438
-0.159684
-2.96457
-0.502434
-0.85018
-0.733582
-0.263822
0
-2.52339
-3.65167
-5.62561
-2.3733
-2.35122
-2.80369
0
-1.90622
0
-0.937889
-3.15884
0
-0.52947
-6.95601
-4.85724
-2.12771
-2.95953
-7.42838
-3.75019
-0.461915
-5.77052
-1.259
-4.75887
0
-0.891407
-7.05971
-1.33835
0
-3.02049
-1.34565
-3.64529
-0.300357
0
-3.42295