<?xml version="1.0"?>
<VTKFile type="RectilinearGrid">
<RectilinearGrid WholeExtent="0 32 0 32 0 32" Origin="0 0 0" Spacing="1 1 1">
<Piece Extent="0 32 0 32 0 32">
<PointData>
</PointData>
<Coordinates>
<DataArray type="Float32" format="ascii">
0 0.524874 1.04975 1.57462 2.0995 2.62437 3.14924 3.67412 4.19899 4.72386 5.24874 5.77361 6.29849 6.82336 7.34823 7.87311 8.39798 8.92285 9.44773 9.9726 10.4975 11.0224 11.5472 12.0721 12.597 13.1218 13.6467 14.1716 14.6965 15.2213 15.7462 16.2711 16.796 
</DataArray>
<DataArray type="Float32" format="ascii">
-5.03879 -3.62163 -2.20447 -0.787311 0.629849 2.04701 3.46417 4.88133 6.29849 7.71565 9.1328 10.55 11.9671 13.3843 14.8014 16.2186 17.6358 19.0529 20.4701 21.8872 23.3044 24.7216 26.1387 27.5559 28.973 30.3902 31.8074 33.2245 34.6417 36.0588 37.476 38.8931 40.3103 
</DataArray>
<DataArray type="Float32" format="ascii">
0 0.524874 1.04975 1.57462 2.0995 2.62437 3.14924 3.67412 4.19899 4.72386 5.24874 5.77361 6.29849 6.82336 7.34823 7.87311 8.39798 8.92285 9.44773 9.9726 10.4975 11.0224 11.5472 12.0721 12.597 13.1218 13.6467 14.1716 14.6965 15.2213 15.7462 16.2711 16.796 
</DataArray>
</Coordinates>
<CellData>
<DataArray type="Float32" Name="Scalar" format="ascii">
0
0
0
0
0
0
0
0
0
0
0
0
0
0
0
0
0
0
0
0
0
0
0
0
0
0
0
0
0
0
0
0
0
0
0
0
0
0
0
0
0
0
0
0
0
0
0
0
0
0
0
0
0
0
0
0
0
0
0
0
0
0
0
0
-0.115482
-1.32104
-0.16928
-0.718563
-0.446347
0
-1.61176
-0.184054
0.0698638
0.0892391
-0.174698
-0.52222
-0.678074
0
-0.570347
-0.387953
0.163641
-0.255209
-0.0699268
-1.35548
-1.72074
0
-0.30196
-0.124142
0.00542707
-0.353292
0
0.153884
-0.273144
0
0.18857
-0.46225
0.0320785
-0.13198
0
-0.942975
-0.427326
0
-0.50103
-0.0037446
-0.0520256
-1.13447
0
-1.25614
-3.19294
0
-3.11568
-1.3195
-1.66102
0
0.00532875
-0.780338
-0.427908
0
-1.7441
-0.697691
-1.01036
-1.53464
0
0
-1.65436
0
-0.439395
-1.29905
0
-4.22224
-1.91466
0
-0.851166
0
-5.61087
-1.98454
-4.74774
-6.30784
-4.72558
-4.95377
-4.45563
0
-1.41133
-4.66069
-1.70798
-1.40097
0
-4.01895
-1.87416
0
-3.07064
-0.70232
-2.84415
-6.72531
0
-2.51124
-5.48486
-0.462286
-3.65162
-1.05317
-0.338107
-3.93737
-2.00155
-4.07806
0
-0.133413
-3.20361
-2.83182
-4.76492
0
-1.15213
0
-0.540649
0
-5.66333
0
-1.9842
-0.762254
-1.5616
-3.09883
-3.92014
0
-0.11946
-0.430499
-3.0198
-5.45025
0
-3.78754
-2.35436
-4.32474
-0.472773
-10.4154
-5.71167
-4.02062
-1.11684
-1.54885
-6.90002
-1.9388
-6.31392
0
-7.88465
0
0
0
-2.75673
0
0
-0.79873
-3.25933
-4.04085
-4.16567
-2.1288
-1.62107
-4.35292
-2.18976
-0.757028
0
0
-3.07901
-1.13371
-3.86474
-4.34289
-1.68691
0
-0.475803
-2.92278
-3.06125
0
-0.258859
-0.973416
0
-5.19734
0
0
0
-6.92272
-0.11655
-7.35792
-4.6221
-2.38578
-0.200376
-0.399357
-0.0883249
-0.569392
0
-8.17009
-1.73615
-7.40653
-8.06755
-1.86682
0
0
0
-2.20036
-1.55288
0
-3.24532
-0.941931
0
-5.10153
0
-3.35848
0
0
0
0
0
-3.70814
0
-2.0262
0
-7.05766
-0.356969
-0.985883
0
-6.01314
-3.20788
-0.779695
-2.31808
0
-3.14058
-1.41419
-0.410081
0
0
-1.1274
0
-1.42593
-0.947963
-1.41547
-1.16678
0
-3.98811
-1.81504
-6.2573
-0.216917
-4.13949
-0.836615
0
-5.6883
-2.84431
-1.74195
0
-1.74384
0
-5.20624
-1.27963
-4.49056
-7.31283
-1.88383
-1.90238
-0.661266
-0.38426
-2.85972
-3.89036
-3.22368
-3.86753
-3.22084
0
-1.58111
0
-3.197
-4.56993
0
-2.50237
-0.221142
-6.95973
0
-1.86709
-9.29992
-9.31965
-4.59367
0
-10.882
0
0
0
-0.321304
-3.41329
0
-4.20901
-0.691781
-1.94154
-0.540193
-2.49348
-3.50585
0
-2.1962
-4.34774
0
-3.54998
-1.0919
-1.24596
0
0
-6.3651
0
-5.56065
0
-1.77597
0
-1.19914
-0.937303
-0.0416722
-1.55925
0
0
-1.48882
-6.77407
-4.38549
-3.57801
-4.62373
0
-4.85439
0
0
0
-5.31252
-0.70939
-5.14118
-0.342258
-0.331913
-6.35644
0
0
-13.1179
0
-0.88693
0
0
-1.51787
-1.08663
-0.840459
-1.02073
-3.00275
0
-4.56044
-1.32431
-6.25497
-0.817808
-0.976628
0
-1.43767
-2.43341
-1.20967
-0.78636
0
-1.04757
-5.71315
0
-2.73812
-1.30303
-3.26782
-1.99535
-1.39222
-3.07244
-1.3767
-1.80561
-1.36134
0
-0.202389
-4.45412
-2.58259
-0.886776
0
-3.05129
0
-4.69195
-1.62808
-4.875
0
-0.915322
-3.76435
0
-3.87312
0
-0.250815
-2.27685
-0.879778
-1.56307
0
-2.48645
0
-4.17458
-0.831724
-4.39715
-4.87645
-1.00658
-0.242272
-1.56542
-1.11945
0
-4.79572
0
-1.74931
-0.222769
-2.18385
-0.568563
-1.74409
-3.37967
-6.48351
-1.17072
-1.62125
-2.95338
0
0
0
-1.6953
0
-4.57807
-1.47306
0
-3.60137
-5.60573
-2.77373
0
-4.9582
-0.987857
0
-1.07641
-0.515003
-10.2824
0
0
-3.10826
-2.53704
-0.547674
-1.03356
-4.15059
0
0
-4.27072
-2.3298
-4.82731
-3.06483
0
-2.08417
-5.84405
-0.0505923
-6.10322
0
-5.64315
0
0
-4.81238
-1.54071
-2.28775
0
-0.966685
-0.234649
-0.849396
-4.14616
-0.771971
-1.99944
0
-0.615252
-2.49575
-0.997212
-7.9384
-0.790121
-0.257921
0
0
0
-3.4097
-0.85993
-5.75795
-7.31373
-2.51811
-4.121
-7.62244
0
-8.34553
0
-5.39571
0
0
0
-5.91755
-0.308558
-4.82753
-1.60631
0
-6.7913
-1.92876
0
-3.23
0
-2.44752
0
-0.809616
-0.346985
-2.14443
-1.2716
-4.16754
0
-4.66765
0
0
0
-1.61767
-0.137976
-7.51355
0
-2.32026
-0.489837
-4.72612
0
0
-1.18418
0
-2.30546
0
-1.48535
0
-3.27822
-0.188407
-5.02633
-2.97647
-1.37565
-3.38898
0
0
-1.44574
0
-2.60993
-0.949745
-3.58231
-1.28056
-4.24126
-7.28644
-1.24446
-0.901872
-3.54284
-2.02125
-0.0263372
-1.04833
-4.20262
-1.8005
-4.51658
0
-1.59335
-1.7196
0
-1.84626
-1.17916
-0.50168
-4.38358
-4.41132
0
0
0
-3.06857
-0.575064
-0.847536
-7.6533
-0.880364
-0.159301
-1.70281
-2.11705
0
0
-3.81998
-1.63892
-1.37533
-3.9748
0
-5.03586
0
0
0
-6.64764
0
-4.57734
-0.54318
0
-2.12382
-1.05209
-0.0778074
-1.02888
0
-2.69913
-2.07962
-2.15339
-0.970955
-0.0746787
-0.881877
-0.802195
-1.26383
-4.03715
0
-2.42316
-2.03228
-1.7362
-3.34761
0
-0.0128455
-1.47773
-3.77443
-4.82953
0
-0.227616
0
-1.12042
-3.44675
-1.93463
-7.6947
0
-4.68285
0
-2.9805
0
-3.51867
-2.28381
-0.905457
-3.64245
-2.96595
-4.95423
0
-5.06549
-2.16359
0
-2.11214
0
-3.21541
0
-1.41989
-5.82535
0
-6.72053
-0.59961
-2.52136
-1.72914
0
-5.88942
0
-3.45698
-4.06468
-0.862412
-5.98608
-1.70185
-2.99562
-1.52771
-0.102605
-0.268232
-1.90509
-2.73801
-3.54324
-0.320217
-3.16421
0
-1.80883
-4.22239
0
-2.91083
-0.806314
-0.881296
-4.02153
-2.68976
-0.260698
-1.69087
0
-1.59425
-0.375738
-3.85505
-0.781966
-7.81978
0
-1.9095
-1.35337
-0.602862
-1.34984
-4.52904
-6.44003
-0.815259
-9.05373
-4.23905
-2.42514
0
-2.49218
-0.399688
-3.0794
-3.23323
-3.20669
-5.4108
-0.844093
-7.56906
0
0
-1.01952
-0.610482
-1.06616
-5.56309
0
0
-1.78516
-1.66643
-2.63948
0
-6.99469
-0.146633
0
-0.174328
0
0
-2.20107
-1.82648
-0.0993474
-4.63673
-1.78664
-0.0987864
-6.41872
0
-9.04125
-7.65134
-7.50885
0
-8.39834
-3.27249
-2.25143
-4.0174
-2.62028
0
-9.05576
0
0
-2.18013
-5.57932
0
-0.811866
-2.82423
-1.76121
0
-1.62459
0
-0.0922793
0
-1.74749
-2.61153
-0.774389
-0.192033
-4.27034
0
0
-5.22578
-1.29549
-0.693362
-2.44748
-2.49024
-1.27197
-0.082399
-4.69563
-3.2444
-5.25378
0
-2.77732
-3.64167
-4.08174
-1.86406
-5.72109
0
-3.41177
-1.24618
0
-0.592259
-0.284306
-4.54816
-1.62315
-3.81634
-0.572212
0
-8.63233
-1.6335
-0.883923
-3.67661
0
-2.32678
0
-2.50771
-2.37063
0
-0.901762
-0.388337
-2.94364
-0.506615
-3.41463
-1.8169
-0.316718
-8.7041
-3.28356
-1.7491
-0.291901
-6.96506
-3.30995
-2.11304
-1.06099
0
0
-1.87475
0
-4.47709
-4.52189
-2.78781
0
-4.8808
0
-4.29601
-0.985219
0
0
0
-3.39223
0
-4.97284
-1.16721
0
-1.02231
0
-4.28537
-3.81112
-4.95552
-0.847126
-1.30948
-0.981272
-1.69251
-3.47718
0
-7.32234
-2.50839
-2.3887
-0.0949006
-1.25477
-3.48269
-0.571247
-5.87365
-3.21416
-6.06022
-2.5705
0
0
-3.77066
0
-1.03429
0
-4.49501
-3.92699
0
0
-5.9491
0
-6.84825
0
-0.739964
-4.02185
-3.98751
-0.421841
-1.67882
-3.76691
-4.94258
-1.47606
-1.12737
-2.71268
-1.58603
-0.429196
-2.23977
0
-2.04062
0
-4.18246
0
-4.59938
0
-0.374227
-1.50673
-1.25057
-0.805424
-3.69805
-1.60263
-4.82986
-0.573034
-2.0882
-5.2221
-2.03483
0
-2.90626
-3.45657
-6.35145
-1.76463
0
-0.564955
-1.40971
-1.66897
-5.2143
0
-0.71343
-7.78266
-0.622817
-6.87811
-2.98828
0
0
-2.16294
-5.94077
-3.54749
-5.59222
-6.6903
-3.19729
-5.8251
-0.549347
0
-5.17599
-1.6156
0
0
-0.67147
0
0
-4.38471
0
-6.85707
-2.3417
-0.148531
-3.43044
-0.817878
-3.55973
-0.468117
-3.40433
-4.70561
-5.36805
-0.932934
-4.45474
-0.47667
-0.773641
-8.86113
-2.1953
-0.0911063
-3.76716
-3.19863
-0.105198
-0.470351
-2.06021
-2.20619
0
-3.64
-0.540603
-0.241915
-6.87036
-8.01635
-5.18912
-5.69794
0
0
-12.7068
0
-6.64397
0
-3.89462
-1.82992
-1.50444
-1.60185
-0.0660377
-1.07096
-6.77934
-5.4346
0
0
0
0
0
0
0
0
0
0
0
0
0
0
0
0
0
0
0
0
0
0
0
0
0
0
0
0
0
0
0
0
0
0
0
0
0
0
0
0
0
0
0
0
0
0
0
0
0
0
0
0
0
0
0
0
0
0
0
0
0
0
0
0
-0.686978
-1.80734
0
-1.84049
-1.65735
0
-0.967475
-0.825846
-0.608275
-1.90973
-0.0502853
-1.36582
-1.3002
-0.173053
-1.17962
-0.769559
-0.372414
-2.34656
0
-1.45907
-1.28705
0
-1.0898
-1.05767
-0.102266
-0.547171
-0.0051863
-1.98061
-1.34588
-0.278855
-2.05229
-1.15141
0
-1.18937
0
-0.768501
-2.99413
0
-1.28249
-3.9481
-1.57715
-2.02766
0
-2.46395
-1.06702
0
-2.38999
-0.110544
-1.57124
-4.4752
-0.158732
-1.95849
-2.61431
0
-2.71389
-2.07615
-2.00276
-2.80486
0
-2.18337
-1.54816
0
-4.30659
0
-3.14572
0
-2.34937
-1.57599
-6.93623
-3.94631
-8.05094
-0.617542
0
-2.90093
-1.39184
0
-5.50903
-0.168562
-3.46018
-2.07138
-2.33936
-1.84011
-6.40486
-3.25345
-3.06123
-5.86217
-5.87413
-7.72561
-0.634191
-4.83854
-3.26766
-3.80588
-4.16642
-0.0845944
-3.45301
-3.28019
0
-9.32241
0
0
0
-1.09259
-0.195327
-0.614191
0
-3.16691
-3.0645
0
-3.05452
-0.547309
-0.346038
-0.120805
-5.7899
0
0
-6.39651
-1.89726
0
-5.3893
0
-0.470081
-7.0588
-1.10056
-2.08298
-3.18971
-1.88819
-1.63064
0
0
0
-2.02621
-0.625472
-3.20229
0
0
0
-3.52917
0
-3.63537
-6.74399
-0.566657
-1.44761
-3.59796
-5.23133
-4.51999
-7.58226
-3.30059
-0.0826357
-3.47573
-0.79551
-8.61972
-6.05945
-0.778576
-1.85208
-1.1476
0
-0.57148
-0.847265
0
-8.10402
-1.44615
0
0
0
-4.23188
-0.834041
-11.1616
-4.91713
-2.15027
-8.15861
-6.54941
0
0
-7.96658
0
0
-0.822519
-5.24668
-0.0686036
-7.29969
-1.87355
-2.72944
0
-3.81321
-1.21577
-0.745007
-7.78815
0
-7.29777
0
-4.06208
-8.88292
-1.59273
-9.20543
-2.40515
0
-1.28553
-2.2499
-1.4104
-2.4465
-0.894973
-9.2743
-0.452498
-7.93085
-1.69885
-0.339461
-4.26884
0
-4.41154
-0.122826
-3.18678
-1.35707
-0.90169
0
-0.538352
0
-2.70668
-1.90864
-3.64258
-0.443822
-0.522485
-3.8835
-0.154746
-6.00982
0
0
-1.53799
-9.83415
-0.379703
-0.709912
0
-0.924098
-1.49168
-4.42278
-2.52055
-1.31301
-1.51377
-0.940854
-2.14079
-0.55565
-0.221155
-4.76769
-1.96303
-2.66819
0
0
-9.40423
0
-9.72869
-0.75645
-1.12767
-0.40133
0
-3.18111
-4.33411
0
-5.75699
-7.14789
0
-6.99064
-1.42348
-2.81292
0
-2.72261
-6.43874
0
0
-2.53003
-1.72793
-0.105621
0
-13.1251
0
-1.19941
0
-3.41125
0
0
-0.688648
-1.70563
-0.393936
0
-4.92045
0
0
-2.30341
-1.01192
-4.57858
-7.23048
0
-7.30681
-2.34257
-0.947928
-0.0248102
-1.52652
-4.00244
0
-3.0479
-0.927313
-6.30275
0
0
-4.40772
-0.184886
-0.66797
-2.56282
-0.724072
-0.294336
0
-5.06688
0
-10.1685
0
-1.41578
-2.12072
-3.71991
-9.95301
-2.04432
-2.07287
0
-3.64229
-6.27949
-0.400319
-8.48989
-4.35327
-7.76133
-4.43122
-0.703335
-2.97189
-1.5929
-7.55547
-4.29334
0
-0.847889
0
-6.83749
0
-8.5002
-0.144678
-6.79842
-3.82951
-2.34434
-1.87259
-0.560553
-3.7899
0
-3.74538
0
0
-3.59033
0
-1.11126
-3.76362
-1.92799
0
-6.63419
-2.53124
-0.0454608
-0.250727
-0.0555176
0
-2.71736
-2.28115
-1.54994
-3.72746
-0.0769252
-2.09996
0
0
-0.708859
-3.01945
0
-2.65365
0
-3.9542
-3.80008
-1.95871
0
-2.62311
-0.94346
0
-0.55317
0
-3.87025
-2.96694
-1.59203
-1.12584
-1.63522
-0.432871
0
-7.46448
-0.224256
-0.134222
-2.14648
-0.397216
-4.048
-1.57909
-1.77747
-4.95679
-0.131197
0
-2.7061
-4.74893
-2.27674
-4.59398
-1.44953
0
-6.2832
0
-2.23667
-0.183396
-1.76775
-3.3118
-0.299928
-3.32867
0
-0.2389
0
-2.08011
-6.09431
-3.97895
0
-7.50592
-3.70179
-1.90344
-4.41757
-1.99853
0
0
-0.0283534
-2.46224
-4.94381
-1.01724
-0.0376809
0
-1.98017
-1.31413
-0.378733
-1.4139
-2.96894
-1.03612
0
-3.75591
-0.341231
-3.4648
-3.67109
-1.99584
-2.12578
-1.35632
-0.101619
-4.11614
-2.07117
-3.4164
-0.0439766
-1.80444
-3.0193
-5.04235
-7.65618
-2.17664
-3.3007
-1.51829
-1.22515
-0.189746
0
-0.249496
-3.17351
-0.83359
-0.135265
-4.70196
0
-5.2887
0
-8.69764
0
-2.90397
-3.63073
-4.0595
0
-6.44514
0
-0.337286
-1.74544
-5.86749
0
-1.41512
0
-4.50099
0
-5.41409
0
-3.17994
-3.14665
-1.32799
-0.693395
-5.17687
-0.332178
-5.71151
-0.238517
-2.38261
-3.95251
-1.98594
-3.14826
0
-6.36079
-3.11822
-6.92648
-0.542252
-1.38285
-4.86175
-1.61187
0
-7.65077
0
0
-3.23063
-0.719595
-8.29339
-0.410616
-5.17111
0
-2.57791
-2.59599
0
-0.794158
-4.6014
-3.37197
-2.42247
-1.83893
-3.33799
-1.30466
-2.43651
-1.7582
-0.17091
-2.92177
-3.57472
0
-0.237252
-2.94487
-6.03961
-2.99546
-2.71124
-1.60891
-6.04229
-1.87662
-4.02412
-2.96383
-4.69547
-2.2033
-2.74777
-1.03675
-4.73562
-2.03685
-1.20193
-2.41985
-7.24066
-2.72023
-1.23341
-2.61965
-1.69906
-4.42742
0
-1.25791
0
-1.53078
-5.01317
-4.33921
-1.67697
0
-0.976221
0
-3.08234
0
-1.83339
0
-6.66289
-0.727211
-0.0538947
-0.698342
-0.0112401
0
-0.282608
-5.40472
-0.621239
-2.20906
-0.17118
-0.335554
0
-1.26703
0
-0.210297
-2.37633
-0.423232
-3.09562
0
0
0
-4.16467
-0.0350068
-1.32513
-4.96591
-4.21415
-0.68501
-1.04536
0
-7.31181
0
-6.05101
-1.61262
-5.39358
-4.06131
-1.89349
-1.27503
-2.03498
-5.15648
-4.2258
-6.48575
0
-7.09582
-1.92832
-4.61612
-0.815218
-3.05631
0
0
-5.46368
-5.45489
-1.00788
0
-4.35712
-0.989431
0
-0.780844
-2.67554
-2.34068
-7.32377
-1.15104
-0.014153
-0.017254
-1.62954
-0.912554
-3.00692
0
-1.33039
-5.88502
-5.26304
-1.68418
-5.00222
-2.20151
0
-4.48293
0
-1.89106
-1.6151
0
-3.13685
-7.94174
-5.18287
0
-2.01318
0
-2.82613
-0.151669
-1.11477
-2.44434
-1.21663
0
-4.92314
0
0
-1.32744
-1.78752
0
0
-1.16749
-2.79031
-0.303752
-1.52617
0
-0.555144
0
-0.217467
0
-6.31067
-1.74723
-0.294693
-1.89067
0
0
0
-1.89127
-6.26209
-6.1908
-0.566676
-10.0777
0
-0.0680515
-0.726401
-7.69595
-1.3642
-6.57884
0
-0.590231
-1.17914
-0.780894
0
-3.77114
-5.31656
-0.207339
-6.26373
-1.51207
0
0
-2.74069
0
0
-0.202116
-1.80143
0
-0.0292551
-2.14892
-2.90126
-1.84244
-0.721954
0
-1.15412
-2.29277
-0.176033
-3.26937
-2.31849
-6.23153
0
-3.97696
0
-2.67913
-2.7313
-1.7876
-2.57598
-2.56867
0
-2.10962
-0.321792
0
-5.81686
-1.70585
-3.06064
-0.421395
-3.80535
-0.87297
-2.30557
-0.97402
-4.62999
-1.60262
-2.34338
-0.453874
-0.644914
-1.03147
-0.79894
-0.0763006
-3.41893
-1.61605
-10.2575
-1.25473
-8.55664
0
-12.9227
0
-2.60482
-4.76139
-1.59917
-2.33319
0
-0.0980297
-6.323
-3.08937
-3.01016
-2.39566
-0.285537
-6.05939
-1.34045
0
-2.07983
-3.921
0
-3.12227
0
-0.785666
-6.61551
-1.92256
-0.107774
-1.63386
-2.5607
-1.00771
-2.63858
-2.60248
0
-2.84035
-0.189805
-3.71653
0
0
0
-5.15162
-0.52275
-5.58506
0
-7.1492
-1.58343
-9.88427
-0.689436
-2.36574
0
-11.1289
0
-6.27614
0
-0.902762
-1.00022
0
-2.65536
-0.475208
-0.431783
-3.32355
-1.3408
0
0
-8.66815
-1.07654
-8.16782
-0.725357
-1.65728
-0.906559
-1.13244
-0.463304
-1.40447
-6.60822
-2.57849
-8.74236
0
-3.31836
0
0
0
-9.41712
-1.17301
-7.76397
0
0
-1.55282
-5.30516
0
-1.49674
-6.32063
-4.24998
-1.09834
-0.190155
-3.26616
-1.00151
-0.69376
-2.10342
-0.643084
0
0
-6.07803
0
-7.26483
-1.35949
-1.76912
-1.81189
-4.11328
0
-3.79742
0
-0.287479
-2.68462
0
0
-1.71456
0
0
0
-0.0137733
-0.431635
-0.224423
-1.60339
-1.85391
-0.624023
-5.03508
0
-3.35014
0
-0.79811
-0.73954
-1.29313
-1.91036
-4.08746
-0.757907
-2.24718
-0.711241
-0.971272
-2.69231
-3.97971
-1.99842
-1.47539
-0.512282
-2.07657
-5.30464
-0.333182
0
-4.75385
-0.739049
-5.43258
-0.119772
-4.47449
-1.96215
-4.32308
-1.5789
0
-6.39846
-4.50621
-2.44658
-2.27037
-2.74753
-3.83582
-1.35205
-0.0603803
-3.07512
0
-3.35094
-0.655609
0
-2.26794
-5.78767
-0.155136
-1.67734
-4.12799
-2.55374
-0.592111
-0.470973
-2.45576
-3.12638
-3.3925
-2.73556
-1.21247
0
-1.13497
-1.66815
-5.19556
-4.93194
-2.50541
-1.5697
-3.12827
0
-6.91508
0
-6.37636
0
-5.77598
-5.66886
-0.711078
-3.53202
0
0
0
0
0
0
0
0
0
0
0
0
0
0
0
0
0
0
0
0
0
0
0
0
0
0
0
0
0
0
0
0
0
0
0
0
0
0
0
0
0
0
0
0
0
0
0
0
0
0
0
0
0
0
0
0
0
0
0
0
0
0
0
0
0
-0.170982
0
-0.47327
0
0
0
0
0
0
0
-0.114047
0
0
0
0
0
-0.405229
0
0
-0.10274
0
0
0
0
-0.454404
0
0
-0.0947963
0
-0.02857
0
0
-0.10998
0
0
0
0
0
0
0
-1.20945
0
0
-0.0707702
0
0
0
0
0
0
-0.0555946
-0.151561
0
-0.336956
0
0
0
0
0
0
0
0
0
-4.16972
-6.52505
-4.04373
-3.84609
0
0
-1.05759
-2.36479
-5.40952
-2.00917
0
-12.5376
-0.246882
-3.04512
0
0
-3.79014
-1.35001
0
-2.98465
0
0
-4.97907
-1.43181
-1.77595
-1.78942
0
-0.406365
-1.21776
-2.38315
0
0
0
-2.80234
-0.298038
-8.70439
0
-11.4155
0
-7.82483
-8.41279
-0.791364
-1.2445
0
-0.9521
-1.96099
-1.63316
-2.93704
0
-2.07987
0
-0.546301
-8.40979
-4.9655
-0.554685
-1.98598
-6.39906
-0.571696
-0.813984
-0.0260974
-0.692805
-0.54907
-4.01406
-5.99462
-2.47637
-5.5582
-1.13946
-4.16646
-6.07448
-7.00872
0
-8.4579
0
-3.81145
0
-3.37335
0
-1.87299
-3.49102
0
-2.93284
-0.970348
-2.18442
-10.7399
-1.02225
-7.11313
-0.108012
0
0
-2.51904
0
-4.36674
-5.1889
-2.83279
-4.67699
0
-6.89313
-0.610323
-3.76399
-4.49245
-4.95681
0
-0.597848
0
-2.38864
-0.105531
-0.0850835
-0.373417
-4.27808
-2.56551
-8.22993
-5.00649
-2.77478
-2.5118
-2.16295
0
0
0
-7.14003
-0.310368
-6.43832
-1.14342
-4.22744
-0.159389
-1.78313
-5.17597
0
0
-4.16545
0
-3.00133
-5.18935
-3.29719
-0.807302
0
-0.408971
0
0
-0.527761
-0.376815
-4.21867
-3.08291
0
-0.715303
-2.74657
-0.931737
-4.01402
-5.21583
-7.68843
-4.0124
-3.05936
-5.45197
-3.37649
-4.91132
-1.33626
-6.90227
-3.92285
-1.03142
-3.98987
0
-0.330872
-5.4491
0
0
-6.01703
-5.1824
-4.1096
-1.27347
-6.36163
-1.91382
0
-5.58738
0
0
-1.58394
-1.50868
-4.01736
-4.62848
-2.91629
-3.66127
-0.636783
-5.39473
0
0
-0.501536
-0.0527568
-4.66473
-5.19039
-2.2242
-5.18492
-0.564215
-2.92874
-0.154433
0
-6.18544
-2.41873
-6.07558
-2.39152
-2.33891
-2.68806
-0.993107
-4.4148
-0.799975
-8.31263
-0.72717
-3.53909
-4.31081
0
-0.507576
-1.29406
-0.216308
-0.866862
0
-3.05449
-2.68216
-3.35491
-2.46325
-7.51263
-0.460734
-3.22
0
-3.31732
-0.517739
-4.42009
-0.0879486
-1.02642
0
0
0
-4.81222
-3.4371
-2.8906
0
-5.59602
0
0
-2.94233
-11.1283
0
0
-3.66219
-0.0979618
-5.34645
0
0
-0.135142
-6.76237
0
0
-4.16585
0
-5.22656
-2.18957
0
-2.58249
-1.17276
0
-1.09802
-2.80704
0
-2.46765
0
-2.46243
-1.00813
-8.2171
-2.7424
-0.171055
-5.21649
-1.44295
-4.15694
0
-2.50148
-1.39176
0
-0.26781
0
-0.357548
-0.389631
-5.38864
-1.46883
-0.684057
-2.88664
0
-3.49718
-2.4501
-0.071086
-2.5473
-0.646112
-1.43191
-8.08394
-1.64919
0
-4.502
-0.74995
-1.64572
-3.69248
-1.11519
-7.71938
-0.60362
0
-2.55959
0
-3.10091
0
-2.55197
-3.42468
-3.4619
0
0
0
-1.20472
0
0
-3.74659
-5.99798
-1.77062
-7.36251
-4.18015
-5.83758
0
-2.14487
0
-4.0808
-1.38301
-0.818953
0
-0.600348
-2.63679
-1.96329
-1.88377
-3.01714
0
-2.20972
-2.99762
-0.196802
0
-5.41292
0
0
-1.09082
0
-6.33557
-3.16191
-1.53835
-2.66236
-5.18638
-2.24797
-2.19954
0
-2.02891
-2.26378
-1.39511
-1.80631
-4.78729
-1.64611
0
-4.48692
-2.89224
-0.5164
0
-2.80097
-1.43464
0
-3.20277
-1.64237
-2.69619
-1.5749
-2.3767
-5.61266
0
-0.326587
-2.78285
-2.47495
0
-0.455499
0
-2.53822
-4.4661
-0.62829
-0.563929
-2.99049
-2.28047
-1.73773
-0.387703
-1.19087
-4.06655
-0.89683
-0.289673
-0.00892683
-0.692113
-0.746672
-0.947708
0
-1.2878
-0.139785
-3.52599
-2.91022
-1.99412
-0.185512
-1.81384
-2.34102
-3.22045
0
-1.01109
0
-0.19461
-4.49954
0
0
-2.65447
-3.11489
-1.10473
-0.992923
-3.72056
0
-2.99206
-3.90383
-1.44857
0
-4.69239
0
-1.19504
-1.63386
0
-0.0298528
0
-2.79526
0
-0.21316
0
0
0
0
-5.75144
0
-4.09339
-2.04647
-6.61698
-1.82551
-2.48022
-0.361837
0
0
-4.06377
0
-3.67351
-6.251
-1.73403
-0.96476
-2.34403
0
-3.44451
0
-0.555799
-0.143361
-2.13081
-0.847026
-0.667374
-6.69133
-0.967019
-2.04989
0
-1.8773
-3.8864
0
-2.16728
0
-0.0310526
-1.13062
0
-2.58971
-5.99798
-3.94718
-1.10671
0
0
-2.16971
-3.78499
-0.967154
-0.993549
-6.76972
0
0
-0.997274
-2.6423
0
-6.55472
0
-6.96842
-0.530963
-4.39078
0
0
-0.169771
-0.428372
-0.0437879
-1.05045
-4.28653
-4.23582
-0.242834
0
0
0
-3.71323
-0.273336
-1.1138
-0.9707
0
-5.01065
0
-7.36613
-0.256735
0
-2.11038
-2.11357
-2.62657
-1.84825
-2.74066
0
-2.40019
-0.696388
-0.109931
-2.85788
-0.193162
-4.17871
-3.74843
-1.70178
0
0
0
-3.00681
-2.87298
0
-1.53912
-5.23706
0
-2.80674
0
-4.73725
0
-1.89937
0
-0.477728
-3.2116
0
-1.64666
-6.28232
-2.63756
-4.13031
-0.400875
-4.66716
-1.17412
-8.31566
-0.232782
-2.86891
-2.85531
-2.14172
-4.82848
-1.45813
0
-3.41144
0
-6.63427
0
-5.58096
-0.409899
-2.52929
-4.54684
-2.32931
-0.881243
-2.80377
0
-4.41022
-0.576003
-2.49557
-1.0037
-1.39481
-0.0382847
-1.82767
0
-3.79278
-1.11293
0
0
-1.14171
-1.16584
-0.152528
-1.875
-1.33355
-8.07869
-2.06501
0
0
0
-4.27258
-1.80784
-3.27061
-5.18212
-1.50203
-2.8558
0
-0.574411
-2.43817
0
-3.2361
-0.469222
-1.12146
-0.302314
-0.881438
-3.33687
-1.96649
-1.85206
-1.75892
0
-6.36544
-2.65036
-1.87203
-1.22597
-0.0267079
-0.486107
-3.73427
-3.29589
-0.0458813
-3.34618
-1.04403
-4.0827
-1.07773
-8.59527
0
0
-4.01521
-2.47672
-4.54181
0
0
-1.76992
0
-6.24496
-1.90201
-3.62112
-4.06721
0
0
-0.338238
0
-1.81205
-2.75131
-3.34409
-2.43153
-4.6109
-2.28304
-2.97978
-2.00542
-2.14976
-1.7462
-2.14416
-0.255192
-1.73611
0
-3.73204
-0.51003
-2.72467
-3.84763
0
-3.92496
-0.92403
-0.127042
-6.51132
0
-6.53991
-1.99439
-2.05889
-1.85263
-1.72578
-3.16868
-4.99171
-0.151325
-4.7268
-2.66417
-3.29919
-1.83017
-2.60679
-2.17701
0
-0.121089
0
-1.12528
-2.02726
-0.93396
-1.71703
-0.279446
-1.25433
-2.74479
-0.683289
-3.76392
0
0
0
-2.54974
-1.78713
-0.527584
-2.26397
-3.82695
0
-4.44306
-2.55378
-3.69109
-3.43642
0
-8.90046
-0.123078
0
-3.17154
-2.4579
-3.48506
-6.41142
-2.00619
-3.70238
-0.850839
-2.25132
0
0
-2.75999
-5.33751
-3.7448
-2.17476
0
-2.82776
-0.302877
0
0
-0.899069
-0.753558
-4.36412
-1.48409
-4.03033
-1.13157
-1.43883
-0.182731
0
0
0
0
0
-7.39768
0
-5.98429
0
-5.75311
-1.38934
0
-3.94236
-1.58007
-5.17462
-5.5428
-0.745715
-6.61248
0
-3.70842
-5.55301
-3.40668
-1.75673
-0.967838
0
-3.11339
-2.04425
-4.76514
-0.982239
-2.22668
-2.61311
-4.66064
-0.448281
-1.48461
-4.38153
-4.16795
-5.86584
-2.03049
-6.94297
-0.147495
-3.29722
0
0
-7.10467
-2.19826
-2.0062
-0.364295
-5.54305
-1.24206
-1.37684
-2.32263
-0.427634
-2.40478
-0.947405
-0.131089
-0.866874
-7.04082
-3.46245
-5.47823
-1.41112
-1.13098
-1.05765
-1.36751
-0.566666
-0.763702
-0.681469
-0.270649
0
0
-1.0397
-3.63552
0
-1.19666
-0.305984
0
-4.60269
-3.70167
-1.57269
-4.12387
0
-0.604639
-0.364764
0
-0.836346
-5.11137
-0.363306
-3.02103
-4.66777
0
-3.94473
-0.935943
-2.29861
-7.13692
0
-1.95943
-0.978775
-2.05324
0
-2.65842
-0.133073
-5.86829
-0.500259
-0.556506
0
-5.33305
-0.379563
-1.67029
0
-3.13602
-0.543831
0
-3.00769
-5.47884
0
0
0
-0.125557
0
-0.386222
-0.512372
-0.896314
-3.49213
0
-7.9371
-1.92387
-3.16141
-4.71385
-0.21178
-2.5342
-4.20884
-2.91014
0
-8.07902
0
-0.534543
-3.10715
-0.351038
0
-5.30649
-6.61457
-5.89152
-2.74016
-4.89851
0
-0.288414
-3.4691
-6.58892
0
-6.71669
-2.17832
-4.79175
-3.66193
-0.021181
-1.42845
0
-0.402925
-3.46135
0
0
0
0
0
0
0
0
0
0
0
0
0
0
0
0
0
0
0
0
0
0
0
0
0
0
0
0
0
0
0
0
0
0
0
0
0
0
0
0
0
0
0
0
0
0
0
0
0
0
0
0
0
0
0
0
0
0
0
0
0
0
0
0
0.0471709
-1.3451
0
-1.82075
-0.744425
0
-1.41972
-1.29905
-1.08641
-0.786018
-0.209773
-1.87619
-0.893366
-0.123753
-0.928617
-0.692644
-0.51303
-1.43117
0
-1.37351
-1.27034
0
-1.63333
-0.970955
-0.268554
-0.680296
-0.0526113
-1.62294
-0.826096
0
-1.21122
-1.36793
-2.3051
-4.12866
0
-3.99814
-0.152389
0
-1.94587
-0.401621
-1.69024
-2.96298
0
-2.01138
-1.98366
0
-0.232298
-2.58455
-2.0664
-0.101578
0
-3.292
-2.0058
-1.80353
-2.75726
0
-0.121287
-4.31233
0.00983282
-0.774146
-2.88833
0
-4.45493
-2.21445
0
-1.89814
-1.27017
0
-6.342
-1.98133
-1.21711
-1.09512
-0.613816
0
-1.06037
-3.24888
-0.855841
-8.94694
-10.018
0
-3.61227
-4.14398
-4.79175
-4.76911
-2.13917
-1.43669
-2.18748
-2.20559
-3.35708
-1.96627
-4.52523
-5.78963
-1.92447
-1.48927
-4.55551
-3.0752
-0.170133
-4.48865
-1.87351
0
0
0
0
-2.36539
-0.773891
-0.506351
-0.352858
-3.49564
0
0
-2.34124
-0.461509
-6.14559
-4.66855
-4.63419
-3.40253
-1.72583
-2.49449
-0.363597
0
0
0
-3.48558
-0.253592
-4.02255
-4.4526
-1.18948
-7.45747
0
-0.627454
-2.44633
0
0
0
-2.86399
0
-1.54342
-1.07876
-1.5974
-0.948238
-3.5322
0
-5.57032
0
-3.12038
0
-4.67658
0
-0.102155
-1.87867
-2.19701
-6.7612
0
-4.72521
0
-0.950132
0
-0.792927
0
-5.26134
0
-3.24567
0
0
-2.37703
-1.39807
0
-6.31166
-1.08486
-2.01235
-2.78828
-0.497164
-0.997482
-2.58117
-0.524669
0
-6.57459
-0.730412
-6.43655
-1.2397
-0.91444
-3.37439
-0.305037
0
-0.845038
-0.653128
-4.34325
-1.14837
-0.200771
-3.92304
-1.04792
-4.39849
-6.33309
-0.203996
0
0
0
-6.33184
-1.14481
-2.29786
-3.73743
-2.89678
-4.18198
-6.31043
-0.488802
0
-5.32214
-2.12862
-0.265756
0
-0.282949
0
0
-4.83109
-0.913674
-3.28539
0
-4.47926
-0.670795
-0.0209146
-1.1215
-3.9703
-5.77484
0
-2.9481
0
-7.81246
-2.70111
0
0
-4.54253
-2.45879
-4.38826
-3.9281
-1.98514
-2.01379
-2.18692
-10.8823
-3.51344
-10.7909
-1.26187
-2.14124
-6.72807
-0.118252
0
0
-4.16204
-3.83514
-2.43579
-5.52392
0
0
0
0
-1.58047
-3.84981
-6.7431
0
-2.86281
0
-2.13025
0
0
0
-1.96427
0
0
-4.52487
0
0
0
-1.73971
-7.40274
-0.858341
-6.34675
0
-7.59546
0
0
-6.66099
-0.766374
-4.7081
-0.62249
-4.58813
0
-4.54614
-0.252805
-0.837861
-2.13207
-2.00507
0
-3.56125
-0.27655
-2.34464
-0.277399
-4.53479
0
0
-0.399967
-4.95203
0
-0.0506635
-6.97974
-1.94306
-0.894708
0
-1.41542
-1.19659
-8.85474
-0.0197147
0
-7.71664
-0.0493656
-0.676966
0
-2.9456
-8.27548
-3.78238
0
-0.552518
-5.78301
-0.0730662
-0.538356
-1.71904
-1.60993
-1.67736
-0.192703
-0.679602
0
-1.14622
-5.03835
0
-1.91122
-1.72387
-2.39792
-2.69105
-2.15789
-1.64228
-4.51449
-6.54936
-9.65151
-0.341809
0
-3.75873
-0.752758
-1.90804
0
0
-0.274481
-4.63281
-6.7341
0
-5.92029
0
-5.30278
-3.03165
-0.927476
-0.604293
-2.57075
0
-1.28616
-0.763304
-1.18615
-2.38696
-3.42115
-3.2348
-0.553621
-2.13784
-1.76795
0
0
-4.08849
0
-4.78077
-3.26081
-2.06134
-5.23445
0
-0.36772
-8.07061
-4.44879
0
0
-3.79889
-0.425088
-5.46325
0
-0.638025
-2.32016
0
-4.02768
-2.74626
-3.46984
-0.0441921
-1.35562
-1.26046
0
-2.13276
-4.02263
0
0
-0.832569
-1.75121
-7.07648
0
-2.35382
-1.08094
-5.58152
-4.18633
0
-0.809409
-5.09956
-0.0312064
-1.46366
-3.29247
-0.324221
-1.96265
-1.05003
0
-13.51
-1.16953
-2.14795
-3.56323
0
-2.98146
-0.668857
-7.6516
0
0
0
-0.209721
-1.4972
-0.896594
-5.23924
-1.38107
0
0
-2.58966
0
-5.51606
0
-6.01899
0
-2.30268
0
0
0
-4.75211
0
-5.35932
-1.03727
-1.7256
-1.65173
-2.60938
-4.14646
-6.05455
-5.7958
-3.56673
-2.89403
-6.95083
0
-6.42557
-1.36557
-1.9867
-0.914945
-0.3058
-1.74184
-2.63603
-0.653568
-3.66824
-0.300786
-3.08854
-0.349434
-1.90356
-0.118408
-4.05904
-1.189
-1.3028
0
-6.35753
0
-4.1069
-3.91975
0
-0.186534
-8.61334
0
-4.39703
0
0
-2.44048
0
-1.78289
-1.08668
-1.03172
-3.10462
0
0
-6.49089
-0.0592619
-4.347
-0.47913
0
-1.65746
-0.275753
-3.36392
0
-0.175226
-0.841387
-1.58893
0
0
-1.85128
-0.717468
-0.652835
-0.760657
-6.85694
-3.58828
-5.75401
-0.484255
-8.54309
0
-1.49927
0
-8.50495
-0.0367899
-4.31469
0
-6.24994
0
-6.19597
-2.15381
-2.42952
-3.20292
0
-2.89687
0
-2.3976
-9.91096
-1.02933
-5.9703
-3.03795
-1.99591
-7.76139
-0.988692
0
-11.1641
-0.0675802
-2.11787
0
-1.05232
-6.83318
0
-5.68784
-2.64365
-0.714039
0
-2.23659
0
-3.75973
-0.142633
-0.475788
0
-2.2115
-1.76912
-4.9013
0
-7.17503
-0.176229
-7.56366
-5.29915
-2.03807
-5.21846
-0.571941
-3.2088
-0.994269
-2.66741
-5.21803
-1.00192
-3.40006
0
-5.99664
-0.082107
-0.987561
-0.0667203
-0.334657
-1.83659
-3.62763
-2.02043
-1.82548
0
-2.04393
-5.09986
-1.35426
-0.234195
-0.232062
-3.82431
-4.7196
-0.788165
-1.03698
-3.26676
-0.428608
0
-1.23735
-3.61831
0
-0.339663
-1.78191
-2.92556
-1.78714
-3.15009
-0.0604466
-3.08373
-0.138289
-1.98402
-2.89676
-1.34234
-0.826819
-6.04717
-2.30214
-2.80341
0
-2.12022
-7.99451
-1.94024
-4.92095
0
-5.77565
0
-4.64715
-1.80099
-0.171326
-3.12261
-6.75362
-1.8238
-4.14871
0
-0.573588
-5.84091
-3.13768
0
-7.75698
0
-7.70341
-1.62005
-5.65335
-4.09009
0
-6.68239
0
-4.28429
-3.58235
0
0
0
-2.1772
-3.57708
-2.79585
-1.76664
-6.53939
-1.0897
-5.22336
-1.79519
-9.42707
-2.21211
-1.7374
-3.21634
-1.28112
0
-4.643
-3.28026
0
0
-4.2264
-0.907507
-1.49988
-1.20338
-7.49956
0
-9.68467
0
-7.43124
-3.58973
0
-3.27139
-0.990903
-3.52903
-0.289552
0
-3.80767
-2.22221
-0.742489
-1.32897
-6.22523
-3.55384
0
-0.459769
-6.52321
-3.03693
-5.68275
0
0
-2.08732
-0.707291
-4.29172
0
-5.98293
-5.94805
-2.63711
-0.819223
-0.830642
0
-3.47192
0
-0.639212
-2.26566
-1.66146
0
-0.0564568
-4.642
-0.0979499
-2.19715
-0.420441
0
0
-1.88099
-1.47515
-5.23313
-1.42459
-5.39369
-1.97023
-0.77946
0
-1.91362
0
0
-4.16961
-2.70856
0
0
-0.239275
-3.64683
-0.70854
-4.76341
0
-7.35887
-4.4234
0
-5.3096
-4.01466
-3.42379
-4.04566
-0.503861
-2.57025
0
-3.63155
0
-9.02542
0
-2.95179
-1.98636
-4.27894
0
-0.113812
-1.97735
0
-3.17357
-3.90162
-3.61831
-0.234518
-3.5235
-5.11421
-3.90801
0
-4.18999
-3.87963
0
-7.29167
0
-2.47325
-3.59812
-1.46817
-1.06713
-0.610669
-12.3058
0
-10.3205
0
-4.73628
-1.10501
0
-4.14119
-0.592271
-6.06842
-1.67024
-5.31602
-1.2552
-1.08079
-0.749497
-0.691781
-2.23688
-0.372544
-4.50092
0
-5.35608
-1.05146
-4.18523
0
-2.63305
0
-3.21777
0
0
-0.134914
-0.662654
-1.05724
-2.63186
-0.936392
-3.88585
-0.0938569
-0.107434
-9.61336
-0.310035
0
-0.242738
-2.25785
-2.07673
-0.457625
-3.55877
-0.646272
-1.69208
-4.49804
0
0
-3.18257
-1.49831
-2.45697
-0.656845
-2.16392
-2.6875
-1.00506
-1.59654
-0.763886
-0.38736
-4.6935
0
-0.383564
-0.375375
-8.0497
0
-0.351415
-0.115428
-8.45073
-1.27765
-5.87909
0
-5.59214
0
-9.02371
0
-0.600368
0
-0.761473
0
0
-3.94431
-0.534757
-3.16741
-4.71837
0
-2.90032
-1.82149
-6.14472
-1.20395
-3.88491
-2.95141
-2.64302
-1.28485
-0.793321
-1.84462
0
-3.75829
-2.05474
0
-1.84941
-0.507916
-3.73507
-1.09991
-5.78122
-4.68109
-0.815469
-7.52974
-1.09589
-3.85182
-4.5341
0
-9.51431
-0.229605
-2.88777
-5.23772
0
-1.56537
0
-2.98497
-1.78638
0
-0.205412
0
-0.134837
-3.24172
-0.202742
0
-0.460545
-3.40848
-0.214919
0
-7.85559
-1.46999
-4.19678
-0.790745
-4.08225
-2.00847
-4.1587
-2.94844
-2.74461
-0.960068
-3.30184
0
-2.10755
0
-4.03819
-1.09265
-1.18784
-3.5123
-3.60884
-1.10857
-2.04342
-9.65491
-0.465732
-8.22274
-3.78995
-2.82809
0
-0.50442
-4.3882