<?xml version="1.0"?>
<VTKFile type="RectilinearGrid">
<RectilinearGrid WholeExtent="0 32 0 32 0 32" Origin="0 0 0" Spacing="1 1 1">
<Piece Extent="0 32 0 32 0 32">
<PointData>
</PointData>
<Coordinates>
<DataArray type="Float32" format="ascii">
0 0.524874 1.04975 1.57462 2.0995 2.62437 3.14924 3.67412 4.19899 4.72386 5.24874 5.77361 6.29849 6.82336 7.34823 7.87311 8.39798 8.92285 9.44773 9.9726 10.4975 11.0224 11.5472 12.0721 12.597 13.1218 13.6467 14.1716 14.6965 15.2213 15.7462 16.2711 16.796 
</DataArray>
<DataArray type="Float32" format="ascii">
-5.03879 -3.62163 -2.20447 -0.787311 0.629849 2.04701 3.46417 4.88133 6.29849 7.71565 9.1328 10.55 11.9671 13.3843 14.8014 16.2186 17.6358 19.0529 20.4701 21.8872 23.3044 24.7216 26.1387 27.5559 28.973 30.3902 31.8074 33.2245 34.6417 36.0588 37.476 38.8931 40.3103 
</DataArray>
<DataArray type="Float32" format="ascii">
0 0.524874 1.04975 1.57462 2.0995 2.62437 3.14924 3.67412 4.19899 4.72386 5.24874 5.77361 6.29849 6.82336 7.34823 7.87311 8.39798 8.92285 9.44773 9.9726 10.4975 11.0224 11.5472 12.0721 12.597 13.1218 13.6467 14.1716 14.6965 15.2213 15.7462 16.2711 16.796 
</DataArray>
</Coordinates>
<CellData>
<DataArray type="Float32" Name="Scalar" format="ascii">
0
0
0
0
0
0
0
0
0
0
0
0
0
0
0
0
0
0
0
0
0
0
0
0
0
0
0
0
0
0
0
0
0
0
0
0
0
0
0
0
0
0
0
0
0
0
0
0
0
0
0
0
0
0
0
0
0
0
0
0
0
0
0
0
0.0301892
-1.44055
0
-0.302201
-0.138099
0
-0.664401
-0.128611
-0.180063
-0.621049
-0.0550897
-0.582983
-1.47392
-0.0391832
-0.388809
-0.673468
0.393323
-0.39893
0
-0.656882
-1.14208
0
-0.161378
-0.384632
-0.0155612
-0.366781
0
-1.20779
-0.608241
0.0102775
-0.392046
-0.819392
-1.1306
-0.208864
-0.197591
-0.109803
-0.180207
0
-0.499838
-0.325449
-0.383193
-1.03621
0
-0.326709
-0.434474
0
-0.906827
-0.599421
-0.204391
-1.31561
-0.468664
-2.4821
-0.756957
0
-1.2034
-0.303252
-1.556
-1.41142
0
-0.188696
0.497778
-0.489238
0
-0.510235
-6.78846
-1.23314
-8.63952
0
-3.7983
0
-4.86079
-2.48004
-3.04224
-0.920728
-0.758814
-2.80473
0
0
-3.69018
-0.753253
0
-2.66036
0
-1.8118
0
0
0
-1.75109
-4.06897
-6.19663
-1.44472
-0.92743
-1.25103
-4.53642
-4.06126
-0.0573121
-1.66987
-0.552801
0
-2.3501
0
-4.49854
-2.44011
-1.0288
-1.58903
-7.64484
-3.56852
0
-3.99796
-0.491927
0
-0.772303
0
-5.53144
0
-8.32928
-1.66558
-6.1565
-1.27404
-4.72387
-2.10858
0
-1.66673
-1.20783
-1.76643
-0.491611
-2.34033
0
-3.64447
0
-3.03959
-1.97058
-3.1396
-2.58805
0
-2.1993
-0.87366
-3.47663
-0.775763
-0.261174
-3.82102
-1.33368
-5.01906
-5.83875
-5.53377
-5.91222
-0.234062
-3.16356
0
-6.58495
0
-5.96906
0
-1.10346
-2.44075
0
0
0
-0.352242
0
-2.69599
-1.59184
-1.15185
-1.57972
-3.28631
-0.647871
-1.66021
-2.49343
-0.4256
0
-3.5675
0
-0.293569
-3.6617
-3.64055
-4.36038
-0.864996
-2.74694
-1.12802
-2.54642
-1.37184
-1.87694
-3.18032
-3.91347
0
0
-3.06871
-2.41396
-2.41654
0
-3.97744
-0.840167
-4.55757
0
-3.01282
0
-7.94977
-2.18465
-3.16548
0
-7.83342
0
0
-2.38312
0
-3.19462
-1.04145
-0.22802
-0.224047
-2.11244
0
-4.33236
-0.121197
-0.620683
-0.567786
-1.92395
-2.89674
-2.12974
-1.58801
-3.04672
-0.909883
-2.90665
-1.01656
-2.06515
-2.05027
-0.849881
-1.72115
0
-9.51517
0
-2.8384
-0.41293
-8.13586
0
-0.143431
0
-1.85607
-0.777922
-0.203057
0
-5.24748
0
-7.3138
0
-2.77959
-3.14227
-0.412844
-3.83409
-3.3978
-0.232685
-1.41159
0
0
-1.18658
-0.0706066
-1.59172
-3.30329
-1.29499
-2.17009
-7.69158
-5.22059
-1.09475
-0.669882
-3.41439
-4.30044
-6.59878
-2.21066
-0.746401
-0.00479891
-0.552069
0
0
-1.75859
-0.423749
0
-6.50961
-3.29599
-2.8499
-5.4065
-3.46782
0
-0.743009
-6.47805
0
-3.0319
-5.38277
-3.23369
-3.06665
-3.98144
-2.83059
-1.17785
-2.03745
-0.41007
-1.87713
-5.97743
-2.52959
0
-7.26958
0
-0.608463
0
-6.08625
0
-3.35308
-0.157672
-6.32755
-0.200488
-1.50274
-0.192828
-0.407079
-0.675601
-2.31694
0
0
-1.98047
-4.88416
0
-2.89187
-3.09518
-2.88955
0
-2.73223
-1.80496
-7.34014
0
-2.01318
-0.0100208
-0.239332
-0.82978
-3.37369
-3.31205
-4.22189
-5.8734
-1.34318
0
-6.10247
-0.11276
-0.096959
0
-2.91967
-2.50127
0
0
-2.629
-0.968011
-0.27043
0
0
-1.16219
-2.04491
-0.345969
-2.55649
-2.67652
-3.71315
0
0
0
-4.50133
-0.587421
0
0
-2.44238
0
-5.47054
0
-0.813044
-1.84319
-1.98524
-6.29294
-1.2073
-2.46773
-2.59835
-1.81013
-1.54159
-3.04122
-2.11776
-2.62878
-0.0925623
-2.82044
0
0
-8.32475
0
-2.22572
-1.34873
-6.42871
-2.25198
-1.5868
-2.07154
-1.89755
-1.32177
0
0
-2.46537
-0.52908
-8.15364
-3.67876
-2.13789
-3.60206
0
-1.07075
0
0
0
-0.567596
0
-1.35921
-4.97124
-1.78702
-5.28871
-0.0586467
-1.28876
0
0
-5.52093
-1.58951
-3.59615
0
0
-0.505548
-5.39668
0
-0.936698
0
-4.30772
0
-3.7596
-0.418991
0
-2.33584
0
-2.94475
0
-4.57088
-2.47673
-4.13924
-4.52042
-1.59257
-3.16994
-0.219429
0
-0.115904
0
-6.55362
-0.154485
-7.03715
0
0
-2.45647
-4.16129
-1.68949
-6.10674
0
-1.5296
-2.61023
0
-4.79449
0
-5.84641
-5.73473
-2.41599
-8.26684
-0.763631
-6.50601
0
-0.476338
0
0
-3.85095
0
0
-0.0175955
-6.03836
0
-6.26567
0
-0.0446203
-5.04735
-2.16856
-2.57433
-0.796697
0
-1.08269
-0.721474
-5.06004
-0.897931
-0.0912999
-1.52993
-2.11847
-0.638367
-3.22393
0
-1.72978
0
-0.263923
-0.811115
-3.27549
-0.962141
-4.12117
0
-5.24789
0
-0.906126
0
-3.69953
-0.672571
0
0
-0.829408
-4.35849
-1.41376
-5.59225
-2.00409
-0.172707
-5.41522
0
-7.52492
-0.531821
-8.74878
0
-2.04372
0
-0.423637
-4.90741
-1.21937
-4.57041
-6.05361
-7.35485
-6.42886
0
-0.543397
-0.56979
-0.244035
0
-2.09546
0
-0.211344
-8.35513
-0.473608
-5.30262
0
-0.546117
0
-0.738994
0
-3.09122
-0.49691
-5.24535
0
-1.33975
-1.74235
-2.22791
-1.76414
-3.57438
-4.3273
-0.715747
0
0
-0.151043
-4.50601
-2.75443
-6.03969
-3.57133
-0.775424
0
-5.90217
-0.400177
-2.70087
-1.20093
-2.71084
-2.56341
-1.4394
-2.8851
-1.66138
0
-7.99914
-0.137081
-2.61022
-3.78439
-1.18726
-0.411529
-2.73159
0
-0.567576
-1.63434
-0.453763
0
-2.08497
-1.20834
0
-0.18628
-6.90818
0
0
-3.18505
0
0
-0.309502
-1.58494
-1.92685
-0.35697
-3.45388
-0.817307
-7.03843
-1.13148
-4.2174
0
-0.633652
-1.94232
-0.420652
-2.99989
-0.75261
-6.91233
0
-0.652626
0
-0.209519
0
-1.05246
-6.06782
-0.0200556
-1.27954
0
-3.19426
-0.233628
-5.41287
-2.2182
-3.88079
0
-4.01743
-0.7564
-3.88027
0
-6.56084
-0.12567
-1.69301
-0.351358
-4.71243
-3.10671
0
-0.755283
0
-6.80271
-1.65032
-7.93081
0
-4.66038
0
-2.66488
-0.991781
-0.268012
0
-3.87495
-0.308077
-2.06171
-4.73788
0
-2.01087
-0.309814
0
-3.90135
-1.48892
-2.49437
-1.37524
0
-2.29926
-2.05489
-1.45647
-0.361602
-3.63768
-5.01839
-4.74728
-5.91093
-0.717011
-1.29412
0
-2.64863
-2.2213
-1.29668
-0.113128
-0.855556
-7.14978
0
0
-9.78124
0
-1.19011
0
0
-3.47949
-0.235242
-3.1405
0
-6.11209
0
-6.91594
0
-1.14419
0
0
0
-4.87093
0
-1.89916
-4.07345
-2.6479
-1.04102
-0.196589
-2.2037
-3.18916
-1.54155
-4.45828
-5.19986
0
-2.82864
-4.05224
0
-2.13302
-5.65041
-3.07263
-6.11901
-1.95555
-5.70995
0
0
-2.00903
-1.82145
-0.0447354
-0.44391
-3.3983
-1.56096
-2.87789
-0.0828461
-4.77878
0
0
-1.60689
-1.26136
-2.20822
-3.12078
0
-1.01631
-5.25146
-0.119493
0
0
-3.15609
0
0
-2.85145
-0.326852
0
-0.0264482
-0.657803
-1.76519
0
-4.24129
-3.1063
-1.95316
-1.16501
-0.134839
-5.72382
-1.02109
0
0
-0.626843
-4.61776
-2.30177
0
-8.37521
0
-8.00932
0
-10.3467
0
0
-5.61483
-0.649099
-3.43059
-1.19078
-0.470691
0
-2.53159
0
-2.5511
-1.57289
-0.667861
-0.959393
-2.3579
0
-3.45993
-3.91919
-2.78132
-2.82357
-1.13683
-6.74182
-0.559412
-0.783409
-0.883915
-0.0470218
-0.63423
-7.69282
0
-0.208257
0
-2.38234
-1.15525
-0.458073
-5.57394
-3.92913
-0.447641
-1.08036
-4.28361
-1.86323
-0.211069
-2.83187
0
-6.79957
-0.89805
-3.94041
0
-6.06022
-0.316474
-0.44797
-4.95468
-1.24428
-2.46522
0
-1.64255
-0.177909
0
0
-1.05845
0
-1.04331
0
0
-3.45431
0
0
-2.81019
-1.0724
-5.13534
-8.93544
-0.700262
-9.66622
-2.30535
-1.98435
0
0
0
0
-0.387135
-0.408734
0
-5.36954
-1.73686
-4.58887
-3.73258
-2.24952
-0.0238566
-0.743863
-1.91968
0
0
-5.65124
-3.29015
-4.70993
-0.281563
-1.25229
-5.58451
0
0
-6.3335
-4.78594
-0.318311
-0.420229
0
-3.70409
0
-4.53831
0
-7.49391
-0.337168
-0.723063
0
-7.9456
-2.98374
-0.309254
-1.22148
-2.75052
-2.34874
-3.5038
0
-3.34701
-3.99127
-1.15378
-2.72443
0
0
0
-4.12408
-1.34436
-7.303
-1.56704
0
0
-5.81876
-2.93274
-1.88881
-1.22205
0
-4.4518
-1.23183
-4.27058
-2.6211
-1.88674
-0.685795
-1.59853
-1.92882
-1.94239
-0.0916438
-4.92635
-0.799813
0
-6.49823
0
-8.51382
-4.43684
-2.59951
-4.31184
-1.35911
-3.20824
-4.6626
-6.26647
-0.194855
-5.93324
-5.83723
-1.75682
0
0
-7.08281
-2.35099
0
-7.99978
0
-3.32249
0
-2.71006
-0.672728
-2.92522
0
-0.826584
-4.19861
-1.22737
0
-5.06713
-2.29731
-5.51476
-0.0981838
0
0
0
0
0
0
0
0
0
0
0
0
0
0
0
0
0
0
0
0
0
0
0
0
0
0
0
0
0
0
0
0
0
0
0
0
0
0
0
0
0
0
0
0
0
0
0
0
0
0
0
0
0
0
0
0
0
0
0
0
0
0
0
0
-0.0812588
-0.963581
0
-2.65051
-1.16603
0.0349779
-1.22574
-0.696834
0.0270126
-0.621634
0
-1.60446
-1.87192
0
-2.26085
-1.70279
-0.889356
-1.57509
0.0790985
-0.794608
-2.3202
-0.221904
-3.16522
-1.06051
-1.66775
-2.34095
0
-1.01647
-1.56615
-0.0318254
-1.48103
-1.5444
-0.371295
-3.77273
0
-0.526468
-3.35686
0
-0.438296
-2.42308
-1.7612
-1.76684
0
-2.50214
-0.203302
0
-2.63168
-0.444351
-0.987571
-3.31471
0
-2.49676
-3.90903
0
-0.138564
-0.463236
-0.501064
-0.246709
0
-1.26201
-0.696839
0
-2.49024
0
-4.24193
0
-2.53674
-3.07949
-3.45771
-2.41702
-3.47331
-1.45714
0
-1.12329
-1.11331
-0.0842895
-8.44378
-1.0342
-6.3514
-5.65105
-3.07116
-4.11334
-0.620339
-5.13961
-3.88468
-5.37509
-5.31772
-7.69856
0
-4.66664
0
-3.54548
-2.64752
-0.674174
-3.29933
-1.30577
-2.43443
-4.10447
-2.68362
-2.64849
-1.00442
-3.96126
-0.795825
-7.09455
-0.205523
-6.60732
0
-2.00394
-1.35099
-3.60853
-1.71486
-3.79417
-1.2931
-0.56704
-4.71481
0
-1.26088
-4.05819
0
0
0
0
-3.47831
-0.0964981
-6.85252
0
-4.0139
-0.316135
0
-2.57568
0
-4.54306
-3.97173
-6.39314
0
-4.97376
-0.132998
-0.281099
0
-3.638
-3.93789
-2.18954
-0.345382
-5.32627
0
-0.904607
0
-1.82906
0
-1.30559
-0.356027
-2.85766
-4.22787
-4.46657
-2.74699
-1.84894
-6.05724
0
-2.39012
-4.25311
0
-1.03338
0
-1.65442
-2.7135
-3.35327
-1.91964
-1.08097
-4.77658
-1.27454
-7.90143
0
-5.91887
0
-1.69695
0
0
-3.70304
0
-6.87784
-1.23968
-1.04575
0
-0.674821
-1.17599
-1.64041
-2.9844
0
-1.35694
-1.44996
0
0
-0.442294
-3.23208
-4.39906
-5.60071
-1.19366
0
-3.11085
-1.61991
0
-6.57694
0
-1.50275
0
-1.60873
-1.93505
-4.26947
-1.83324
-1.91213
-3.79246
-0.0475108
-0.0711723
-5.46335
-4.7146
-2.57853
-1.39754
-0.752907
-3.45128
-0.957333
-2.62797
-2.20414
0
0
0
0
-3.54733
0
0
0
-7.71836
-0.489431
-0.86757
0
-6.40698
-3.94098
-5.22298
-0.132117
-2.05027
-1.58089
-2.26867
-3.10315
0
-4.42608
-0.936032
0
-0.101083
-3.38319
-0.863223
-7.73503
-0.386482
-5.77306
-0.14741
-3.83548
-1.77172
-0.938985
0
-5.89885
-9.07028
-0.60126
-3.01466
-2.17609
-1.18073
0
0
-2.72473
0
-1.69599
-5.57388
-4.49454
-4.41669
-0.182646
-2.87442
-6.24755
-0.455616
-0.136586
0
-0.226717
-0.687342
0
-4.0157
-0.733031
-1.51656
-3.35842
0
-2.20895
0
-1.3338
0
-5.71609
0
-1.14791
-0.909931
-0.281017
-2.97236
-3.49418
-2.01726
0
-3.19446
-3.4075
-2.32887
-2.3261
0
-4.97585
0
-1.2807
-4.91379
-2.19362
-9.95215
0
0
-3.61478
0
-3.30087
0
-5.70371
0
-3.2001
-3.15486
-3.06776
-0.921057
-0.753437
0
0
-5.43565
0
-8.81924
-2.7844
-5.95898
-1.7063
0
-4.18692
-1.90901
-6.14838
-2.54923
-1.12897
-2.02111
-4.76575
-4.88768
-0.832032
-3.54276
0
-4.55862
-1.81351
-1.13945
-4.84657
0
-5.04765
-1.91367
-7.33081
0
-3.1519
0
-6.31396
0
-6.26923
-1.45381
-5.13342
0
-2.9181
-1.41643
-4.52656
0
0
0
-0.253973
-1.39502
-1.54207
-0.679275
-1.29471
-0.556059
0
-2.76639
0
-5.31841
0
0
-1.95358
-8.55921
-5.29127
-1.55273
-5.89444
0
-8.95657
-0.404677
-3.14382
0
-0.977817
-1.89161
-3.09484
0
-3.81151
0
-4.67238
-2.06017
-3.22982
-2.13867
-1.97681
-4.30764
-4.30924
-3.586
-0.794333
-4.83665
-8.97867
-1.90121
-9.61264
-2.00066
0
-6.68383
0
-4.86809
-0.374759
-2.31576
-0.494545
0
-0.565478
-0.52203
-7.44287
0
-9.02077
0
0
-8.27924
-0.784779
-4.24982
-3.07934
-1.25704
-3.44386
-3.67379
-6.6589
-1.69213
-2.61563
0
-0.0664047
-2.60918
0
0
-5.40326
-2.09857
-2.34356
-2.11475
-3.42035
-0.856758
-9.83173
0
0
-1.56342
-9.42848
-0.746543
0
-6.00776
0
-3.66142
-1.36625
-0.973293
-5.15034
0
-4.38021
-1.55693
0
-0.672776
-0.227547
-0.888862
0
-5.0212
0
-7.46777
0
0
-0.107145
-2.23193
-1.23133
-0.656167
-0.257768
0
-3.39254
-2.05297
-1.95535
0
0
-1.00497
0
-1.60025
-0.849631
-0.264716
-1.33576
0
-2.60493
0
0
-2.89258
0
-5.06236
-1.19047
0
-4.65305
-0.929173
0
-1.41962
0
-5.3745
0
-5.13052
0
-0.839287
-4.15424
-4.83766
-2.03815
-3.93747
-1.6171
-2.44726
-0.311947
-9.29455
0
-4.52258
-0.833441
-1.1043
-1.74738
-2.04731
-7.92265
-5.25955
-2.50717
-10.3228
-1.45204
-3.41594
-0.485459
-1.91593
0
-4.66109
0
-8.02374
0
-3.62041
-2.67561
-3.89738
0
-5.44244
0
-1.31817
-5.20807
0
-3.58599
-3.82978
-0.112882
0
0
-0.8571
-0.0269759
-5.04634
-2.21922
-0.439607
-1.15914
-3.69787
-1.45876
-0.664125
-0.390844
-0.368765
-4.20595
-1.29748
0
-0.161372
0
-0.493744
-4.8321
-1.46953
0
0
-6.62426
0
-1.83796
0
-1.56221
0
0
-0.435228
0
0
-4.50002
-2.24848
-4.98077
-1.99614
-1.40126
-1.48661
-2.22344
-0.176095
-7.05337
-1.25618
-4.53933
-1.95778
-6.58601
-0.370538
-0.316055
0
-6.76002
0
-5.64616
-1.23017
-4.08069
-1.82334
0
-0.80842
-0.0779196
0
0
-2.32532
-4.04039
-0.527462
-3.27078
-0.105701
-4.84884
0
0
-4.35752
0
-5.47482
0
-4.16777
-4.48128
-0.368231
-0.894094
-1.48486
-1.13642
-2.86387
-1.98683
-0.215933
-5.03878
-0.585727
-1.17204
-3.79737
-2.02855
-7.73666
0
-3.17882
-1.46265
-1.00796
-3.3088
0
-1.03336
-0.24126
-3.52173
-4.02951
-2.44366
-0.262496
0
0
-2.28562
-0.517026
-6.46658
0
-2.6716
-2.84704
-0.127135
-2.67264
-2.27159
-2.63233
0
-0.231783
-1.05976
-4.02349
-4.7609
-2.65916
0
-0.221725
-1.89648
-0.0714555
-0.563282
0
-4.8744
-2.04634
-4.15217
0
-1.7913
0
-0.744209
-4.63658
0
-1.32132
0
-0.266181
-2.38677
-1.44263
0
-0.713203
-2.1286
-0.657571
-2.67096
-5.56342
-5.63973
-1.29292
-1.60714
-0.950363
0
0
-0.913561
-0.597142
-1.48524
0
-5.97857
0
-6.47411
-0.0366612
-1.28601
-1.03273
-1.8139
0
-0.14915
-3.46038
-0.374355
0
-0.237798
0
-0.028528
0
0
-5.83693
-1.35831
-5.22341
-0.251513
-1.91394
-0.40182
0
-5.1899
-1.3193
-1.20194
-6.19385
0
-1.67333
-4.32575
-1.39961
-0.278424
-5.8242
0
-5.89464
-2.09533
-5.88895
-1.78072
-3.41285
0
-2.22067
-0.642357
-8.26825
-0.232654
-3.30465
-5.52385
-1.37774
-3.95623
0
-6.61507
0
-2.54598
0
-2.65432
-3.48311
0
-4.16839
0
-3.49234
-1.53677
-1.08163
-1.54202
-2.80104
-2.73467
-1.82333
-4.22242
-2.38149
-1.13815
0
-0.555562
0
0
-0.0656391
-2.28945
-1.3557
0
-2.17887
-3.45135
-0.450862
-1.73045
-4.2425
-5.20094
-3.32977
-7.78072
-8.12589
-1.64294
-6.31005
-1.51478
-8.61046
0
-7.62295
-1.0653
-3.59744
0
-4.24088
-0.555599
-4.97784
0
-2.86614
-1.30348
-1.6159
-4.2384
-3.53502
-0.103999
-5.90279
0
-6.73512
0
-4.34083
-5.54213
-0.673002
-4.35763
-3.76619
-1.75995
-0.956744
-3.87617
-7.15894
0
-7.73002
0
0
-3.53953
-1.29964
0
0
0
-1.67383
0
-0.605677
0
-2.79725
-0.253856
-5.62074
-1.87572
0
-4.58471
0
-1.52552
-0.0629619
-6.66438
0
-0.487247
-2.21394
0
-3.55776
-4.14916
-1.42521
-4.28688
0
-0.810347
0
0
-5.62097
-0.982974
-3.73029
-0.0634669
-4.12029
-2.00939
0
0
-1.50627
-1.35921
-2.9798
-5.05767
-0.166665
-5.2521
-5.36307
0
0
0
-4.57973
0
0
-0.205649
-8.21462
-0.562391
-0.0236576
-1.38641
-4.61278
-0.528246
-0.173933
0
-2.69679
-2.69485
0
-0.268156
-6.24529
-1.51437
-1.49578
-1.34805
-7.34924
-0.321361
-0.0769942
-1.81477
-1.01542
-4.40393
-2.61069
-0.663567
0
-1.75865
-0.0206156
-2.65298
-4.79215
0
-1.96208
0
-1.92895
-0.954938
-6.78413
-0.824117
-3.32099
-6.21555
0
-9.26221
0
-3.74235
0
0
0
0
-2.55979
-0.406506
-2.02298
-1.77372
0
-7.33708
0
-0.818067
0
0
0
-4.78242
0
-6.94224
0
-2.70404
0
-5.55284
-0.912287
0
-4.67923
-0.594575
-8.59927
0
-0.343882
-5.306
0
-6.88844
-2.15154
-5.63275
-3.43152
-4.06963
-0.274722
-4.4865
-7.44171
-1.60048
-1.72924
-3.18682
-3.44117
-1.55233
-4.01213
-2.88853
0
0
0
0
0
0
0
0
0
0
0
0
0
0
0
0
0
0
0
0
0
0
0
0
0
0
0
0
0
0
0
0
0
0
0
0
0
0
0
0
0
0
0
0
0
0
0
0
0
0
0
0
0
0
0
0
0
0
0
0
0
0
0
0
0
0
0
-0.371572
0
0
-0.191809
0
0
0
0
0
-0.236702
0
0
-0.091044
-0.143623
0
0
0
-0.556152
0
-0.0458005
0
0
-0.220793
0
-0.040489
0
0
0
0
0
0
0
-0.0802377
0
0
0
0
0
0
0
0
-0.265301
0
0
-0.221399
0
0
0
-0.76644
0
0
0
0
0
0
0
-0.151295
0
0
-0.275419
0
-4.3876
-5.95393
-7.52687
-1.04578
-2.46058
-0.0970003
-3.56281
-1.94206
-5.25582
-0.728099
-5.50034
-1.91657
-3.4784
0
-0.801996
-2.22527
-0.0685562
-1.94633
0
-0.937017
-2.84313
-1.57454
0
-5.0715
-1.69562
-6.37351
-0.751925
-1.19307
0
-0.735465
-4.49939
-1.3723
0
0
0
-1.38514
-1.43905
-1.3776
-2.10549
0
0
-0.754084
0
-5.41409
-4.00226
-0.371986
-1.67575
-2.04186
-2.0338
-8.32217
-1.59195
-4.02163
0
-1.75801
-6.11442
0
-5.81443
0
0
0
0
-2.71675
-0.848495
-1.38264
-3.98934
-2.84781
-1.68225
-4.06812
-0.00937925
-0.568498
-1.2547
-0.141901
0
-7.01876
-0.179023
-1.66601
0
-1.34927
-1.93997
0
-1.11001
-4.98958
-2.60582
0
-2.69759
-0.0464343
-4.20057
0
0
0
-0.0877062
-7.00743
-0.449161
-5.24313
-0.0575368
-2.26396
-4.70829
-1.14289
-7.36992
-1.36066
0
-1.47434
-1.00832
0
0
-0.197454
-2.2944
-1.06144
0
0
-2.88675
0
-4.66309
0
-2.33042
-5.30931
-3.79016
-2.30108
-6.48248
0
-2.6866
0
-2.10547
-1.88334
-4.49506
-0.0258054
-0.257236
-5.85647
-3.65273
-0.473849
-1.46396
-2.25546
-3.85604
-0.498479
-4.9617
0
-1.55335
0
-1.57988
-1.97427
-5.9543
0
-5.04499
-1.72716
-4.31079
-1.79453
-0.483115
-1.15512
-1.32326
0
-0.0696634
-1.15322
-1.58674
0
0
-1.14159
-1.13062
0
0
-6.30366
-2.22811
0
-3.307
0
-3.59429
-3.15594
-0.271862
-5.03197
-6.03006
-5.05139
0
0
-2.23356
-2.40596
-3.83673
-1.59214
0
-0.115617
-5.7326
-0.771619
0
-7.34339
-0.862217
-1.04173
-4.50877
-1.47452
-5.38517
-0.33689
0
-5.53095
-1.26143
-1.9601
-7.2922
-1.06151
-0.55646
-3.06159
-6.33575
-3.6456
-3.2872
-2.90441
0
-2.65423
-4.91783
-0.508208
0
-1.56868
-1.04438
-1.51046
-0.589182
-0.0718012
-0.847082
-5.29791
-6.53536
-1.80558
-0.372647
-4.51527
-0.234548
-2.45567
-4.60665
0
0
-1.13695
-4.31946
0
-2.62469
-0.797425
-1.8764
0
-0.0400426
-3.84401
-0.589378
-0.433905
-0.992165
-2.18442
0
0
-2.81144
-3.8
-4.05241
-9.77633
-2.06652
-5.59582
-0.843016
-7.01105
0
-0.579561
-10.1669
-1.16917
0
-2.55564
0
-0.383942
0
-2.62467
0
-1.00689
0
-7.82075
0
-0.480112
-2.56386
-0.91661
-0.906966
-0.675193
-3.41862
-2.97533
-5.26191
-1.32655
0
-0.111633
0
-1.80167
-0.59145
-3.13305
-0.316267
0
-3.12625
0
0
-1.41182
-6.42877
0
-1.34022
-3.03677
0
-0.615384
-0.473893
-1.86598
0
-1.10146
0
-1.00162
0
-1.27257
0
-5.70293
0
0
-0.438944
-2.0959
-2.09361
-2.74405
0
-4.90016
-1.01879
0
-6.72173
0
-6.4789
-2.15928
-1.4631
-5.30779
-4.47424
-1.54165
0
-0.418557
0
0
-6.99176
0
-3.09593
-5.40181
-1.05593
-5.30615
-1.07278
0
-4.72901
-1.0463
-0.621657
-4.20532
-0.973363
-0.987739
-2.63027
0
-2.91415
-0.90867
-1.2264
-2.8587
0
-1.00539
-0.172593
0
0
-3.59485
-0.418683
-8.62173
-0.0116635
-2.06603
-2.16274
-1.91715
-5.46352
-2.69278
0
0
0
0
0
-8.58963
-1.65032
-1.48368
0
-2.64977
-0.664944
-4.6107
-2.07959
-0.818951
0
-1.48143
-5.24166
-6.25023
0
-11.2704
-0.637218
-3.07662
-2.66481
-1.75181
-6.42893
0
-5.41937
-3.05677
-0.90468
-7.75674
-0.666314
-0.092326
-4.66179
0
-0.73715
-2.33887
-0.739471
-2.07214
-3.74398
-1.41045
-3.35682
-1.01187
-2.76135
-4.95696
-0.199419
-0.487309
-3.80189
0
-2.04012
-1.36894
0
0
-3.30407
-3.89297
-4.01412
-2.56362
-3.60858
-2.27567
-2.38348
0
-0.835592
-2.04284
-6.18014
-0.446958
-3.32579
-1.27815
0
-3.78993
-0.850598
-5.05883
-0.550565
-0.529267
-1.98726
-3.73256
-0.995278
-1.45856
0
-2.21891
-1.49817
-3.49426
-0.771089
-4.95259
-0.530503
0
0
-9.20522
0
-3.82936
-1.87577
0
-3.52823
-0.7545
-3.14176
-2.60076
-2.49174
0
-1.97596
0
-0.463427
-4.90071
0
-3.50058
0
-2.83434
0
-1.38555
0
-1.2222
-2.54821
-4.51142
-3.15828
-5.48035
0
-0.654454
-3.45428
-3.72736
0
0
-4.71423
-2.64494
-1.93083
0
-5.06919
0
-6.14855
0
-2.12249
-1.46386
-8.7564
0
-6.21765
-0.54402
-1.5444
-5.605
-5.12108
-0.293348
0
-1.39118
-1.49883
-3.56134
-0.401835
-1.81095
-3.6331
-5.36297
-3.38879
0
-5.61919
-0.296575
0
-6.30391
-6.05414
0
-0.0794885
-6.92876
0
-4.03405
-4.20044
-1.49068
-7.01933
0
0
-1.70572
0
-0.896798
-0.334948
-2.38551
-0.59729
-5.45073
0
-1.11784
0
-1.67953
0
-0.256668
-0.481786
-0.0578476
-0.360441
0
-2.00876
-2.20608
-0.457856
0
0
-4.62991
-1.05112
-1.18377
-3.58805
-0.883848
-0.256347
-1.68217
-0.594138
-4.11641
-1.13109
-0.24291
-5.98196
-2.25988
-6.57821
0
-0.0865908
-1.40093
-5.07638
0
-4.84624
0
-3.79635
0
-1.91162
-1.11983
-0.962465
-2.22843
-0.888526
-0.280475
-3.82947
-0.840401
-3.03648
-3.44815
-5.92099
0
-3.57589
-9.23876
-2.04972
-1.77756
-0.942413
-0.236701
-0.989201
-1.574
-3.10772
-7.11717
-0.215253
-3.1952
-3.27223
0
-3.65786
-1.72028
0
-5.10834
-4.69044
-0.415806
0
-0.760598
-3.11252
-2.13611
0
-4.74205
-3.74024
-1.85914
-1.29119
-2.15497
-2.78397
-2.80833
-6.60373
-3.41915
0
-8.47621
0
0
-3.64733
-1.28274
-1.01452
-1.96205
-1.25547
-1.55185
-2.4258
-0.542398
0
-5.94622
-1.49457
0
0
-2.67587
0
0
0
-4.8468
0
-8.10764
0
-6.49415
-5.09259
-1.84571
0
-5.14765
0
0
0
-4.16723
-0.908824
-1.55651
0
-3.07642
-0.416273
-3.42609
0
-7.08149
0
-6.69524
0
-8.88181
-0.405949
0
-3.5049
-0.586849
-4.34802
0
-4.51846
-1.01355
-2.874
-0.513434
-1.02084
-2.53709
0
0
-7.63257
-2.40422
-1.92325
0
-1.11393
-1.20747
-0.157771
-1.57077
-1.26641
-0.305558
-4.16843
-1.0391
0
-1.86305
-0.600504
-4.83667
-1.70545
-1.91272
-1.2019
-1.03213
-0.602259
-1.01748
-2.1008
0
-1.00024
-3.28846
-2.17661
-8.21729
0
-0.235216
-0.394776
-2.77206
0
0
-9.43032
0
-5.06145
-2.1908
-4.41861
-0.926782
-2.11985
-0.64789
-3.53983
-0.40522
-4.04839
0
-0.272053
-0.878329
-3.04629
-3.2858
-0.442154
-2.8121
-0.0881975
-0.465452
-0.303908
-3.30471
-3.7756
-0.128518
-1.98203
-0.193568
-0.678825
-1.28166
-2.11384
0
-2.21715
0
0
-0.247076
-5.7613
-1.80587
-1.75558
-0.409237
-3.70746
-0.715688
-6.0355
0
-0.378729
-4.15958
-0.0357936
-1.92926
-4.39305
-2.23832
0
-2.09058
-10.2447
0
-2.15832
-2.96797
0
0
-4.54779
-0.498813
-0.0254355
-3.47544
0
-3.78507
-0.947272
-4.89258
0
0
-2.59494
0
-1.66466
0
0
0
-0.429814
-4.10047
-1.10296
0
-7.83384
-1.39392
-1.47543
0
-2.43387
-4.81301
-0.0395583
-2.46801
-0.865727
-5.6717
-3.95037
-5.97491
0
0
-1.77666
-3.80233
-4.18796
-0.0663927
-4.55815
-1.89389
-3.34921
-5.0615
-2.48782
0
-3.62712
-0.807724
0
-5.23425
-0.302131
-3.07465
-0.28522
-1.04221
-6.72708
-1.25569
-3.16645
-3.18265
-1.1843
-1.41037
-1.95978
-3.65333
-4.88001
-5.51127
-0.176663
0
-3.78012
-4.13799
-0.101349
-1.33033
-1.43839
0
0
-5.42815
-3.17072
-2.19391
-0.703306
-1.27398
-0.951381
-3.83543
-0.393948
-2.90998
-4.39053
-0.252649
-0.280998
-0.291745
-2.64531
0
-4.00122
0
-1.5779
-3.86349
-6.21109
0
-2.15253
-1.37531
-1.44819
0
-3.88177
-1.94483
-4.28378
-3.15911
-1.74393
-0.859591
-2.97202
0
-5.58078
-3.22244
-6.598
-5.69706
0
-3.19761
-6.25224
-3.2247
-5.47627
-1.45327
-6.54543
-4.29208
0
-0.726461
-0.878111
-5.72048
0
-1.2487
0
-4.24416
-2.66948
-0.596425
0
-4.67168
0
0
-3.85158
0
-5.45804
-1.66311
-0.343684
-4.15686
-2.38586
-0.762693
-1.11436
-2.38823
-0.690862
-5.84162
0
0
0
0
0
0
0
0
0
0
0
0
0
0
0
0
0
0
0
0
0
0
0
0
0
0
0
0
0
0
0
0
0
0
0
0
0
0
0
0
0
0
0
0
0
0
0
0
0
0
0
0
0
0
0
0
0
0
0
0
0
0
0
0
-0.360244
-1.35313
0
-1.32919
-1.1683
0
-0.998813
-0.537685
-0.938174
-2.01642
0
-1.19848
-1.51129
-0.370681
-1.87417
-0.988667
-0.610325
-1.45355
-0.87887
-1.5427
-0.890804
-0.108004
-1.61905
-0.971705
-0.0615312
-1.1033
-0.00979256
-1.17366
-1.62785
-0.0604363
-2.56258
-0.74969
-1.09003
-0.400024
0
-2.41062
-1.89747
0
-3.38072
-0.18041
0
-3.6886
-0.713587
-0.660839
-3.72944
0
-0.585029
-0.576515
-0.664077
-0.442288
0
-3.70181
-0.593851
-0.0226999
-2.45564
-0.0472246
-0.134869
-1.32512
-0.0166793
-0.795362
-3.26734
-0.00345958
-2.15782
-1.28449
-3.74713
-3.64332
0
-5.73547
-5.71086
-3.1574
-1.95412
0
-3.21992
-0.108454
-2.57768
-4.95284
-1.77192
-0.0922481
-3.63572
-1.28168
-2.15621
-4.94668
-1.6235
0
-7.28526
-2.05876
-3.49505
-5.40096
-0.638094
-5.17989
-1.6519
-5.85327
-1.05445
-6.18394
-0.293919
-2.78293
0
-3.0396
-1.21421
-0.942832
-3.57701
-0.528602
-1.90707
-9.07108
-2.4487
-7.15761
-3.11547
-1.09912
0
-5.34738
-0.428588
-4.69361
-0.979722
0
-7.65405
0
-8.2141
0
0
0
0
-0.0300903
-1.88292
-3.70838
0
-5.04681
0
-2.24656
-4.00354
-1.81444
-4.10604
-0.00217926
0
-6.56403
-0.697092
-9.86761
-2.91475
-2.75931
-3.65632
0
-10.1276
-1.88524
-5.59094
-5.52132
-2.33651
0
-1.86659
-1.38899
-6.62441
0
-2.41641
-1.6209
-4.99801
-1.86919
-2.11045
-1.25055
0
-1.04652
0
-4.09324
-0.221109
-3.00889
0
-2.33448
-0.927512
-3.81577
0
-9.85442
0
-8.12942
0
-7.28456
-0.960181
-2.57446
-0.558362
0
0
0
-1.87461
0
0
0
0
-6.41297
-4.44334
-1.45802
-4.97371
0
0
-5.0257
-4.61704
-0.682609
-0.393698
0
-3.98238
-2.63381
-3.14577
-1.31165
-0.730212
-1.05539
-4.06672
0
-2.79938
-3.13105
-3.04989
-0.523959
-0.894656
-1.2114
-0.624244
-0.272838
-0.338383
0
0
-4.54137
-0.718165
0
-5.3446
-1.39457
-0.128798
-0.329024
-0.316278
-5.20198
-0.904352
-1.09627
0
-6.21114
-1.66966
0
0
-0.838008
-0.784412
-4.01935
-0.139109
-1.26361
-3.88024
-2.25867
-0.0143386
-0.337399
0
0
-6.5838
0
-6.00898
-0.693706
-4.05348
0
-3.96694
-1.62803
0
-2.28376
-0.512172
-1.83154
-5.17457
-0.49923
-0.638748
-4.2094
0
-1.5638
-1.10237
-2.84984
0
-1.98268
0
-0.920351
-1.95067
-0.705876
0
-3.08601
-1.20501
-3.26534
0
-0.905875
-0.406252
-2.40421
0
-1.45918
-0.3864
-0.421831
-4.02277
-2.31059
0
-0.871538
0
-3.36568
-4.9102
0
-2.85594
-4.45183
-1.47958
-3.11334
-1.12587
-0.754571
-1.60773
0
-1.23131
-4.45153
0
-1.2812
-0.352381
-0.9335
-2.84859
-1.78217
-1.53121
0
-0.511258
-1.0944
-2.27181
0
0
-0.252158
-0.464292
-1.81182
-5.29622
-3.99882
-5.7965
-5.22037
-0.124544
-3.00337
0
0
-1.86517
0
-0.707502
-6.68263
0
-7.18658
0
-2.44996
0
0
0
-4.29224
-1.30853
-4.71474
0
-4.04394
0
-1.00668
-3.9668
-2.45762
-2.02142
-5.7464
-4.10844
0
-2.55927
0
-3.01432
0
-1.14349
-3.15878
-6.59582
0
0
-7.50491
0
-5.04272
-0.476061
-2.31591
-1.66511
-1.47489
-2.20762
-4.64052
-2.59347
0
0
-1.33981
-4.15202
0
-1.68168
-8.9325
0
-3.16527
0
-6.69929
0
-0.362616
-0.0267302
0
-7.47976
-0.562968
-5.03892
-2.20416
-0.13528
-4.55712
-3.95356
-1.94335
-0.844354
0
-3.69344
-0.322625
-7.75245
-1.30389
-4.86555
-2.31225
-3.03574
-3.5389
-2.48264
-0.887119
-6.20242
-1.95243
-2.42356
-1.20919
-2.53818
-4.78739
-1.01983
-4.8417
0
-4.3807
0
-1.35543
-1.44091
-3.96062
-2.82296
-0.32527
-0.272222
0
-11.843
0
-7.95733
-3.66261
-0.944277
0
0
-2.77088
0
-4.72982
-1.61524
-2.7198
0
-5.16513
-0.285353
-6.37039
0
-1.59975
0
-1.65834
0
-8.40164
-0.195837
-5.84795
-2.20609
-4.30306
-2.02425
-0.373104
0
0
-3.80783
-1.50204
-2.30394
-0.180618
-4.27762
-2.0736
-3.4604
-0.237498
-0.941719
0
-2.41169
-1.19681
-1.58631
-1.50341
0
-9.54293
0
-5.52608
0
-1.27132
-0.663666
-9.26485
-0.794363
0
-1.71656
0
-3.2442
0
-2.08045
-5.92422
-5.072
-1.16889
-1.2795
-0.189666
-4.58776
-3.24717
-6.78607
0
0
0
-6.67261
-1.27299
-2.17158
-2.69442
0
-6.29679
-7.81442
-0.569106
-4.8829
-3.60547
-3.107
-1.2366
-1.16355
-5.86215
-0.532981
0
-5.74148
-2.65643
-1.24746
-4.1402
0
-2.4374
0
0
-1.21551
-4.49244
-0.336957
-3.61467
-0.74219
-2.89477
-2.00024
-2.57573
0
-3.81168
-3.08568
-2.3752
-0.989166
-5.25036
-0.250456
-0.981937
0
-1.76731
-3.48762
-4.43068
0
0
-6.52249
-1.28688
-1.98729
0
-7.74187
-3.5674
-2.48421
0
0
-0.176402
-1.48253
-0.670758
-2.19218
0
-3.26572
-1.91893
-4.51243
-0.829242
-0.406604
-2.30629
-3.25271
0
-4.87402
-4.18715
-4.44161
-3.87791
-3.36574
-0.0671359
-3.50272
-1.43707
0
0
-6.14918
-0.0849582
-0.274493
-3.90125
-3.10632
0
-0.0957933
-2.93039
0
-3.27447
0
-2.80348
-4.07296
0
-4.55819
0
-0.768376
-3.98496
-2.46383
0
-6.684
-4.88662
-3.44011
-0.707641
-0.585241
-0.349662
-6.36372
0
-8.24468
-4.1444
-4.57363
-2.03685
0
-5.04692
0
0
0
-2.33574
0
0
-0.711174
-3.90148
-1.98321
-0.24674
-2.43935
-3.16988
-0.0507096
-1.63139
0
-2.20857
-3.1116
0
0
0
-3.00468
0
0
-4.61481
-0.287403
-1.78057
0
-0.722455
-0.838123
-0.754632
-1.1328
-3.24844
-1.94913
-2.02875
-3.34338
-3.84218
-6.32316
0
0
-0.804211
-1.14966
0
-4.29868
-2.15421
-0.136508
-2.58523
-1.97137
-2.45942
-1.7422
-1.9547
0
-1.18699
-3.47822
-0.0403608
-2.2206
-6.46158
-5.83857
-7.63765
0
-6.09563
-2.1698
-3.76776
-0.924789
-4.58283
-4.73818
-1.65999
-0.82459
-0.0245831
-0.972008
-0.522383
0
-0.638526
-7.14142
-1.9756
-2.92638
-5.2129
-3.66855
-0.627819
-3.1238
-2.99185
-0.634083
-1.57637
0
-0.0566931
-2.81143
-2.63072
0
0
-6.81388
0
-6.21816
0
-1.67461
0
-4.28569
-0.922505
0
-5.80018
0
-4.66036
0
-4.57957
-4.77348
-1.79715
-0.671869
-0.654949
-1.29516
-2.56031
0
-5.52374
-0.913719
-1.80708
-0.207309
-0.618748
-0.0369306
-0.190348
0
-6.02773
-0.046091
0
0
-4.94656
0
-0.315881
-1.5727
-1.78484
-1.11138
-4.86612
0
-6.16073
0
-0.546377
-6.44733
0
-3.63932
0
-5.74019
-1.07922
-2.3526
-5.50106
-1.66213
-6.69828
-1.35064
-8.58291
-4.37276
-0.339214
0
-6.23098
0
-3.10321
0
-0.117936
0
-0.7445
-2.2909
-3.95907
-0.0157799
0
0
-5.92352
-0.831965
-6.79893
-3.17261
-4.856
0
-0.0291422
-2.10088
0
-4.07901
-1.3363
-3.41675
-5.1173
-1.37233
-0.564035
-1.24226
-4.32256
-1.09269
-4.60116
-3.99823
-0.328796
-4.41307
-0.71897
-1.57868
-4.5987
-1.67853
-0.212307
-0.454483
-2.76237
-1.42234
0
-4.24853
0
-2.79769
-3.74009
-1.30993
-1.47273
-4.00188
-1.60931
-1.05961
-0.72273
-3.61891
-1.68509
0
-2.47197
-5.76893
-3.29246
-9.41917
-1.52601
-1.10902
-4.28122
0
0
-7.75783
-4.09115
0
0
-0.0337985
-1.43996
-3.01218
-4.0748
-0.0333477
-10.5187
0
-0.606318
0
0
0
0
-5.08301
-2.09491
0
-0.748441
-2.95897
-2.34121
-4.10087
-1.89972
-2.73141
0
-0.463523
0
-0.287294
-1.05564
-5.32707
-4.41466
-1.76225
-3.74243
-0.976688
-6.20544
-0.904137
0
0
-0.611747
-3.94638
-0.459387
0
0
-1.97956
-4.54752
-0.813899
-1.63754
0
0
-7.64119
0
-3.8902
-1.27392
-2.63841
0
-4.96419
-1.15668
-2.84366
-1.49953
-0.204923
0
-0.554645
-0.0876011
-0.155277
-1.08812
-0.814095
0
0
-4.52753
-0.182562
-5.9902
-0.361284
-0.0376327
-5.19582
-0.938487
-0.787633
0
-3.54667
0
-1.9889
0
-5.3072
-0.404471
-0.945465
-1.11886
0
-0.511477
0
-4.41612
-0.900092
-0.480114
0
0
-0.912364
-1.52171
-3.91298
0
-2.08749
0
-1.98518
0
-4.08496
-4.61507
-1.56878
0
0
0
-2.37554
-2.92712
-0.464246
-6.15251
0
0
-1.30327
-1.79962
0
-0.47694
-2.12502
-0.903029
-2.84219
-0.763192
0
-0.423228
-6.38814
-2.06402
0
0
-4.71867
-4.36619
-0.0684022
-0.676962
0
-6.97771
-0.57291
-3.22863
-1.03853
-7.74657
-3.72707
-2.65318
-4.30447