<?xml version="1.0"?>
<VTKFile type="RectilinearGrid">
<RectilinearGrid WholeExtent="0 32 0 32 0 32" Origin="0 0 0" Spacing="1 1 1">
<Piece Extent="0 32 0 32 0 32">
<PointData>
</PointData>
<Coordinates>
<DataArray type="Float32" format="ascii">
0 0.524874 1.04975 1.57462 2.0995 2.62437 3.14924 3.67412 4.19899 4.72386 5.24874 5.77361 6.29849 6.82336 7.34823 7.87311 8.39798 8.92285 9.44773 9.9726 10.4975 11.0224 11.5472 12.0721 12.597 13.1218 13.6467 14.1716 14.6965 15.2213 15.7462 16.2711 16.796 
</DataArray>
<DataArray type="Float32" format="ascii">
-5.03879 -3.62163 -2.20447 -0.787311 0.629849 2.04701 3.46417 4.88133 6.29849 7.71565 9.1328 10.55 11.9671 13.3843 14.8014 16.2186 17.6358 19.0529 20.4701 21.8872 23.3044 24.7216 26.1387 27.5559 28.973 30.3902 31.8074 33.2245 34.6417 36.0588 37.476 38.8931 40.3103 
</DataArray>
<DataArray type="Float32" format="ascii">
0 0.524874 1.04975 1.57462 2.0995 2.62437 3.14924 3.67412 4.19899 4.72386 5.24874 5.77361 6.29849 6.82336 7.34823 7.87311 8.39798 8.92285 9.44773 9.9726 10.4975 11.0224 11.5472 12.0721 12.597 13.1218 13.6467 14.1716 14.6965 15.2213 15.7462 16.2711 16.796 
</DataArray>
</Coordinates>
<CellData>
<DataArray type="Float32" Name="Scalar" format="ascii">
0
0
0
0
0
0
0
0
0
0
0
0
0
0
0
0
0
0
0
0
0
0
0
0
0
0
0
0
0
0
0
0
0
0
0
0
0
0
0
0
0
0
0
0
0
0
0
0
0
0
0
0
0
0
0
0
0
0
0
0
0
0
0
0
0.17333
0.0317029
0
-0.34996
0.449832
-0.0188969
-0.733515
-0.524137
0.0694526
-0.893581
0
-0.373615
-0.216217
-0.0437355
-0.550735
-0.627174
0.0702356
0.191873
0
0.0210654
-0.187649
0
-0.46697
-0.52475
0.389701
-1.33803
0
-0.344063
-0.442736
0
-0.234252
-0.334508
-0.127926
-0.240748
0
-1.69224
0
0
-1.16102
-0.165713
-0.0451897
-2.08769
0
-1.00339
-2.59097
-0.320743
-0.382947
-0.0641631
-0.70456
-0.174299
0
-1.08002
-0.179217
0
-0.168074
-0.223385
-0.425392
-2.68292
0
-0.91236
-0.546465
0
-0.115017
-0.864289
-8.38431
-5.01741
-1.41987
-0.00844284
-3.83939
-1.84006
-6.77865
-2.507
-3.59193
-0.662218
-3.73736
-2.95744
-3.2518
-2.14364
-3.32373
-4.10976
-1.32011
-7.268
-3.49337
-1.9616
-1.69612
0
-5.23719
0
-5.47542
0
-1.69258
-2.62695
-0.105819
-8.01073
-2.19234
0
-0.0461342
-1.03685
-1.76272
-0.975312
-4.52414
-3.80354
-0.600244
0
-1.57752
-0.499612
-0.384218
-0.311796
0
-1.794
-2.94407
0
-5.59377
-2.37012
0
-1.8707
-0.998575
-2.58013
0
-8.10555
0
-5.43472
-4.75765
0
-7.89366
-1.93342
-5.30826
-4.96599
-1.46515
-4.31092
0
-5.37481
-3.10425
0
-6.20749
0
-2.78581
-5.65347
-3.10231
-3.10076
-0.542687
-0.755602
-1.13011
0
-5.04134
0
-0.623964
-0.714738
-2.82193
-6.71
0
-15.0863
0
-13.5264
0
0
-7.92096
-0.622654
-7.55616
-1.64275
-2.30172
0
-0.276503
-4.75271
-0.767721
-6.83734
0
-1.74918
0
-3.72812
0
-0.997339
0
-1.12681
-7.14136
-1.02242
-5.86112
-0.403308
-3.36632
-0.269373
0
-0.777184
-2.24151
-0.0501454
-1.93922
-0.832445
-4.69899
-3.95534
0
-7.08646
-1.77433
-4.33781
-4.67588
-0.876899
-6.20783
-0.724034
-2.50042
-3.75303
-0.603919
-0.715171
-2.06761
-5.69586
0
-1.3909
-9.40861
-3.83736
-2.65495
-1.79623
-2.13091
-6.91974
-0.386766
-4.21325
0
-2.78548
-0.341619
-3.94718
0
-3.40306
-1.46219
-0.323542
-5.93489
-1.15466
-2.50363
0
-1.23395
-1.13069
-0.359199
-0.765907
-1.92053
0
-3.31898
0
-3.83821
-4.49619
-5.58957
-0.49357
-4.3117
-2.21295
-1.62578
0
-0.0832574
-2.99626
-2.59556
-2.30055
-1.52819
-4.79936
-1.91044
0
0
-5.49875
-8.59409
0
-6.40613
0
-9.30277
0
-0.219793
-6.63924
-0.637345
-7.38279
-0.877834
-5.68714
-2.59601
-2.95171
0
-0.587768
-1.5687
-1.74261
0
-3.39417
0
0
0
0
0
-0.837811
-1.26359
-2.3256
-3.47342
-0.416745
0
-6.59873
-4.67758
-8.82813
-1.09029
-6.4932
0
-6.01965
-1.99561
0
0
0
0
-6.03719
-2.71499
0
-3.6433
-2.5838
-3.32708
-1.2313
-0.9264
-2.80543
0
-0.62105
-3.86745
0
-0.998942
-0.655811
-3.1057
-2.47258
-0.222969
-3.98532
-6.85341
-6.19533
-0.840098
-7.75022
-1.17596
-4.48442
0
-5.90966
-0.781211
-3.90385
0
0
-9.2736
-1.33463
-5.44099
-2.05643
-0.108116
0
-0.487338
-1.53848
-0.356416
-6.49269
-2.24938
-0.972617
-0.883459
-6.57444
-4.43619
-2.41755
-4.53714
-1.21388
0
-1.54364
-3.10322
-5.78802
-2.05891
-2.34976
0
-0.667388
-2.68459
-1.9169
0
-1.53405
0
0
-1.01372
0
-1.08712
-0.0978953
-1.53658
-0.26777
-0.880686
-1.69274
-0.234189
-5.13509
0
0
-4.48727
0
-6.70428
-0.916124
-1.26033
-0.0497344
-2.57203
-1.10959
-4.00259
-0.65742
-0.139796
-3.17533
-0.386626
-1.46723
0
-6.39313
-5.66098
-3.11152
-5.71653
-4.4332
-0.984874
-6.63302
-1.30316
-2.88801
-1.8562
-4.88616
-0.911945
-0.917567
-1.14305
-0.0685209
-3.11532
-1.94359
-0.271719
-3.73927
0
0
0
-1.17358
-6.27402
0
-3.26346
-1.03834
-0.42712
-1.73836
-1.24905
-1.28253
-2.53423
-4.00619
-2.83109
-7.86027
-2.82544
-5.01399
-1.33096
-0.927524
-5.80192
0
-3.25572
0
0
-5.95016
0
-2.92916
0
-0.0383059
0
-5.04922
0
-5.15729
0
-3.61221
-1.87693
-1.39604
0
-3.4432
-3.35275
-4.94952
-4.56518
-3.47094
-5.97963
0
-0.174164
0
-3.616
-1.66029
-1.85506
-1.49838
-4.76851
0
0
0
0
-1.13225
-2.44433
-0.96441
-1.84437
-4.59306
-1.39262
-4.39592
-6.08198
-1.97869
0
-4.03168
-2.7015
-0.337783
0
-5.28335
0
-1.64768
0
0
-5.29583
-3.43469
-0.0671733
-0.417672
-1.95674
0
-4.35814
0
-4.20661
-0.35675
0
0
-6.87672
0
-9.02132
0
-4.59191
-0.417453
-6.80795
0
-3.835
0
-1.8691
-3.07586
-6.11562
-1.76144
-3.82827
-4.24478
-0.928736
-1.59674
-1.00174
-1.80346
-1.6137
-0.247278
-0.162793
-0.253043
-7.06645
-0.40671
-5.61825
-1.61168
-3.45542
-2.67415
-6.42458
0
-0.25176
0
-8.45175
0
-8.1665
-0.674059
-4.14924
0
-2.37627
0
-9.93384
0
-0.0469618
-0.362851
0
-1.0384
-5.31945
-0.260725
-4.14607
0
-5.31351
-2.20627
-5.49131
0
-3.3294
0
0
-6.35449
-3.04349
0
-0.544569
-4.40106
0
-0.609907
-3.09651
-0.81322
-3.93838
-1.51755
-2.99726
0
-1.83242
-0.717088
-2.38016
-2.52804
-1.32387
-2.71125
0
-1.58912
-3.25416
0
-0.457408
0
-1.42846
-2.64647
-8.09719
-0.8665
0
-3.73726
-1.1068
-2.03193
-3.11334
0
0
-0.244928
-3.63847
0
-2.33075
0
-0.880817
-1.122
0
-2.52882
-2.29154
-2.31267
-0.282761
-3.20882
-7.16555
0
-1.6996
-4.16947
-1.5155
-5.11181
-2.09672
-3.04092
0
0
-0.44918
-2.61978
-0.684921
-0.957942
-2.49216
-0.327166
-2.96144
0
-2.86134
-0.409375
-0.713621
-1.72568
0
-3.29422
-0.55436
-1.57619
0
0
-3.18476
-5.75591
-1.20938
-2.65389
-0.805917
-5.31214
-0.99527
0
-10.0109
-0.649349
-5.97328
-1.26445
0
-2.73011
-0.301709
-2.24978
-4.48851
-6.07151
0
-5.60587
-1.71516
-2.35363
-3.99499
-1.55048
-4.4487
-0.211087
-3.09838
-3.25207
-0.160256
-3.0884
0
-6.63978
0
-2.57088
-4.20394
-5.03125
0
-0.327622
0
-2.78283
0
-4.87154
0
-0.547264
-1.01
0
-0.769614
-0.941068
0
-0.515148
-2.93454
0
-1.63311
-0.888401
-5.35441
0
-2.66309
0
-6.10333
-0.850407
-1.9034
0
-3.62612
-0.794507
0
-0.525861
-3.70907
0
-9.45321
-0.734447
-6.89105
-1.10475
0
-8.94963
-2.97648
-6.96114
-1.88181
-1.71771
0
-1.75069
0
-4.63436
0
-0.491736
-0.302495
-6.11341
-1.28592
0
-0.767935
-2.3295
0
-1.14536
-5.0157
-9.12916
-0.0373285
0
-4.78887
-2.5338
-7.3089
-0.637206
-0.589793
-1.79101
-0.60537
-2.13933
-4.106
-2.29747
-3.61149
-1.11537
-0.77216
-0.313766
-4.07062
-4.56617
-0.850488
-4.24243
-0.929505
-4.22324
0
-2.24165
-0.753047
-4.73753
0
-1.53675
-0.615645
0
-0.21428
-0.698617
-0.309711
-2.34782
0
-5.34637
-0.251216
-4.72268
-0.157504
-10.08
0
-0.354665
-1.03939
-2.70331
-6.04925
-2.84144
-9.40018
-0.695882
0
0
0
-7.07234
0
-1.20878
0
0
-6.52951
-0.361377
0
-0.988422
-0.694668
-0.917937
0
-3.36975
-3.61833
-1.52972
-4.09781
-0.415211
-1.16397
-1.80571
-0.840693
-1.08258
-3.90385
-0.734467
-1.76796
-0.805161
0
-2.25932
0
0
-7.09454
-2.51212
-4.56218
-3.79133
-1.63472
-2.63764
-2.19701
-0.95762
-7.04997
0
-2.55655
-3.3031
-2.84812
-3.05456
-0.0489889
-1.61413
-3.60542
-1.80557
-3.44778
-1.51846
-1.59836
-2.64115
-7.34768
-4.35909
-2.03507
-8.25149
-7.67167
-0.667255
-9.28107
0
-8.76173
-0.566963
-1.79393
0
-3.12399
0
-8.92276
0
-6.16115
0
-1.41551
0
-4.06068
0
0
-2.81734
0
-11.1429
0
-2.79578
-0.269822
-1.93797
-2.97455
-3.09955
0
-0.941406
-2.49141
0
-3.32934
-0.789187
-5.84435
0
-9.37
0
-3.93971
-1.33585
-5.28531
-1.35402
-2.0454
-2.68086
0
-1.57495
-2.78806
-0.77402
0
0
-0.908437
-3.06113
-0.347727
-1.07753
0
-2.41308
-1.26232
0
-0.555749
-11.0007
-1.41476
-10.4599
-6.31948
-2.75864
0
-0.991704
-0.080616
0
-4.73821
0
-1.54902
0
0
-5.78444
-1.97246
-7.17124
0
-7.14664
-0.466082
-0.395894
-2.73162
-5.75097
0
0
-4.86636
-1.66666
-0.723233
-0.450472
0
-6.66303
0
-6.37525
0
-2.65556
-2.58442
-0.586307
-5.60144
0
-0.810723
0
0
-2.07403
-0.154723
-5.26657
-4.70939
-1.57241
-7.81364
-3.74639
-2.78625
0
-1.76942
-5.17205
-5.37775
-0.400367
-3.86442
-0.357042
-4.69876
-0.0139467
-0.854949
-1.70657
-0.222236
-0.743267
-3.25096
-1.3129
-3.00139
-2.56797
0
-6.71854
-2.62978
-2.2628
-0.885767
-4.05737
-0.49604
-2.66555
0
0
0
0
0
0
0
0
0
0
0
0
0
0
0
0
0
0
0
0
0
0
0
0
0
0
0
0
0
0
0
0
0
0
0
0
0
0
0
0
0
0
0
0
0
0
0
0
0
0
0
0
0
0
0
0
0
0
0
0
0
0
0
0
-0.102092
-0.934318
0
-0.992892
-1.09371
0.120617
-1.79665
-0.829314
-0.203509
-1.65145
0
-2.19444
-1.18728
-0.0683449
-1.94538
-0.804482
-0.0263608
-1.24225
0
-0.635081
-1.31896
-0.099879
-0.762518
-1.14367
-0.643059
-0.969049
0
-1.9698
-1.43885
-0.00363972
-1.41887
-0.19809
-0.335724
-2.23485
0
-1.52916
-2.48748
0.0724267
-0.547763
-1.07021
-1.06732
-0.707077
0
-1.64764
-3.49009
0
-3.55003
-0.213228
-0.178492
-2.14518
0
-0.731911
-2.76142
0
-3.53093
-0.514703
-1.84796
-0.373541
-0.129087
-3.22277
-1.46997
0.00182114
-0.396698
-0.263318
-2.94881
0
-6.06232
-7.83403
-6.23775
0
-3.02533
0
-6.01194
0
-3.01241
-0.120544
-5.28064
0
-1.89222
-3.57829
-4.98834
-4.22748
-1.25612
-3.19245
-6.17998
0
-3.77486
0
-3.73589
-1.59612
-0.82435
0
-3.26776
0
-3.14231
-0.688432
-6.11559
0
-0.0222852
0
0
-1.87033
-1.71439
-2.47728
-2.8034
-4.37612
-1.81121
-6.98056
0
-1.37326
-2.21216
-9.93063
-0.406727
-1.07073
-0.811677
-1.8744
-0.129077
0
0
-1.30209
0
-1.09505
-0.534379
0
-1.86005
-1.42747
-0.838863
-0.880802
-0.380732
-6.55954
-3.89351
-0.726746
-3.1242
-4.14112
-3.49088
-2.57972
0
-0.771734
-1.32515
-0.0240949
-6.61079
-0.586271
0
0
-0.548194
-0.740378
-0.642419
-7.66328
0
-3.57823
-1.64619
-1.39293
0
0
-1.04644
-7.76871
0
0
-0.756855
-1.69852
-0.526101
-7.76124
-1.25778
-4.98754
0
0
0
-3.91787
-2.78609
-1.71
0
-0.14683
-7.79185
-0.592103
-2.38646
-0.986455
-2.54994
-3.65882
-2.99028
-4.28406
-1.77501
-1.59948
0
-1.92088
-2.18672
-0.503706
-0.996202
0
-3.55994
0
-0.812949
-1.26828
0
0
0
0
0
0
0
-13.3726
0
0
-7.9864
-0.328667
0
0
-0.0366045
-6.59718
-5.0334
-0.67066
-0.122868
-6.36782
-1.42868
-3.77195
-1.04195
-0.634641
-4.53655
-1.54497
-2.43216
-0.788355
0
-2.79532
-3.03251
-3.32726
-7.54532
-2.23162
0
-5.64374
0
-9.52506
0
-0.590018
0
0
-3.9494
-0.101259
0
0
-10.623
-0.282105
-5.17629
0
-3.14273
0
0
0
-3.01352
0
-5.74614
0
0
0
-1.73964
-2.85649
-0.04263
0
0
-0.0849417
-0.683134
-1.14393
-0.912035
-3.34006
-0.37691
-1.38133
-0.81842
-5.59985
0
-1.79254
0
-1.45909
-1.2174
-3.82499
0
-3.2157
0
-4.68293
-1.63819
-5.47802
-2.93827
-2.87594
-5.72441
0
0
0
0
-1.80462
-6.49468
-1.18304
-10.7333
-0.781624
-11.0332
-0.179805
-1.55177
-1.86028
-4.98075
-3.45144
-0.892751
-0.424654
-3.06304
0
-1.81986
0
-3.91551
-2.28964
-3.5284
-8.12879
0
-0.978257
-3.09895
-2.77103
-5.07122
0
0
-1.30497
-0.885065
0
0
-1.95045
-0.735774
0
-4.98398
0
-1.44015
-1.24253
0
0
-2.0321
-0.409189
0
-4.22815
0
-4.19661
-0.278835
-3.56198
0
-3.12724
0
-1.52067
0
0
-0.776255
0
-5.92177
0
0
-2.38331
-2.77151
-5.14342
-3.65633
-2.75944
-7.81982
0
-4.34252
-1.91537
-2.90092
-1.67206
-4.95288
0
-6.74712
-0.301002
-4.21414
-2.19192
-8.40741
-0.706381
-0.571398
-1.06807
0
-2.69026
-2.7435
-0.047202
-3.0714
0
-2.84581
-5.24726
-2.15161
-3.87724
-0.980276
-4.36016
-2.07533
-0.254667
-0.680571
0
-4.61696
0
0
0
0
-3.86505
-4.76664
-2.56419
-2.67683
0
-1.57559
0
-0.399117
-7.23749
-0.175087
-0.0986899
-1.90127
-3.67307
-3.09033
-1.98888
-1.75187
0
-6.72723
-1.34054
-1.47172
0
-3.11297
-0.197029
-3.26228
0
-1.53201
-0.956579
-4.87982
0
-2.43911
0
-0.728831
-0.0447481
0
-1.24955
-2.14896
-8.43321
-2.40491
-8.35057
0
-4.93799
-1.1524
-8.92765
0
-5.29196
-1.54213
-3.17804
-0.263949
-0.296392
-1.452
-1.03824
0
-1.34986
-5.04488
0
0
-0.902496
-0.665284
-0.361985
-0.662159
-0.673414
-5.11098
0
-1.62333
-3.00771
-1.94076
0
-3.45188
-1.65837
-5.45329
-1.16532
-5.19015
-1.07486
0
-1.07457
-3.06926
-1.34658
0
-0.646961
-1.87991
-9.43201
-3.74062
-8.61781
-3.13168
-1.52599
-2.86566
-2.84222
0
-9.23674
0
-4.75814
-1.65275
0
-1.87794
-5.16266
-0.899746
-2.28778
-0.795718
-1.2852
0
-1.00995
-5.50278
0
-1.81921
0
0
-6.48272
-1.88509
0
-2.16558
0
-3.64196
0
0
0
-0.624709
0
0
0
-5.12908
-5.15009
-2.24269
-1.66954
-2.34183
-2.22225
-1.33137
-0.582816
-2.84266
-2.1536
-3.01192
0
-1.10711
0
-0.982991
0
-2.74141
-0.768715
-0.0726324
-2.74671
0
-4.076
-0.12031
-3.39981
-2.50682
-3.56857
-0.902448
-3.26824
-2.56493
-1.63202
-1.71884
-1.0937
0
0
-3.1413
-0.943838
0
0
-3.10102
0
-3.45183
0
-9.20074
0
-0.619096
0
-6.13699
-0.3325
-7.03525
-8.96859
-1.49671
-5.92565
-0.506348
-1.33725
-5.14289
-2.81877
-3.22677
-2.1868
0
0
-4.86661
0
-5.17373
0
-2.40758
0
-6.90872
0
-4.79375
0
-2.40365
-0.0441337
-3.02718
0
-3.77397
-0.752203
-8.44633
-1.93125
-6.4299
-0.803911
-0.9588
0
-1.40775
-0.806698
-5.35193
-6.94881
-1.67515
0
-0.487919
-2.34125
0
-3.39573
0
-5.29741
0
-4.81696
-0.011555
-9.94393
0
-6.24123
-6.59353
-5.39946
0
-1.78415
0
-2.44078
0
-5.3239
0
-4.44963
-4.96472
-3.37888
-4.6611
-1.56428
-6.66946
-4.15369
-1.62696
-3.76574
-1.04462
-5.28836
-0.711703
0
-2.4808
0
-4.91589
0
-1.91604
-5.35312
0
-3.29742
0
-3.74066
-0.558485
-0.990631
-2.18707
-0.707482
0
-3.7151
-4.53954
-0.228877
0
-1.42656
0
-0.6026
-0.758597
-4.8629
-0.27921
-1.05759
0
-0.429448
-0.483941
-0.106541
-1.82428
-2.16719
-1.4832
-1.20474
-1.4564
-2.59408
0
-3.31453
0
-1.61906
-1.3677
-6.75056
-0.0938859
-6.29658
-6.24058
-2.53786
-2.53191
-5.87668
-0.282694
-2.75032
-3.1526
-1.33108
-2.75994
0
-8.15908
0
-2.26911
0
-1.94864
-0.280123
-4.03523
0
-4.50541
-0.691229
-2.78821
0
-0.571083
-7.95716
-0.449357
-6.42255
-1.46384
0
0
0
-0.234
-0.419191
-7.82208
-5.47216
-0.518978
-6.76014
0
-7.84629
0
-0.383785
-2.42378
0
-3.93491
0
-0.133374
-5.31823
-2.89371
-1.12502
-2.00058
-2.69994
-4.82638
0
0
-0.151251
-4.17649
-6.76115
0
-3.90873
0
0
-7.04321
0
-3.84636
-0.533487
0
-2.31147
0
0
0
-0.418762
-6.52807
-2.20798
-5.61162
-0.187305
-5.21695
-0.992292
-1.60825
0
-2.27002
-0.961878
-4.1358
0
-6.46605
-6.20006
-2.8415
-7.4901
-0.162774
0
-3.68845
-3.96401
-2.3085
-2.45371
0
-1.17111
-11.7594
0
-0.588166
-2.35853
-1.62895
0
-6.23443
-1.91838
-6.21927
0
0
-1.0914
-6.45025
0
-5.05874
-5.35227
-1.87091
0
-1.26818
-0.16515
-0.59383
-5.98113
-2.01051
-6.62072
0
-0.57597
-0.664591
-6.24525
-0.343456
-1.79264
-0.866079
-7.86668
-2.08182
-4.97748
-4.72955
-4.97992
-0.223873
0
-7.55084
0
-7.36745
-1.88749
0
-8.49874
-3.5112
-5.76517
0
-1.23762
-7.12681
0
0
-4.52359
-2.21466
-0.625725
-3.65782
-1.27478
0
-8.6876
0
0
-0.861244
-6.34984
0
-3.93842
-0.598833
-2.10125
-0.464598
-6.51078
-1.02813
-2.60099
0
0
-4.50961
0
-8.47036
0
-1.62404
0
-3.6898
0
-0.207489
0
-1.14485
-1.63515
-2.82064
-9.15309
0
0
-0.59369
-2.56781
0
-5.35361
-0.386441
-1.15191
-0.549395
-2.01357
0
-5.03134
-1.45037
0
-5.44899
-1.61038
-5.67381
0
-5.80127
0
-1.80887
0
-5.07827
-0.423985
-6.34031
-1.90227
-0.306363
-5.55521
0
-4.16241
-0.785227
-4.44348
-1.61262
-1.94839
0
-1.0632
-1.25915
-3.79331
-1.68019
-3.65965
0
-0.796218
-1.87514
-7.81828
-5.86392
0
-7.00094
-0.0589301
-0.92966
0
0
0
-4.22641
-4.21219
-1.13477
-0.670569
-4.24197
-2.02145
0
-2.23914
-2.92017
-5.78011
-3.81751
-5.08364
0
0
-1.65942
0
0
0
-0.151764
0
-6.57549
-1.4565
-3.34673
0
0
-2.63741
-6.54785
-1.73863
-1.08924
-0.896212
-7.45996
-1.14098
-0.907726
0
0
-9.59818
-0.833212
-0.989908
0
-1.74649
-4.71404
-2.64534
-4.63099
-3.96662
-0.540752
-1.65816
0
-2.31982
-3.8632
0
-2.15557
-6.91836
-6.31785
-3.86654
-2.89803
-3.54152
0
0
0
0
0
0
0
0
0
0
0
0
0
0
0
0
0
0
0
0
0
0
0
0
0
0
0
0
0
0
0
0
0
0
0
0
0
0
0
0
0
0
0
0
0
0
0
0
0
0
0
0
0
0
0
0
0
0
0
0
0
0
0
0
-0.0468106
0
0
-0.0135729
-0.305961
0
-0.249763
0
0
-0.105495
0
-0.193239
-0.54616
0
-0.184916
0
-0.304829
-0.0180421
0
0
0
0
-0.824373
0
0
0
0
-0.118526
-0.430785
0
-0.0648502
0
0
0
0
0
0
0
0
0
0
0
0
0
0
0
0
0
0
0
0
0
0
0
0
0
0
0
0
-0.11054
0
0
0
0
-2.69794
-3.7787
0
-0.293996
-0.108188
0
-7.59358
0
-4.87946
-2.48036
-7.84355
0
0
-3.34491
-1.08989
-3.21721
-0.841197
-2.27568
0
0
-0.386849
0
-3.77846
-0.150658
-1.64886
0
-3.09716
-3.59267
-4.22653
-2.52018
0
-4.80168
-2.959
0
-7.9028
-3.08937
-2.2081
0
-0.0763603
0
-1.4974
0
0
-1.35362
-0.021017
-5.25404
-0.554434
-5.10292
0
-2.94925
0
0
-1.75557
-1.62949
-1.51501
-2.34142
-1.69006
-1.90293
-7.27912
-2.09394
0
-5.99348
-0.167206
0
-3.91787
0
0
-0.713569
-0.728071
0
-1.68006
-3.80457
-3.68715
-2.7719
-2.7996
-0.745163
-3.41679
-5.24293
-3.06623
-4.20171
-0.875422
-5.18678
-1.14356
-3.00998
-2.50147
-0.166034
-2.81954
0
-4.29011
-5.74813
-5.8778
-1.08014
-2.39388
-2.09219
-1.56407
-2.73068
-5.3251
-1.74284
-4.31271
-0.697642
-3.689
0
0
-1.81005
-0.183733
-5.59287
-3.90144
-3.98562
0
-0.544841
-8.2984
0
-4.92591
-0.156581
-1.79227
-0.400045
-1.35105
-7.63128
-1.46441
-8.32991
-0.779923
-3.42064
-4.83008
0
-3.42375
0
-6.92453
-0.630869
0
-7.46738
-1.8144
-6.66566
-1.28451
-7.23948
-0.996189
0
-5.37804
-5.1305
-1.65262
0
-4.59558
0
-1.2757
0
-8.2401
0
-1.61405
0
-3.17908
-1.81534
-0.203478
-3.69071
-0.418067
-5.36807
0
-6.49571
-1.57423
-0.312567
-2.96617
-6.43837
0
-1.87037
-3.75511
0
0
-2.8028
0
-6.28439
0
-4.76589
0
-0.425506
-5.2062
0
-0.264618
-0.626692
0
-0.301933
-2.17848
-4.76176
-5.1851
-1.8356
-3.7258
0
-1.71853
-5.48366
-6.2717
-4.44367
-6.25057
-2.42395
-4.85383
-7.59359
-0.536748
-1.74544
-3.75259
-2.17318
-0.489981
-1.55892
0
-2.72291
-0.126121
0
0
-8.12416
-0.172115
-3.07057
-1.09148
-0.637973
-1.63
0
-5.63971
-1.21985
-1.94882
-3.31195
-8.11504
-0.563623
-1.89795
0
-5.80146
-1.95758
-4.63174
-1.66315
-1.26255
-3.03672
0
-3.42891
0
-1.55557
-4.53644
0
-0.488352
-2.07294
-0.456758
-3.16391
-4.53603
-0.194461
-3.6206
-3.89957
-2.04794
-2.28505
-0.0821295
-0.479893
-2.68578
-2.12903
0
-1.35732
-2.57088
0
-5.29393
-3.28101
-1.9773
-2.97409
-1.88852
-4.26296
-0.646581
-2.68376
0
-1.93553
-0.631684
-4.65104
-0.80965
-6.32739
-1.36748
-1.85293
0
-0.369781
-1.37481
-1.1486
0
-5.30987
0
-2.23422
0
0
-4.70316
-1.71735
-4.82261
-4.30367
0
-0.286357
-3.8222
-2.14999
0
-5.58537
-2.59259
-3.61464
-0.251923
-0.322323
-4.48423
0
-1.18598
-1.54778
0
-1.89233
-0.196091
0
-0.415796
-1.99466
-1.43915
0
-5.12469
0
-1.64668
-7.80714
-0.582225
-4.8726
-2.0152
-6.93293
-0.687208
-0.803416
0
-1.0397
-2.46616
-1.19757
0
-3.51065
-7.55482
-1.15779
-0.020372
-1.82944
-1.4837
-5.2219
-2.88166
0
-1.46383
-4.75695
-2.79417
-6.42351
-0.0679462
-6.96491
0
0
-7.12233
-0.122216
-5.5701
-1.1146
0
-0.659169
-0.246123
-1.2512
-2.85998
-0.835544
-2.49099
-0.0413366
-0.534976
-2.08709
-4.27026
-4.46794
-3.343
-1.44766
0
-0.0826229
-3.09727
-2.20203
-6.91723
0
-5.32226
0
0
-0.0567358
-2.19126
-0.283243
-0.279758
0
-4.03891
-1.10324
0
-2.8182
0
0
-4.92024
0
-3.75488
0
-4.44964
-5.06131
0
-0.87623
-3.71991
-0.474765
-4.57799
-0.228633
-7.5299
-3.23314
-1.56661
0
-3.14821
0
-4.09365
-0.180351
0
-0.391953
0
0
-5.17566
0
-4.29605
-1.66143
0
-2.34363
-5.63313
-3.64786
-4.49447
-2.36144
0
-4.25672
0
0
-0.95618
-0.497314
-5.61581
0
-0.764575
0
0
0
-2.33825
0
0
-0.986634
-0.901451
-2.39287
-1.73881
-2.19239
0
-2.8034
-0.70682
-2.23227
-4.86924
-0.874052
-0.172177
-5.96408
-0.635039
0
-0.860643
0
-4.97083
0
-3.80428
-2.44301
-0.533291
-2.91023
0
-0.884263
0
-6.35371
-1.27027
-1.79725
-2.24519
-0.941454
0
-2.92618
-1.33245
-1.86135
-2.31461
-4.89288
-0.565615
-3.2552
0
-1.7008
0
-5.13104
0
-2.12486
0
-2.23371
-0.292309
0
-1.72323
-0.811103
0
-0.433571
-7.08297
-0.0747087
-7.05016
-0.3734
-3.7605
0
-5.22862
-1.7709
-1.65131
-2.00597
-1.75482
-0.625135
0
0
-5.33221
-1.20879
-1.22247
0
0
0
-0.968902
-1.54755
-0.383013
-4.15888
0
-0.278279
-3.465
-2.03575
-4.55719
-1.30015
-4.3292
-1.75983
-0.963647
-1.70931
-2.90277
-1.89911
-0.863777
0
-4.50632
-2.73014
-6.45019
-0.395269
-1.58489
-6.0961
-0.80369
-0.583164
-1.22008
-0.720805
-1.22229
-4.44823
-5.36503
-2.25801
-1.51463
-3.89378
-4.01808
-0.535451
0
-4.17935
-1.04296
-1.58188
0
-2.72039
-1.44745
-2.47494
-0.196991
-0.331443
0
-0.0303956
-2.59999
0
-3.12229
-0.179093
-7.02596
-7.34964
0
-2.91013
-1.55808
-8.43075
0
-2.36912
0
-0.394364
-2.2695
0
-4.07694
-1.05215
0
-0.368165
-0.886092
-4.62032
-2.45192
-3.40272
-4.72427
-0.0490744
-3.77268
-3.63996
-3.0921
-0.162212
0
-5.42666
0
-4.48373
-4.85327
0
0
-4.41582
-7.31455
0
-1.94037
-5.5028
-1.6151
-5.41941
-1.83834
-8.14885
-2.28424
-0.394138
-0.843532
-2.67596
-1.39657
-7.27542
-1.02771
-3.49318
-1.25964
-0.255441
-0.205608
0
-2.89118
0
-2.64612
-3.24804
-1.58161
-5.95276
-2.26564
-0.120097
-3.18381
0
0
0
-1.68719
-0.0153027
-1.08923
-3.39107
0
0
-4.03865
0
-2.77015
0
-5.27139
0
-5.7713
-0.726475
-2.39095
0
-3.1366
-0.929664
-0.761769
-7.38602
-2.50232
-0.441816
0
-0.0877423
-2.3052
-3.36806
-1.18875
-2.36241
-4.00276
-4.1816
-5.23392
0
-1.70251
-2.21207
0
-2.10451
-7.38056
-10.6067
-5.13029
-2.89526
-0.749258
0
-3.78857
0
-1.15228
-1.19295
-0.154039
-6.11826
0
-5.41587
0
-0.404385
-1.79761
-3.45929
-1.34194
0
-3.51189
-5.00459
-1.62011
-3.80958
0
-0.165972
0
-1.87629
-10.9686
-6.39028
-6.23252
-0.64054
0
-1.63869
0
0
-0.753445
-0.406722
-6.48568
-1.92683
-5.94902
0
-7.48029
-0.0585919
-0.602108
-0.379073
-5.76687
0
-3.64121
-1.57468
-4.64335
-6.31772
-3.03572
-2.61589
0
-1.3418
0
-5.36309
-1.87594
-3.7751
-0.325106
-2.87827
0
-3.16184
-0.368255
-0.974104
-0.0813734
-3.80554
-0.376876
-3.39523
-2.84258
-0.189489
-0.306494
-6.00846
-1.25024
-4.87476
-2.56907
0
0
0
-0.682589
-5.00955
0
-3.31422
-0.88756
-4.71978
-2.49773
-0.644013
-1.86457
-0.103232
-1.98303
-2.01552
-1.35512
-6.60312
0
-5.36198
-1.11249
-5.13684
-0.132962
-0.353715
0
-4.42808
-5.95722
-5.89805
0
-0.540288
-4.34357
-0.939583
-1.34446
-0.429007
0
-0.786311
-2.0072
0
-0.17476
-3.35078
0
-6.84533
0
-0.172885
-2.27942
-4.00881
-0.254408
-1.21432
0
-1.41905
0
-3.40155
-3.36335
-2.21176
-5.45157
-0.503285
-5.8457
-0.657892
-7.01741
-2.50223
-2.9593
-4.81462
-1.89715
-2.60353
0
-0.176422
-3.51335
-5.20621
-1.54123
0
-7.41394
-1.7958
0
-7.2523
0
-5.61288
-0.934392
-3.51427
-0.417062
-8.53342
-0.260418
-1.62867
-5.95014
-0.61204
-1.86529
-1.45393
-0.691636
-2.27317
0
-1.51704
-2.40852
-4.0405
-7.45024
-2.8124
-2.7309
-0.554785
0
-1.05292
-2.76919
-7.42471
-4.76675
-1.0292
-5.82513
-1.74715
0
-3.14915
0
-9.4421
-0.907796
-1.15629
-0.595853
0
0
-1.54911
-1.25163
-1.57897
-1.86616
-3.67379
-2.89454
-0.562366
-5.95771
0
-0.285554
-2.04519
-7.40783
-0.846254
-6.15065
-1.5586
-7.54014
-0.378027
-8.02787
-2.01655
-5.37264
-6.58685
-2.92293
-6.31064
-8.13135
-0.752759
-0.0322706
-1.82041
-0.177644
0
-2.13843
-1.23426
-2.91344
-1.08112
-5.41102
-3.11189
-3.01212
-3.89893
-0.992317
-5.38091
-0.251368
-5.18632
-2.12195
-3.68482
-5.73686
0
-0.444083
-0.733249
-2.2998
0
-5.94964
-4.02366
-8.43271
-2.19096
-6.28997
-2.21795
-2.91783
0
0
-3.83106
-0.996246
-3.61398
0
0
0
0
0
0
0
0
0
0
0
0
0
0
0
0
0
0
0
0
0
0
0
0
0
0
0
0
0
0
0
0
0
0
0
0
0
0
0
0
0
0
0
0
0
0
0
0
0
0
0
0
0
0
0
0
0
0
0
0
0
0
0
0
-0.685363
-1.38982
0
-0.658949
-1.56294
-0.0965003
-1.84465
-1.23885
0.314213
-1.32097
-0.0290766
-0.891105
-1.43519
-0.205021
-1.90282
-0.676781
-0.709305
-1.84661
-0.0955478
-0.941635
-1.70432
0
-0.993675
-0.678583
-1.01758
-1.16859
-0.244576
-2.03988
-1.51358
0
-1.33973
-1.24592
-0.511942
-0.246909
0
-2.49776
-0.370254
0
-1.38617
-0.187857
-0.112054
-0.931889
0
-0.817669
-2.18767
0
-0.0327208
-0.540799
-0.566958
-0.366205
0
-2.00297
0.000682754
0
-0.899186
-0.342227
0
-3.6023
0
-1.41455
-2.59139
0
-0.695219
-1.04812
0
-10.66
-0.651703
-4.45037
-5.41569
-3.97765
-0.378488
-1.30662
-7.63611
-0.0160392
-0.298124
-3.70444
-4.08374
-0.608223
-4.12837
-4.03517
-0.599626
-6.76059
-2.21968
-2.5493
-4.0592
-1.90413
-0.00314858
0
-2.39441
0
-2.83747
-1.14772
0
-1.27035
-3.11536
-2.70324
-0.0865491
-0.450957
0
-1.93133
-0.0541976
-1.34162
-3.6145
-0.291367
-2.03909
-2.39792
-0.303177
-6.83757
-1.29522
-2.97513
-0.85348
-3.1612
-0.353375
-4.01985
0
-0.932427
-1.64322
-0.739897
-4.51473
0
-4.51873
-0.169619
0
-2.77244
-9.29594
0
-0.112791
-4.25341
-0.228882
-3.89075
-1.24866
-1.81673
-7.61618
0
-8.71743
0
-5.63245
-0.761952
-0.00966145
-3.34508
0
0
-1.21911
-0.329878
-2.19507
-3.35927
-2.86833
-2.65283
-0.868996
-3.98752
-0.755497
-5.02687
0
-2.269
-0.194282
-3.23068
0
-3.92302
-0.760363
-4.33334
-0.166458
-6.08499
-0.161486
-0.927905
0
0
-4.63972
-4.60618
-2.0309
-3.23661
0
-2.78927
0
-5.20292
-1.4061
0
-1.05019
-3.38378
-3.32989
-4.20657
-0.340045
-1.53812
-5.25648
0
-7.40217
0
-1.53681
0
-2.43202
-5.34246
0
0
0
0
-1.27853
0
-1.51994
0
-3.25516
0
-0.251966
0
-2.83087
-2.22021
0
0
-4.2352
-0.998225
-3.1533
-2.91354
-7.22333
-2.78367
-3.46908
-1.9531
-5.45268
-6.2417
-2.37861
0
-4.23232
0
-0.0400809
-7.66213
0
-1.14584
-8.19564
0
-7.1358
-2.1771
-3.16673
-8.8509
-1.37449
0
0
-0.701941
-0.872706
-1.79464
0
-6.79484
0
-2.37011
0
-3.82473
-3.52665
-0.160722
0
-15.761
-0.64545
-0.070651
-3.15961
-1.81038
0
-1.55613
-0.878871
-1.96914
-1.59282
0
-1.25381
-5.93783
-0.200063
-0.110396
-1.02032
-1.15468
-0.482785
-2.00466
-1.18639
-6.88794
-3.01363
-0.764815
0
-0.333061
-7.59794
-1.58533
-4.37551
-1.93283
-2.32392
0
-8.38856
0
-0.674681
-0.192206
-5.37076
0
0
-0.025235
0
0
0
-1.84998
-1.56556
-1.32758
0
-2.24725
0
-4.68139
0
-7.92827
-3.14249
-0.985447
-0.831623
0
-3.41472
0
-1.02107
-4.24145
-2.955
-3.9235
0
0
-3.91793
-2.67044
-0.822066
0
-1.47763
0
-3.78673
0
0
-1.9633
-2.07248
0
0
-3.97124
-1.47286
-4.43134
0
0
0
-0.881266
0
-1.44953
-2.0344
-2.20496
-1.2601
-0.203148
0
-0.792415
-3.72516
-0.67145
-2.6318
-0.332882
-0.0770493
0
-2.23865
-1.55418
-2.67557
-3.98951
-1.55564
-2.19805
-0.855938
-1.8603
-0.86281
-3.95139
-1.5629
-5.85356
0
-3.49421
-3.28998
-2.11217
-4.28635
-6.90727
-2.6311
-4.44773
0
-0.878247
0
0
-3.45
0
-2.94011
-2.38653
0
0
-4.57575
-1.99187
-4.7282
-2.62349
-0.764601
-5.41827
-0.194292
0
-0.323942
-1.95815
-9.16175
-4.09505
-2.1656
0
-2.46441
0
-6.86914
0
-0.967969
-0.254182
0
0
-0.868322
-2.19293
-7.03834
0
0
0
-1.49938
0
-3.44877
-0.345189
0
-0.367866
-0.264117
-2.67765
-1.34048
-2.57752
0
0
-4.10254
-2.5638
-2.29625
-5.39708
-3.91628
0
-2.63708
-0.568414
0
-4.3759
-6.33839
-1.83195
-3.68906
-2.79661
-5.40974
0
-2.06319
-4.1921
-3.63731
-1.27121
-4.16954
-2.18544
0
-0.0757894
-1.49975
-0.708298
-0.433778
0
-6.7182
0
-1.32627
-6.32696
-1.36694
-2.4278
-0.34689
0
-0.404588
-4.58481
0
-3.95652
0
-1.37488
-1.63548
-3.97804
-1.15648
-0.883597
-1.27907
0
0
-0.671071
-3.35641
0
0
-0.0156637
-1.55542
-3.56937
-3.6037
-4.45041
-2.98838
-4.6885
-6.05149
-1.16311
-0.372539
0
-3.51543
0
-3.21895
0
0
-9.24541
-2.49196
-2.05586
0
-4.18927
-0.489019
-4.59253
0
-3.92202
-1.10365
-5.64422
-0.480195
-1.3397
-0.0981264
0
-1.80119
-5.78002
-3.31555
-0.406436
0
-2.48254
-2.96368
0
0
-0.420641
0
-2.38146
0
-1.95913
0
-4.87108
-2.44608
-1.13729
-0.557596
-5.59395
-0.621615
-6.81239
-0.263245
0
-4.35523
-0.695858
-3.35023
-5.30077
-1.08841
0
-4.23631
0
-2.67598
-3.34962
-5.80239
-1.73888
-8.04306
-7.42249
-3.56207
-6.04421
0
-3.55673
0
0
-3.0969
-0.583422
-2.32275
0
0
-5.57481
-0.961046
-0.357597
-1.69728
-2.97639
-1.38511
-2.26075
-2.28483
-4.55406
-4.96679
0
0
-4.63289
-6.89636
-3.08419
-10.0365
0
-3.06922
-2.62006
-0.723972
0
-3.3446
-0.00189864
0
-4.18649
-0.408626
-2.98275
-3.82525
-1.14857
0
-2.67453
-1.8251
0
0
-11.7996
0
0
-2.66708
-0.556245
-4.19303
0
0
-0.778706
-3.99202
0
-0.756587
-5.75181
-2.30531
-0.908013
-0.0419541
-5.85932
-2.41749
-2.61709
0
-0.703888
-4.41992
-3.15033
-6.27514
-0.399415
-2.80242
-0.556332
-3.82332
-0.453395
-4.12315
-0.46389
-3.33536
0
0
0
-4.36492
-0.360358
-2.49556
-4.52826
0
-8.53391
0
-3.15187
-3.0046
-2.82481
-2.56554
0
-0.650793
-0.641053
-0.797294
-9.10538
-1.84284
-1.04643
-2.30512
-0.463121
-1.45253
-4.00751
0
-2.31223
-3.78167
-4.98312
-5.36051
-1.64915
-2.04601
-4.4099
-5.81877
0
-8.04921
-4.58896
-0.798865
-1.15478
-1.13797
-0.377736
-1.02176
-1.26819
-0.903814
-0.974952
-4.26474
-0.296798
-1.63551
0
-2.89375
0
-3.97937
0
-4.41149
-0.09741
-2.82674
-1.52505
-2.45165
-3.53487
-3.61426
-1.85768
-4.99503
-1.94756
-1.55718
-3.28971
0
-3.06424
0
0
-0.0256772
0
-4.4175
-2.25205
-4.76597
0
-4.5275
-0.213036
-1.32439
-0.791832
-4.71407
-4.40793
-3.47145
-0.516461
0
-2.02154
-0.42781
-5.09336
0
-1.94688
0
-8.77362
0
0
-1.3554
-1.88519
0
-3.35071
0
-7.43859
0
-0.269288
0
-2.12471
0
-7.86237
-1.55484
-0.97762
-1.3176
-1.98026
-0.0942175
-4.70138
0
0
-0.81075
-0.733176
-4.05349
0
-0.394497
-6.56541
0
-2.34884
-0.636833
-3.18496
-1.08176
-2.77288
-0.455977
-9.42606
-0.0355348
0
0
-1.99861
-1.83748
-5.1965
-0.432795
-2.52766
-4.84999
0
-2.92769
-2.31966
-1.22287
0
-0.92005
-0.08345
-3.88819
-0.923189
-0.61739
-7.42573
-3.08651
-9.18055
0
-5.67432
-1.00443
-0.396244
-2.06574
-1.3336
0
-0.30546
-7.18844
-0.0425599
-0.632452
0
-9.03259
-2.91983
-3.87583
-0.167314
-2.14115
-6.04402
-0.0913076
-10.4382
-6.65694
-1.9768
-1.13742
-0.137715
-2.01953
-0.500559
-4.40068
-0.0228583
0
-7.04779
0
0
-0.910328
-2.48902
-1.25433
-2.2755
-7.4985
-2.51118
-7.39694
-1.11156
-1.99884
-0.0105674
-0.612824
-2.89148
-0.0721607
0
-0.477435
-0.667762
-7.06018
0
-1.11218
-1.74799
-2.81882
0
-5.69367
-1.76246
-0.188591
-1.06133
-2.63521
-3.83412
-2.00924
-3.14593
-2.56331
-4.10056
-5.7475
0
-6.18242
0
0
-4.7904
-0.324099
-0.821243
-0.372446
-5.30647
-0.708206
-2.17472
-0.121483
-0.242175
-2.00973
-2.20801
-4.33279
-2.60505
-3.39175
0
0
0
-5.7358
0
-0.281081
-2.55745
0
-3.44991
-1.45512
0
-2.69344
-1.40656
0
0
-3.5006
-0.706496
-6.78431
-0.618683
-2.96427
-1.98509
-2.66038
-0.558583
-1.5959
-4.24627
-5.06596
-0.259154
-0.12608
-0.150671
-2.72079
-0.359757
-2.87283
0
-4.39769
0
0
0
-5.49526
-5.08566
-5.10595
-2.47217
-1.46531
0
-0.614556
-0.035047
0
0
-11.9298
-3.67098
-10.7357
0
0
-6.00283
0
0
-6.5232
-1.49914
-1.35162
-0.215563
0
-3.11725
0
0
-0.579109
0
-4.12876
-2.09648
-0.0269312
-0.901878
-2.67816
-1.5257
-0.208887
0
-2.13574
-4.17164
-1.55562
-0.0220845
0
0
0
-1.68445
-0.961513
-4.18382
-0.0752095
-6.43707
-1.19268
0
-4.28254
-2.71406
-0.37143
-3.03184
-2.27867
-3.87908
-0.847946
-5.35912
-2.37874