<?xml version="1.0"?>
<VTKFile type="RectilinearGrid">
<RectilinearGrid WholeExtent="0 32 0 32 0 32" Origin="0 0 0" Spacing="1 1 1">
<Piece Extent="0 32 0 32 0 32">
<PointData>
</PointData>
<Coordinates>
<DataArray type="Float32" format="ascii">
0 0.524874 1.04975 1.57462 2.0995 2.62437 3.14924 3.67412 4.19899 4.72386 5.24874 5.77361 6.29849 6.82336 7.34823 7.87311 8.39798 8.92285 9.44773 9.9726 10.4975 11.0224 11.5472 12.0721 12.597 13.1218 13.6467 14.1716 14.6965 15.2213 15.7462 16.2711 16.796 
</DataArray>
<DataArray type="Float32" format="ascii">
-5.03879 -3.62163 -2.20447 -0.787311 0.629849 2.04701 3.46417 4.88133 6.29849 7.71565 9.1328 10.55 11.9671 13.3843 14.8014 16.2186 17.6358 19.0529 20.4701 21.8872 23.3044 24.7216 26.1387 27.5559 28.973 30.3902 31.8074 33.2245 34.6417 36.0588 37.476 38.8931 40.3103 
</DataArray>
<DataArray type="Float32" format="ascii">
0 0.524874 1.04975 1.57462 2.0995 2.62437 3.14924 3.67412 4.19899 4.72386 5.24874 5.77361 6.29849 6.82336 7.34823 7.87311 8.39798 8.92285 9.44773 9.9726 10.4975 11.0224 11.5472 12.0721 12.597 13.1218 13.6467 14.1716 14.6965 15.2213 15.7462 16.2711 16.796 
</DataArray>
</Coordinates>
<CellData>
<DataArray type="Float32" Name="Scalar" format="ascii">
0
0
0
0
0
0
0
0
0
0
0
0
0
0
0
0
0
0
0
0
0
0
0
0
0
0
0
0
0
0
0
0
0
0
0
0
0
0
0
0
0
0
0
0
0
0
0
0
0
0
0
0
0
0
0
0
0
0
0
0
0
0
0
0
0.371871
-0.702607
0
-0.676771
-0.7822
0
-1.09984
-0.244213
0.279739
-0.650781
0
0.441534
-0.966411
0
-0.243885
-0.715128
-0.107009
-0.97194
0
0.0748558
-0.902315
0
-1.04792
-0.44645
0.474912
-0.507341
0
-0.450678
-0.400508
-0.00471485
-0.408034
-0.181845
-0.0922015
-0.608243
0.0154022
-0.933772
-2.31074
0
-2.21528
-0.284935
-4.06419
-2.80606
-1.42789
-2.91704
-1.62366
0
-2.2789
-0.0935878
-0.536414
-0.33498
0
-1.35481
0
0
-0.938544
-0.94876
-0.301437
-0.316771
0
-0.16462
-1.45825
0
0
-1.12178
-0.0978926
-3.72196
-1.72776
-0.989947
-12.3937
-1.0857
-1.29481
-4.43732
-3.75303
-9.27135
-0.419188
-4.68499
-1.9238
0
-5.50888
-0.612408
0
-4.40306
-0.277608
0
-2.51133
-0.626332
-2.92164
-2.94745
-1.25327
-13.2987
-0.67413
-5.53336
-2.53021
0
0
-1.61643
-0.849657
-4.50898
-3.0933
-4.92342
-1.48044
-0.715755
-2.38395
0
-1.13934
0
-3.63591
-1.74997
-2.25613
0
-1.06387
0
-0.11658
-0.964283
-2.88977
-4.45664
0
-0.939578
0
-11.2336
-1.80666
-3.70169
-1.01898
0
-1.44334
0
-1.14029
0
-3.15311
0
-3.18154
0
0
0
-1.1464
0
-2.58521
-0.997749
-3.8773
-1.76469
-4.79448
-1.53139
0
0
-6.0267
0
-4.85022
-0.6536
-1.85966
-1.52694
0
-3.7888
-0.906534
-0.338032
0
-2.80183
-2.9724
-1.50516
-1.5709
0
-0.611751
-3.5857
-5.07779
-0.118114
-5.76034
0
0
0
-1.48851
-1.33726
-5.69464
-1.14895
-2.34471
-3.35122
-4.74735
-2.12316
-1.96796
0
-2.12001
-2.57093
-0.959755
-3.7148
-1.30724
-3.1161
-0.922666
-5.15587
-2.01675
-3.21974
-4.31981
0
0
-0.61175
-0.134748
-0.665151
0
-0.932065
0
-2.07421
-1.0215
-0.221519
-1.16768
-1.11053
-2.2461
-0.341227
-0.660991
0
0
-5.80001
0
-5.05625
-1.51051
-1.34909
-0.949895
-1.96174
-0.914997
-1.35082
-1.53462
-0.847139
-0.97068
0
-6.1462
0
-0.257219
-3.10643
-3.61102
-1.17679
-1.96522
0
-3.72481
-0.511593
-4.22906
0
-1.17845
0
-2.27349
-1.14722
-2.41775
-0.504929
-3.44239
-2.19481
-0.425154
-5.21127
0
-2.00499
0
-4.58572
-0.633644
-4.25124
-1.21468
-1.79596
-2.19036
0
-1.73124
-1.67328
-2.16205
-0.528934
-3.06652
0
-4.26164
0
-2.11172
-0.596219
-1.20531
0
0
-0.107807
-1.1507
0
0
-6.17324
0
-5.4154
0
0
0
0
0
-5.61532
-1.10703
-2.78854
-0.748194
-3.20276
-2.737
-5.67238
-7.76304
0
-1.8332
-2.34961
0
-4.20936
-0.380907
-0.654288
-1.4389
-3.76095
-3.96992
-0.570209
-0.424098
-3.87062
0
-6.09157
-2.14747
-4.01476
-0.926402
-3.7012
0
0
-2.27824
-1.42773
-1.84729
0
-4.64401
0
-5.77945
0
-7.40245
-0.390681
0
-3.53793
0
-1.12026
-3.40476
-0.973579
-5.18715
0
-2.17035
-3.06073
-0.636866
-5.46163
0
-4.74884
0
-2.88231
-1.45577
-0.626134
-2.21055
0
0
0
-0.806008
-2.46651
0
-1.305
-0.303806
-5.96707
-1.5285
-7.8469
-0.178878
-7.05074
0
0
-0.826307
-8.54944
-3.25786
-0.0925984
-2.87942
-2.19441
-1.62965
-0.0626725
-0.432582
0
0
0
-1.04434
-4.80713
-3.0762
-5.94822
-5.09142
-0.0740709
-0.994513
0
-2.20429
0
-7.02664
-0.164862
-8.89204
0
-5.41348
0
-4.53294
0
-10.3751
-1.45853
0
-4.97702
-1.78009
-3.11308
-4.21473
0
-5.58649
0
-0.259604
0
-3.05891
-3.98197
-0.943595
-2.92266
-4.34258
0
-4.68169
0
-1.85851
-1.55621
-2.18053
-1.21759
-4.54493
0
-6.00269
0
0
-9.31832
0
0
-1.36066
0
0
-1.22906
-4.16056
-2.98481
-0.935719
-1.63652
0
-5.63784
0
-1.61552
-1.92837
0
-2.58033
-2.63887
-2.64291
-6.04563
-0.126477
-3.3088
-0.0968014
0
-3.15783
-1.14009
-2.36362
-0.760098
-4.77772
0
0
0
0
0
-3.30461
-3.36314
-0.261791
0
-1.46748
0
-1.88864
-2.43876
-4.50152
-3.49043
-2.35926
-1.50358
-2.29144
-4.14874
-6.43596
-2.54833
0
-4.74271
0
-4.51243
-0.0267019
-1.08758
-0.34778
0
-3.17505
-2.42342
0
-0.844065
-6.32033
-0.469793
-2.60671
-2.51843
-1.16401
-1.76789
-2.88268
-1.13801
0
-3.16807
-0.671595
-1.11446
-2.89997
-2.26127
0
-0.206758
-9.58451
0
-2.5634
0
-0.394192
-3.13115
-1.36764
0
0
-7.01299
-6.98937
-7.65705
-1.54273
-1.92725
-1.60166
-2.05646
0
-1.82275
-1.67656
-5.53054
-0.695172
-3.52137
0
-9.02449
-1.4172
-0.747513
-6.82377
-0.720423
-2.34622
0
-0.196999
-3.76288
-1.99889
-12.4244
0
-2.89076
0
-4.77264
-0.184242
0
-0.830577
-5.44766
-0.801318
-2.06629
-0.198664
0
-5.44542
0
-3.77676
-0.608593
-5.46762
-0.0880093
-4.50728
0
-4.44056
-5.07002
0
-7.38704
0
-4.25028
0
-2.39839
-8.77646
0
0
0
0
-2.60351
-5.38868
-5.0614
-2.72271
-2.69555
-0.888239
-0.610733
-3.92121
0
-2.82439
0
-0.839582
-1.56443
0
-0.609567
-2.66097
0
-4.40761
-2.35798
-3.41659
-0.85583
-0.815192
-3.84041
-1.86761
-7.87861
0
-1.55192
0
-0.0673655
-7.32381
0
0
0
-1.68609
-0.509038
-0.727801
-4.09023
0
-6.16665
0
0
-1.14666
-3.28161
0
-2.91661
-0.427645
-2.88772
-3.75847
-0.338305
-1.26033
-2.11269
-1.93656
-2.87239
0
-2.03406
-2.42369
-3.5365
-2.30177
-0.049764
-1.16038
0
-5.65673
-1.02632
-0.959756
-0.88566
0
-1.26788
-1.65369
-2.8565
-5.32531
-1.90638
-1.46042
-2.59392
-4.80262
-1.17387
-3.50797
-3.51571
0
0
-0.286428
-1.65509
-2.06418
-3.94736
0
-5.48581
-4.32294
0
-0.263218
-0.922561
0
-2.41129
-0.744912
-0.121365
-7.31324
0
-4.08394
-6.26908
-1.26217
-8.4769
0
-2.25344
0
-2.19275
-2.10686
-0.372145
0
-1.35905
-0.374339
-0.6006
-1.45006
-3.52016
-0.883395
-0.286485
0
0
-0.4161
-1.88367
0
0
-5.49886
-2.95111
-3.70623
-2.58101
-3.33343
-4.1132
-1.17007
-5.9199
-2.24179
-2.72078
-3.8321
-2.67685
0
0
-8.34708
-2.87326
-4.62354
-3.73168
-1.64804
-0.00482691
-6.75738
-2.19304
-0.382506
-2.45557
-0.957796
0
0
-2.23673
-1.7078
0
-0.304829
0
0
-3.37813
-1.73032
0
0
-0.701089
0
-1.72844
-2.1864
-0.907221
-0.449501
-4.99957
-1.81506
-6.2232
-2.54867
-2.13316
-1.01122
0
-1.27003
-7.76761
-2.84409
-0.130641
-3.22109
-0.863239
0
-5.96113
-0.32362
-1.82341
-2.55205
-2.03888
-2.11473
-0.576794
-4.49787
-1.86529
-8.25227
-4.38718
-8.35437
0
-8.01361
-5.48587
-1.68333
0
-5.90857
0
0
-0.206564
-13.2588
-3.68635
0
-3.37284
0
-1.67021
0
-0.792304
-5.65243
-3.73514
-3.23141
0
-0.0998873
-4.21034
-4.40608
-1.51191
-2.91776
-1.37385
-4.99706
-1.2905
-6.51323
0
-8.70789
0
-1.16025
0
-2.71491
-0.648034
-3.76535
-0.528444
-0.982084
-3.47037
-3.04614
-0.346472
-1.2801
-1.07752
0
-3.71138
-2.35315
-6.99931
-0.904061
-1.15098
0
-5.34268
0
-1.90977
0
0
0
-4.29209
-3.60975
-3.00724
-0.620174
-1.28447
-0.642985
0
-0.534755
-0.52166
0
-0.722608
-3.54168
-0.923016
-0.46043
-8.39003
0
-2.07928
0
0
-10.1854
-3.77268
-4.22985
-1.6376
-2.20188
-1.80162
-3.70705
-1.20127
-4.84149
-4.32086
-4.55964
0
0
-0.23911
-2.85982
0
0
-6.27054
-2.05408
-0.126859
-2.29524
-6.22535
-0.644848
-2.5179
-3.0025
-2.61178
0
-0.0892589
-1.34814
-2.31135
-1.60365
-0.973463
-1.59378
-2.72118
-0.210746
-5.48679
0
0
-3.46504
-2.35071
-11.0335
0
-0.604349
0
-2.09149
-1.29431
-5.7286
0
-6.27687
-1.06524
0
-6.26315
0
-0.382746
-0.664228
-1.19448
-4.87909
-1.51026
-3.11043
0
-1.96425
0
-1.89416
-2.37906
0
0
-0.491505
0
-3.90131
-0.581028
-7.15883
0
-4.84961
-0.903891
-6.24115
-0.928915
0
-1.36261
0
-4.50707
-2.02074
-1.2298
-2.93463
0
-1.27534
-1.7494
-3.27483
-1.85126
-0.545528
-1.3093
0
0
-5.30748
-1.76939
-5.62431
-2.54227
-5.97715
-1.71549
-6.54256
-0.662771
-1.64964
0
-0.628406
-0.856624
-0.295128
0
-3.03054
-0.342049
-1.86174
-5.34004
-1.22082
0
-0.894076
-2.55122
-3.7252
-1.32446
-2.2248
-6.4611
-0.387553
-2.00696
0
-0.284037
-4.88662
-2.37791
0
-3.12911
-4.36244
-0.848799
-7.89061
0
-3.40049
-0.549996
-6.04177
-0.925199
-4.57441
-1.08072
0
-2.35428
-4.35569
-3.91588
0
0
0
0
0
0
0
0
0
0
0
0
0
0
0
0
0
0
0
0
0
0
0
0
0
0
0
0
0
0
0
0
0
0
0
0
0
0
0
0
0
0
0
0
0
0
0
0
0
0
0
0
0
0
0
0
0
0
0
0
0
0
0
0
-0.550559
-0.908316
0
-1.28572
-1.69351
0
-1.54441
-0.78403
-0.617505
-1.87846
0
-1.28141
-2.05344
0.00776182
-1.9512
-1.76224
-0.29764
-1.89797
-0.410899
-2.61833
-1.5432
-0.0165786
-1.57368
-1.32847
-0.159289
-0.901236
0
-1.21218
-1.27951
0
-1.11311
-1.1965
0
-1.08003
0
-0.611431
-3.16571
0.00979886
-0.524374
-0.780657
-0.955834
-1.15325
0
-2.38466
-0.804003
0
-1.38652
-0.0222766
-0.588521
-2.79371
0
-1.36725
-2.58261
0
0
-1.12912
-0.211015
-1.7706
0
-1.36868
-0.13101
0
-0.539167
-0.454731
-4.58076
-1.09708
-4.94448
-0.998267
-0.52735
-3.7736
-1.67379
-1.82341
0
0
-0.30587
-0.776021
-8.32458
-4.50391
-1.01967
-5.27819
-9.39783
-5.64633
-0.411212
-8.39886
-4.05507
0
-4.32332
0
-6.76258
0
-2.91655
-3.01141
-2.52967
-2.77607
-7.6379
-6.49077
-1.75411
0
-3.48951
0
0
-0.164119
-4.11683
0
-3.36943
0
-0.283323
-4.71012
-0.579081
-0.064904
-1.06469
-2.86388
-5.45694
0
0
-1.53106
-0.70389
-8.99987
0
0
-1.85459
-0.563628
-1.44249
-0.595411
-4.50975
0
-6.95207
0
-4.74421
0
-0.767483
-2.98507
-3.80608
-0.734298
-6.40184
0
-1.84505
-2.66419
0
0
0
-5.88732
-6.25149
-0.850952
0
-3.41392
-2.57736
-0.128935
-3.3827
-5.92164
-0.311402
-3.16323
-0.747207
-5.18291
-0.0411812
-5.30285
-1.38212
0
-6.95699
0
0
0
0
-1.58502
-0.267953
0
-5.94144
-0.597009
-10.5685
0
-2.94071
0
-2.96269
0
-1.33402
-2.01983
-6.17343
-2.15197
0
0
-2.62698
-1.42637
-3.8359
-1.18563
-1.86261
-1.33501
0
-0.855792
0
-10.6856
-1.3586
-4.38544
0
-5.54797
-0.49242
-7.56369
-2.00438
-2.5099
-1.44915
-4.35787
-0.417916
0
-2.38068
-3.79978
-6.32974
-6.72769
-4.29156
-1.62546
-2.97131
-0.061102
-3.88528
-3.34785
-3.30227
-0.0950242
-2.31599
-4.67833
-2.01721
-4.26228
-2.95537
-1.75471
0
-0.634051
-2.62767
-3.15406
0
-5.31675
-3.52191
-3.98217
-1.33714
0
-5.75469
-0.499209
-7.50122
0
-1.93623
0
-0.0961172
-3.28734
0
-2.69781
0
0
0
-5.81166
-7.59625
-0.587123
-2.11471
0
-0.2286
-0.759122
-2.83533
-1.53028
-0.739147
-1.55637
-1.35809
0
-6.67881
-3.18851
-1.43922
0
-5.12459
-4.59913
-3.43581
-5.87018
-0.964301
-3.56013
-3.13005
-5.9312
-0.778289
-2.81434
-0.103711
-1.89283
-0.413453
-6.92924
0
-4.71861
0
-0.7383
-1.12638
-6.80543
-1.80639
-5.52122
-1.019
-0.0114148
-4.43914
-4.7875
-10.5235
0
-0.144636
-0.00937778
0
-3.28517
-0.388379
-0.42948
0
-4.59863
-0.61664
-1.49871
-1.55482
0
0
0
-1.19853
-0.218843
-1.62447
-2.44602
0
-3.9218
-1.44316
-4.81472
-5.39245
-0.342173
0
0
0
-5.07939
-4.88338
-5.85146
0
-2.99166
-2.79805
-0.232419
-5.40432
0
-3.67774
-1.11762
-0.770697
-2.95604
-3.23631
-3.27042
-1.03369
-7.82615
0
-0.205868
-0.542432
-5.15696
-2.32955
-1.64082
0
0
0
-4.83322
-0.853282
0
-1.94255
0
0
0
0
-10.1781
0
-4.31024
0
-4.74869
0
-1.62841
-1.35999
-1.61629
-6.46429
-1.09184
-3.94126
0
-2.24206
-0.209944
-2.57727
0
-2.69511
-2.09848
-11.307
-1.73117
-5.70059
-5.92331
-0.149763
-4.03855
0
0
-0.270051
0
-3.93907
-4.09155
-2.23008
-3.24089
-7.29081
-3.24885
0
0
-8.25437
-2.18641
-2.39819
-0.965843
-2.58697
-1.58631
-4.09824
0
0
-4.35706
-2.71542
0
-1.79802
-0.24502
-6.2881
0
-0.0457815
-3.47545
0
-2.73367
-1.27707
-2.44902
-3.76303
-0.751322
-5.57429
-5.65067
0
-7.64234
0
-4.83183
0
0
-4.18868
-3.02577
0
-3.68429
-2.73652
-4.2314
-1.56619
-9.71314
0
-4.33009
0
0
-2.53957
-3.12213
0
-6.60461
-0.725405
-3.15816
-0.550344
-0.479069
-1.16803
-5.0031
-2.57824
-3.39024
-0.0690496
-1.37073
-2.64457
0
-5.59107
-1.45458
-1.94514
-0.21186
-1.15596
-1.08041
0
-1.1259
-0.0808164
-0.146758
-3.42783
-2.97663
-1.7095
0
-7.19466
-2.42724
-1.13492
-2.61443
-2.24088
-6.59242
-1.9101
0
-4.12178
-3.27209
-4.27317
0
0
-5.38027
-4.61913
0
-0.735157
-1.75344
0
-4.06671
0
-8.96086
-0.300373
-2.88774
-3.5743
-2.05321
-3.10811
-5.80191
-0.837257
-1.34275
-0.383389
-2.93007
0
0
-0.777835
-3.94705
-1.04928
-3.11669
-2.5078
-0.862977
0
-2.48834
-4.60957
0
-0.511521
-0.464583
0
-5.40523
-0.755183
-4.87963
0
0
-2.98427
-1.41036
-0.334954
-3.93261
0
-4.7288
0
0
0
-1.99705
0
-3.88914
-3.0123
-0.135521
-3.42817
-9.52122
0
0
-2.2059
-5.50148
-0.483008
-8.07208
0
-6.57719
-0.783557
-4.10194
0
-6.22967
-0.417507
-4.10358
0
0
0
0
0
0
-3.74368
-0.936884
0
-2.60529
-4.38832
-3.23628
-5.84035
-0.0238358
0
0
-3.08954
0
-5.64024
-0.414718
-5.48621
-0.647923
-1.49647
-1.07161
-6.57387
-1.1569
-5.47095
-3.43645
0
-2.94919
-1.8336
-2.45634
-0.725775
-5.02038
-4.35671
-1.03436
-6.4454
-0.478854
-4.226
-8.31404
-3.9855
-2.07416
-1.07515
-1.39053
-6.5969
-0.855664
-6.32248
-1.09387
-5.59332
-1.57572
-0.25839
-2.59952
-1.06614
-8.32987
-1.29062
-2.77995
0
-1.36759
-0.0553021
0
-2.48874
-3.78934
-1.62817
-4.51167
0
-0.520993
0
-3.86837
-0.222115
-0.446285
-0.935534
-4.64832
-4.53872
-8.9123
0
-1.64397
-4.27169
-0.465877
-4.5452
0
-2.44567
0
-1.39988
0
-4.39641
0
-3.61784
-5.17977
-4.50333
0
-1.75764
-5.44152
-1.4307
-5.17853
0
-0.575333
-1.50831
0
0
-4.39288
-0.321364
-2.28477
-4.32395
-1.14078
-0.0435835
-1.04082
0
-3.80261
-3.28349
0
-1.50439
0
-0.355189
-7.4701
-6.16789
-2.18497
-1.46649
-4.16079
-0.935895
-2.88419
-3.42213
-4.51462
-2.64274
-3.77342
-2.54591
-0.297991
-3.47633
-2.0789
-4.02127
-1.1359
-3.59317
-4.33629
-0.189518
0
-0.0420895
0
-0.949276
-0.417641
-2.65121
-0.254458
0
-2.14768
0
0
-6.81767
-3.08351
0
-1.88741
-3.80341
0
-3.01396
-1.13739
0
-5.2789
-2.02498
0
-2.57018
0
-3.26377
-0.462786
-2.46884
-3.08501
-4.40759
0
-5.82323
-2.47988
0
-2.13273
-3.79587
-0.0481896
-4.30723
0
-0.280457
-5.71267
-2.34218
-2.34593
0
-1.1855
0
-3.04718
0
-7.91656
0
0
-0.80905
-0.0413083
0
0
-1.34946
-0.538694
-3.58951
-4.57636
-0.490021
0
0
-6.34734
-1.39155
-4.21587
0
-3.89214
0
-8.29661
0
0
-7.33589
-0.968404
0
0
-5.31316
-1.8914
0
-2.31439
-3.21526
-0.971195
-1.3836
-1.31055
-1.79828
-0.626402
0
-0.722671
-1.96414
-1.1105
-0.181654
-2.00847
-2.3715
-5.31677
-0.788091
-3.26712
-2.92038
0
-1.60509
0
0
-0.408469
-4.79697
-3.76524
-6.83858
-10.7731
0
-10.5164
0
-5.07902
-1.88166
-2.53638
-3.01048
0
-7.07158
-0.963621
-2.91347
0
0
-7.52767
-0.806554
-3.77447
-1.27892
-0.139719
-5.32243
0
-2.6962
0
0
-2.23796
-3.5554
-0.0392878
-1.66048
-1.81545
-2.52562
-5.05396
-1.09762
-0.13099
0
-4.32304
-2.98959
0
-0.405269
-9.77341
-2.02858
-4.64105
0
0
-1.37797
-0.826095
-4.03081
-4.76394
-1.4995
-1.71324
-5.15499
0
0
-8.26216
-6.26718
-2.5321
-3.62485
-0.380812
0
0
-0.97762
-6.3737
-1.06387
-2.9334
0
-5.82714
0
0
-0.475816
0
-3.28558
0
-1.25624
-0.377108
0
0
-0.0333431
-1.28191
-2.01883
-5.90039
0
-1.64329
0
-6.94112
0
-8.6199
-0.531188
0
0
-8.61518
-1.13781
-2.30574
-4.46081
0
-2.79205
-0.896061
-3.64981
-0.058634
0
0
0
-0.959786
-3.37031
-0.1757
-2.31867
-1.46769
-4.09532
-9.18418
-1.66634
-5.4806
-4.10029
0
-0.588464
-1.13457
0
0
-6.53599
0
-2.90648
-0.756484
-1.88472
-0.355112
-1.7761
-1.87379
-1.08894
-2.3813
-3.77886
0
-0.445795
-0.72486
-6.74849
-0.123045
-5.62176
0
-0.193927
0
-0.243967
0
0
0
-1.17661
0
-2.25461
-1.89648
-2.80382
0
-5.97236
0
-0.360895
0
-1.7773
-1.33988
-3.41769
-3.7684
-3.00026
-0.262788
-0.697546
-4.05848
0
-1.60502
-3.42928
-7.71478
-0.769601
-7.0282
-0.255595
-2.48549
-4.8485
-8.66624
-3.32114
-3.58211
-4.22006
-1.77809
-4.10295
-1.97566
-0.830727
0
-5.32236
0
-6.06364
-0.804064
0
-4.4458
0
0
0
0
0
0
0
0
0
0
0
0
0
0
0
0
0
0
0
0
0
0
0
0
0
0
0
0
0
0
0
0
0
0
0
0
0
0
0
0
0
0
0
0
0
0
0
0
0
0
0
0
0
0
0
0
0
0
0
0
0
0
0
0
0
0
0
-0.202341
-0.0903404
0
0
0
-0.502066
0
0
-0.471801
0
0
0
-0.0486873
-0.270733
0
0
0
-0.522686
0
-0.132999
0
0
0
0
0
-0.0995895
-0.00847886
-0.181862
0
0
0
0
-0.441056
0
0
0
0
0
0
0
0
-0.161741
0
0
0
0
0
0
0
0
0
-0.21228
0
0
-0.0416017
0
0
0
0
0
0
0
-8.30785
0
-0.679781
-2.16547
-0.200865
-4.11073
0
-1.001
0
-5.73757
-0.697798
0
0
-7.29008
0
0
-3.39161
-0.774332
-1.19483
-1.40322
0
-6.81174
-0.0578873
0
-5.53351
-1.75087
-3.98014
-8.68723
-4.39989
-2.18825
0
-5.32261
-0.500335
-0.819534
-0.710765
-6.30527
0
-0.605236
-0.897021
-5.76428
-2.74546
-0.592441
-3.53132
-2.48881
-2.89441
0
0
-0.113972
-0.295036
-7.34959
-0.281727
-3.87076
0
-2.83332
-0.358976
-3.77501
-1.76254
-3.29455
0
-1.58159
-1.00003
-2.15444
-1.1909
-4.63276
0
-5.42982
-2.27806
0
0
-2.52424
-0.0155937
-1.12698
0
-9.87153
-0.498864
-4.20141
0
0
0
-6.17879
0
-5.96822
-5.60647
0
0
0
-2.72772
-1.12986
-2.39237
-0.968701
-8.4628
-2.37912
-0.784977
0
-1.15319
-3.68949
-5.86457
-1.32181
-5.52711
-0.56745
-11.3902
0
0
0
-3.96947
-2.5831
0
-3.09482
-1.38173
-5.41799
-0.241876
-0.707817
-2.63451
-3.35748
0
-1.21308
-0.16707
-2.39777
-0.457637
-3.24747
-0.6697
-0.148202
-3.11504
0
-0.214838
-0.473043
-1.15815
-0.19519
-2.73064
0
0
0
-5.51929
-2.63528
-1.84095
0
-3.99216
0
-0.548178
0
0
-1.66704
-0.783508
-1.0042
-1.60129
0
-4.9082
-0.0814226
-2.66313
-0.0641991
-2.29934
-4.30176
-0.67244
0
-0.0690671
0
-7.7742
0
-4.81958
-2.30316
-2.25151
0
-4.1227
-2.95247
0
-1.56041
0
-3.97958
0
-8.86501
-1.08739
-5.49536
0
0
-4.0108
0
-3.69069
-3.68026
0
-4.39932
-0.0936727
-4.95899
-1.34223
-4.40222
0
0
0
0
-0.156195
0
-3.14794
-0.213847
0
-2.24634
0
-4.3253
0
-0.661721
-3.55872
0
0
-0.10543
-0.40028
-2.9112
-3.83336
-5.02453
0
-0.977462
-4.48204
-3.44811
-0.495437
-3.30567
-2.19565
0
-0.488724
0
-6.38057
0
-3.95192
-2.63526
-0.424984
-1.27077
-4.96857
-2.05411
-1.84779
-2.05702
-0.0967238
-5.8968
-1.58185
-3.38436
0
-0.389706
-3.44703
-0.724845
-5.06315
-0.618582
-4.14856
-0.644813
-3.62258
-0.827539
-0.839121
-7.8001
-3.51835
0
-2.55054
-1.59501
-1.85098
-0.873834
-4.9185
-0.353036
-0.238841
-0.931898
0
-5.02389
0
-5.41529
-1.56693
-9.97326
-1.67274
-0.329671
-1.44687
0
-1.8307
-0.338087
-2.30288
-3.46699
-4.86076
-6.19998
-11.2558
0
-0.290252
-0.76727
-0.765776
-3.55292
-5.21443
-2.63962
0
-6.11154
-4.53585
-7.67366
-0.40833
-4.48577
-1.43732
-4.61009
0
-2.62257
-0.611418
0
0
0
-4.03295
-6.63082
0
-6.34577
0
-0.40021
-4.12337
-1.67176
-1.04758
-3.61293
-0.104294
-6.4885
-0.890178
0
-1.35738
0
0
-2.0356
-3.95807
-1.5094
-3.52754
-1.30926
-5.15437
-1.44915
0
-5.7743
0
-4.40534
-3.53216
-9.10443
-4.37465
0
0
-5.27638
-0.202791
-3.85958
-3.81738
-5.39488
-5.94247
-1.66419
-7.38058
-8.47189
-0.651737
-4.418
-0.372977
0
-6.33309
-1.78144
-2.90194
-2.77371
-1.94101
-1.05101
-1.95553
0
0
0
0
-4.07028
0
-1.06547
0
-5.35948
0
-5.93644
0
-8.83164
-1.25264
-6.59828
0
-4.24207
0
-0.939466
-4.22289
0
-9.26403
-2.48282
-0.91397
-0.352269
-3.51249
-8.37273
-2.11395
-1.68966
-2.7143
-0.086751
0
0
0
-3.97993
0
-4.19368
0
-0.438296
-1.34062
-5.83705
-5.2138
-5.14567
0
-8.8136
-0.38333
-2.33426
-0.581437
-5.61359
-1.38281
-3.69806
-9.07973
0
-0.871509
-4.83254
-1.78353
-4.54167
0
-2.63155
-1.96529
-2.1498
-0.292355
-0.517626
-7.50321
-0.718119
-2.42528
-0.222465
-2.49582
-0.113186
-0.468844
-6.3265
-0.908657
-0.143944
-3.85692
0
-3.00973
0
-1.25849
-1.51478
-1.15944
-0.651066
-2.86028
-0.774298
-0.0579049
-2.39049
-11.5984
0
-3.09953
0
-0.533598
0
-2.2275
0
0
-0.499367
-5.16141
-4.38176
-1.59165
-2.4358
0
-0.819514
0
-6.122
-1.54542
-1.19483
0
0
-4.44281
0
0
-1.79644
-4.74448
0
-5.01619
0
-1.53716
-3.6177
-0.902993
0
0
-8.98036
-4.76076
-5.16616
-0.685881
0
0
-1.15221
0
0
-7.74615
-1.5029
0
0
-3.32184
-6.27148
-4.39923
-4.82229
-0.0145901
-2.74164
-0.0482674
-0.0424408
-0.892713
-2.87984
-0.428853
-1.3916
-2.73685
-0.346314
0
-5.5907
-1.96177
-4.72076
0
-0.307391
0
0
-10.2649
-1.88699
-0.578703
-0.795876
-3.50452
-2.71553
0
-4.10188
-0.62124
-0.211575
-1.67032
0
-0.803744
-2.29957
-0.32383
-1.36
-0.75916
0
0
-1.88154
-0.466944
-4.0084
0
-0.413172
-0.68871
-3.94777
-1.44223
-0.346239
-6.59818
0
-2.38116
-2.20731
-0.369782
0
-4.51211
0
-5.5423
-0.585037
-2.65964
-1.51145
-0.633963
-4.61354
-0.368967
-11.1199
0
-1.18788
-3.22994
0
-3.34466
0
-2.04738
0
-0.438697
-2.2825
-2.94231
-4.09925
0
0
-0.809144
-4.43186
-1.13186
-6.83607
-2.06444
-3.40698
0
-5.64245
0
-4.35345
-4.52483
-4.38614
-2.81226
-0.779267
-3.4746
-1.12657
-6.26919
-1.2936
-3.9641
-2.52932
0
0
-2.04101
0
-0.905579
-0.198229
-4.98317
0
-0.264978
-0.581712
-6.63094
-1.0446
-6.10555
-2.75244
-2.89392
0
-2.07848
-3.34663
-3.02137
-3.58566
0
-3.02365
-0.361352
-5.70184
-0.0359037
-4.32024
-2.35852
-0.129107
0
-1.69723
-1.6092
-2.60781
0
-5.54856
0
-2.50897
-0.0317316
-4.82329
-0.613928
-5.8844
0
-4.18613
-2.49583
-6.00355
-6.30833
0
0
-7.74174
0
-2.55779
-1.46618
-4.61545
-2.62175
-4.86355
0
0
-1.48388
-0.252448
-1.65326
-0.0249921
-1.17774
0
0
-4.38032
0
0
0
-4.57202
-0.910904
-0.752021
-4.89175
-1.21578
-5.96413
0
-2.46911
-0.481779
-1.88804
-0.376731
-6.53462
0
-3.75939
-0.0620655
0
-3.67255
-2.17091
-1.59102
-0.904109
-2.89453
-0.752355
-3.72955
-1.36022
-2.40276
0
-2.25375
-3.4136
0
-2.46236
0
-4.67101
-2.28839
-1.85517
-1.5201
-2.96676
-7.02859
-1.17968
-1.22915
-3.293
-1.37344
-9.26358
-0.243389
-4.07658
-3.19802
-0.458908
-1.7096
-3.16159
-0.826106
-2.42211
-2.30874
-3.73099
-6.68191
-1.34106
-0.542405
-2.90746
-0.897511
-0.169219
-2.01398
-1.33241
-4.53817
0
-4.21379
-4.57805
-1.84625
-5.34473
-8.40376
-2.57854
0
-4.51314
0
-1.21283
-0.321615
-0.0419309
0
0
-1.82667
-0.641084
0
0
0
0
0
-1.34958
-4.75874
0
-4.12181
-1.15152
-1.67576
-1.91316
0
-1.52111
-1.47251
-4.5447
-2.54458
-6.29782
-5.58899
-7.48531
-3.60293
-4.22849
-2.04371
-0.957115
-1.571
-1.5506
-3.6348
0
-7.32668
-1.10173
-5.31764
0
-3.90858
-0.588651
-2.5907
-3.89589
-1.6223
-3.37867
0
-0.44061
-9.55914
-4.28741
-1.5232
-3.17241
-5.2857
-0.0152333
-0.579193
0
-0.845846
0
-5.94345
-1.86458
-2.15897
-0.910307
0
-0.64782
0
-0.246976
-7.40094
0
-4.93683
0
-4.25564
-3.16923
-6.60726
-0.00851459
-6.40149
0
-3.18433
-3.71899
-1.38529
-3.96112
0
-2.85614
0
0
0
-0.0611084
-3.39279
-7.88801
0
-5.00789
0
-0.961597
-0.356944
-1.27898
-5.15121
-5.6433
-3.47286
-6.37514
0
-3.39206
-2.74978
-0.513882
-1.44025
-0.302146
-1.25507
-2.35365
0
0
-1.50296
-0.99078
-0.070053
-0.330959
-2.75877
-2.61342
-3.5272
-0.908234
-1.06335
-5.40075
-0.289893
0
-4.00344
0
-3.4674
0
-1.65425
-0.666154
-0.194501
-5.25915
-0.100411
-3.84515
-1.38565
0
0
-0.405682
-3.12424
-0.981118
-4.34667
0
-4.43725
0
-4.49694
-2.3669
-1.01117
-2.52392
-0.813366
-1.88584
-2.37035
-2.92523
-8.37404
-0.471818
-5.76508
-3.38636
-0.0769936
-1.73171
0
-4.8955
-0.960729
0
-5.38555
-0.303203
0
0
-0.541113
0
-6.15745
-5.6016
-0.757997
-5.1021
-0.14344
-5.33314
-2.42844
-7.63308
-2.23678
-4.12649
-4.23933
-5.65962
-3.65013
-2.72333
0
0
-9.21616
-1.63542
0
0
0
0
0
0
0
0
0
0
0
0
0
0
0
0
0
0
0
0
0
0
0
0
0
0
0
0
0
0
0
0
0
0
0
0
0
0
0
0
0
0
0
0
0
0
0
0
0
0
0
0
0
0
0
0
0
0
0
0
0
0
0
0
0.125562
-1.80273
0
-2.01939
-1.71035
0
-1.70643
-0.500105
-0.334086
-0.330022
-0.185581
-2.32662
-1.88226
-0.0596774
-0.994352
-1.98351
0.135515
-1.22122
0
-2.10718
-0.120548
0
-1.63406
-1.28269
-1.21763
-0.930124
0
-0.615467
-0.577957
0.0028365
-1.42759
-0.550048
0.180996
-3.52232
0
-1.88759
-0.203153
0
-0.674933
-0.436904
-0.155544
-1.20369
-0.187552
-0.274828
-1.73853
0
-0.889564
-0.623419
-0.458281
-0.227944
0
-2.44202
-0.858879
-0.141129
-2.64443
-0.263781
-0.348008
-1.75167
0
-0.306995
-0.79107
0
-0.417101
-3.37097
-2.54523
-5.20527
-0.0654124
-4.11089
-1.80513
-0.35693
-1.15247
-1.54002
-3.33526
-3.32591
-2.72018
-0.919183
-2.9675
-1.78353
-7.93433
0
-8.15303
-2.12048
-8.44665
0
-7.41825
-1.08446
0
-2.32284
-2.68921
-0.96917
-2.75746
-5.17757
-3.55198
0
-2.66443
-2.92385
-0.895557
0
-7.40572
-0.420732
-2.93122
0
-4.53117
0
0
-1.56134
-2.27681
-4.98201
-0.349268
-5.78062
-2.08164
-5.5869
-2.44959
-1.51398
0
0
-3.83231
0
0
-5.08303
0
-1.95547
-4.55328
-0.515002
0
0
-7.26107
0
-0.396427
0
-1.84243
-0.347349
-2.86308
-1.06708
-3.61264
-1.86813
-6.02597
-4.59656
0
-2.039
-1.22788
-1.45087
-4.88214
-1.0833
0
-3.88612
0
-2.03265
0
-4.8405
-2.55494
-1.77217
-0.624218
-4.61525
-3.16071
-0.451529
-4.37049
-7.01338
-0.912848
-2.30841
-1.93439
0
0
-3.00163
0
0
-3.41841
-2.73096
0
-2.18911
-1.81652
-6.4252
-1.30991
0
-1.53141
0
-6.85427
0
0
-4.38431
-0.0670204
-9.17945
-0.544523
-3.6508
0
-1.04407
-3.73927
0
-5.05446
0
-5.87849
-1.08099
-0.637117
-3.84575
0
-6.68393
0
-1.12783
-1.41296
0
0
0
-5.37144
-5.62669
-3.28607
-0.418499
-4.62902
-0.0999944
0
-2.38848
-1.83052
-2.21741
-0.564229
0
-1.57065
-1.03738
0
-1.98134
-10.8284
-4.84281
-6.35524
-0.420231
0
-2.0902
0
-1.2624
-2.07023
-0.218262
-1.01153
-1.12939
-1.94275
0
-2.93706
0
0
-0.962924
-1.06042
-8.03911
-4.28391
-2.18079
-1.00692
-0.825005
-0.0238851
-4.09053
-4.92581
-0.552495
-7.19032
0
-3.24724
-3.76822
-1.31017
-7.61752
-3.25454
-4.7005
-3.04114
0
-6.9765
-0.710885
-4.11523
0
-2.37925
-0.0299067
0
-2.1581
-2.37287
-9.38627
-7.74542
-4.09492
-2.48645
0
0
-5.30979
-0.484194
-0.924249
-2.98771
-3.81324
-0.353264
-0.859364
-1.70025
-1.04131
-1.13408
-2.14242
-0.0812611
-6.55677
0
-0.0418856
-8.75085
0
-8.3605
0
-3.90636
0
-0.0247585
0
-2.1046
-1.27691
-4.54258
0
-2.68137
0
0
0
-0.131398
0
-2.55719
0
0
-6.26342
-1.77557
-1.65935
-3.96849
0
-4.85015
-0.458988
-0.380387
-0.55446
-5.13982
0
0
-3.07649
-0.714317
0
0
-4.27162
-2.17901
-1.88269
-1.74858
-2.10597
-1.61458
0
-4.34124
0
-0.625262
0
-7.93524
-1.13015
-2.81159
-3.53324
-0.181919
0
-0.968927
-1.91587
-3.86141
0
-0.503445
0
-4.32014
0
-0.376646
0
-0.698969
0
-1.50844
-3.88091
-4.04971
-0.800322
-4.50453
-2.41514
-2.85495
0
-6.01607
-0.63758
-3.52078
-2.38979
-0.704068
-2.06039
0
-3.41357
-0.479686
-8.17827
0
-13.0978
-0.224525
0
0
0
0
-0.166427
-5.76385
-2.08304
-1.64843
-2.55395
0
-1.49937
-0.203059
0
-7.45982
0
0
0
-5.94322
0
0
0
-3.48683
0
0
-5.77014
-1.24154
-2.98133
-1.67209
-3.25126
0
-1.80564
-0.544372
-2.8038
-2.30806
-6.81215
-2.75541
-7.03534
-1.70593
-2.89516
-3.81337
-5.10323
-5.03966
-5.73503
-1.44529
-1.51162
-3.3238
-1.12823
-4.46982
-1.83208
-0.611926
-2.0172
-0.808289
-2.17876
-2.76885
-1.11631
-2.56365
0
0
-7.35807
-2.00038
-3.25712
0
-7.49729
-3.22654
-5.73712
-5.4964
0
-4.28622
0
0
-3.866
-0.968476
-3.38605
-0.671613
-1.73863
0
0
-3.58519
0
0
0
-7.47999
0
-1.46158
-1.83041
-2.75933
-2.47593
0
0
-1.01116
-1.03826
-2.32387
-1.40877
0
-1.83611
0
-4.84975
-0.561362
0
-2.31691
-0.468057
-0.230603
-2.36651
-0.946765
-8.27997
0
-11.0547
-1.09358
-0.0649728
-1.453
-0.626059
-0.998508
-2.34791
-2.86863
-1.45447
-5.7577
0
-6.04534
-1.56696
-1.80696
0
-6.07417
-1.63276
0
-4.39357
0
-5.82112
-3.51771
-7.56174
-3.05901
-1.51257
-0.0621679
-0.211075
-0.112994
-2.03063
-2.9877
-2.25742
0
-0.414848
0
0
-5.41108
0
-3.79923
-6.7889
-0.141295
-0.914657
0
0
-0.775311
-12.2423
0
0
-6.88744
0
-3.04871
-0.48302
0
-6.70007
0
-7.29939
-2.2387
-4.08417
-0.579225
-0.381959
-1.71635
-5.93593
-0.775589
-0.323381
-0.0294582
-0.0207009
-6.64164
0
-3.59583
-2.09317
-1.59371
0
-0.700363
-1.72323
0
-7.43409
-0.0854927
-2.46866
0
-1.28719
-0.29458
-1.89746
-0.660227
-1.8013
-3.75293
-1.87959
-0.213126
-3.79576
-3.05324
-2.20519
0
-4.35726
0
0
-1.25909
-7.33781
-3.80291
-1.12369
-5.97202
-0.555378
-0.269159
-11.2884
-9.5286
0
-3.28985
0
0
-4.54756
-3.35932
-4.00899
-0.346954
-2.82634
-7.01807
0
0
-5.39515
0
-5.43004
-0.69375
-4.05847
0
-0.678239
-0.350926
0
0
-1.97394
-2.16516
0
0
-1.0104
-1.73243
-5.60707
0
-0.854961
-6.38797
-4.05644
-1.65586
-6.9516
-1.36501
-5.00999
-0.0333974
-3.83335
-6.76804
0
-1.84994
0
-0.904506
0
-2.48303
0
-0.0653869
-1.11597
-4.45083
-0.597194
0
-1.28504
-1.29657
-2.13986
-2.93985
0
-1.35122
0
-0.987459
-2.61682
-6.69535
-7.72699
-6.54945
-5.69397
-3.24685
-0.0993545
-0.110451
-9.45445
-0.0912523
-1.79868
-2.8274
-0.926866
-1.11717
-2.75785
-8.19963
-4.11341
-0.763304
-2.96421
0
-0.522032
-5.77129
-3.51781
-4.34497
0
-0.213139
-3.14826
-1.67266
-3.34074
-2.30427
-0.884046
-0.582829
0
-0.435699
-1.28775
-2.51782
-1.6925
0
0
-1.56039
-4.95135
-1.37977
-7.12407
-3.36803
-2.43833
-3.29613
-2.24456
-1.03199
0
-4.77489
-1.69968
-0.828354
-1.60014
-2.3337
-10.5533
-0.298078
-2.76238
0
-3.47618
0
-4.13464
-4.60373
-6.77386
-9.4054
-0.548881
-2.59281
-1.02436
-2.20949
-3.57858
-2.31479
-3.60857
-3.30381
-0.635687
-9.83619
-2.34782
0
-5.34437
0
-6.83054
-6.16339
-4.63808
-4.6045
-5.1948
-0.41753
-1.00397
0
-0.884766
-2.10475
-0.676854
-5.94174
-4.93347
-6.16602
-3.3941
-4.7708
0
-5.23034
-0.356491
-8.76945
-1.1565
-3.67618
-0.385897
-4.37625
0
-0.794098
0
-1.60389
-1.0883
-3.7288
-0.668069
0
0
-0.289079
-3.7299
-3.29659
-1.56004
-0.0484436
-5.27614
0
-1.56165
-0.0679055
-1.68089
-3.41844
-1.02179
-4.69553
-3.11139
0
-2.49431
-1.62271
-3.98182
-2.34801
-1.21695
-2.98478
0
0
-2.22287
-7.39302
-0.283338
-8.04323
-4.15517
-6.11322
-0.385866
-4.07595
-4.73542
-0.872634
-4.223
-0.277607
-7.60659
0
-7.30308
-1.46783
-6.53163
0
-0.655555
0
-3.32845
-1.70524
-0.841215
-3.68075
-2.91413
0
-5.66876
0
-6.7526
-1.27896
0
-0.618781
-2.4017
-6.55169
-3.19968
-5.80944
0
-0.0551314
-5.79253
-2.10666
-1.02623
-1.08168
-8.94564
-2.06838
-6.50707
-1.94094
-0.0978067
-3.41325
-2.02226
-4.62752
-3.15621
-1.09767
-2.4553
-8.72764
-1.62893
-0.47161
-0.581213
-5.32274
-1.5582
-3.42962
-3.44599
-0.885262
-1.23319
-2.47704
-0.211443
-10.6883
0
-4.73539
-2.05915
-6.20845
-0.0286672
-0.487663
-1.50179
0
0
-1.2186
0
-1.78336
-4.52743
-1.38603
-1.95189
-2.10256
-6.62655
0
-1.5681
-0.34479
-2.65856
-2.53956
-6.57793
-1.11678
-1.84832
-2.03682
-0.0228046
-7.65385
-4.54723
-10.8756
0
0
-2.62104
-2.09082
0
-0.148751
-3.57081
-0.181254
-4.95961
-1.28235
-3.67237
0
-1.47971
0
-2.902
-1.7538
-1.51454
-3.22872
-4.88272
0
-3.30847
0
0
0
-1.31901
-4.59361
-0.624832
-1.02687
-2.12606
0
-0.60534
-5.77406
-0.262981
-3.56792
-1.12508
-0.569713
-3.94331
-1.23506
-3.85795
0
-0.45283
-0.160649
-3.03865
0
-4.39056
0
0
0
-6.27236
-0.32543
-4.60092
-4.99164
-6.66912
0
0
-4.56516
-1.15155
0
-2.00925
-7.86772
-0.813618
-4.16072
-0.0425591
-1.73725
-5.9347
-0.498304
-0.265726
-3.92712
-4.32081
-4.99712
-4.23236
-0.383788
-2.65163
-3.5179
-4.35626
0
-9.07438
0
-3.68692
-1.64063
-1.92373
-2.04559
0
-0.651006
0
-8.2729
-5.69597
0
-1.30067
0
0
0
0
0
0
0
0
0
0
0
0
0
0
0
0
0