<?xml version="1.0"?>
<VTKFile type="RectilinearGrid">
<RectilinearGrid WholeExtent="0 32 0 32 0 32" Origin="0 0 0" Spacing="1 1 1">
<Piece Extent="0 32 0 32 0 32">
<PointData>
</PointData>
<Coordinates>
<DataArray type="Float32" format="ascii">
0 0.524874 1.04975 1.57462 2.0995 2.62437 3.14924 3.67412 4.19899 4.72386 5.24874 5.77361 6.29849 6.82336 7.34823 7.87311 8.39798 8.92285 9.44773 9.9726 10.4975 11.0224 11.5472 12.0721 12.597 13.1218 13.6467 14.1716 14.6965 15.2213 15.7462 16.2711 16.796 
</DataArray>
<DataArray type="Float32" format="ascii">
-5.03879 -3.62163 -2.20447 -0.787311 0.629849 2.04701 3.46417 4.88133 6.29849 7.71565 9.1328 10.55 11.9671 13.3843 14.8014 16.2186 17.6358 19.0529 20.4701 21.8872 23.3044 24.7216 26.1387 27.5559 28.973 30.3902 31.8074 33.2245 34.6417 36.0588 37.476 38.8931 40.3103 
</DataArray>
<DataArray type="Float32" format="ascii">
0 0.524874 1.04975 1.57462 2.0995 2.62437 3.14924 3.67412 4.19899 4.72386 5.24874 5.77361 6.29849 6.82336 7.34823 7.87311 8.39798 8.92285 9.44773 9.9726 10.4975 11.0224 11.5472 12.0721 12.597 13.1218 13.6467 14.1716 14.6965 15.2213 15.7462 16.2711 16.796 
</DataArray>
</Coordinates>
<CellData>
<DataArray type="Float32" Name="Scalar" format="ascii">
0
0
0
0
0
0
0
0
0
0
0
0
0
0
0
0
0
0
0
0
0
0
0
0
0
0
0
0
0
0
0
0
0
0
0
0
0
0
0
0
0
0
0
0
0
0
0
0
0
0
0
0
0
0
0
0
0
0
0
0
0
0
0
0
0.216009
-0.404656
0
-0.251244
-0.619847
0
-0.194973
-0.605615
-0.443736
-0.002282
0
-0.0858535
-1.5484
0
-0.589069
-0.390363
-0.444569
-0.675089
0
-0.102486
-0.270175
0
-0.238631
-0.364766
-0.506906
-0.803188
0
-0.283246
-0.191377
0
0.23751
-0.564698
-1.11744
0
0
-0.117776
-0.455531
0
-0.636763
0
0
-1.53326
0
-0.0675882
-0.242631
-0.400691
-0.134166
-0.788531
-0.504228
-0.0376028
0
-0.633817
-0.19646
0
-0.705386
-0.0674197
-0.554823
-0.423288
0
-0.00711506
-1.62773
-0.0135085
-0.295526
-0.164572
0
-5.09371
-0.0104128
-3.30179
-3.55673
-1.09886
-0.108346
-2.58359
-4.39494
-1.75911
-1.59427
-1.52583
-2.6152
-6.2724
-1.98725
0
-1.36532
-3.68178
0
0
-3.49751
-1.66036
-2.67322
-5.35065
-3.90163
-2.25587
-1.19374
-1.93299
0
0
-3.46331
-4.19882
-0.5
-7.83603
-0.308383
-2.93314
0
-0.912607
0
-4.74686
-2.43586
-0.730344
-4.34962
-0.11634
-3.78911
0
-1.07333
-0.490933
-8.81066
0
-6.42906
-3.61522
-0.526628
-1.20753
-3.15301
-1.79675
-2.40185
0
-0.709067
-0.23262
-6.58404
-2.20102
0
0
-1.69054
-1.89769
-3.35649
-2.24058
-3.58879
0
-6.70481
0
0
-0.2946
-0.231072
-0.158318
0
-4.98026
0
-3.10489
0
-5.11095
0
-3.47381
0
-8.69605
-2.90161
-3.18746
0
-3.13681
-1.44257
-6.61201
0
-1.27352
-3.41324
0
0
0
-4.77891
0
-6.69882
-0.149386
-1.36408
-0.253343
0
-0.0609581
-0.909714
-1.64341
-1.62603
-3.26729
-0.460335
0
-5.98735
-0.733386
-1.81773
-2.96289
0
-0.70201
-0.139809
-4.10279
0
-1.24848
-2.46991
-0.567227
-7.32462
0
-1.15664
0
-2.55325
-1.86189
-0.745714
-0.927825
0
-0.0858015
0
-2.34172
0
-0.172189
-3.06946
-1.20832
-3.79004
-3.80527
-5.27415
-2.35876
-5.24251
-2.4178
-0.927533
-2.51198
0
-3.15158
-0.924212
-7.50807
-0.995226
-2.57889
0
-10.337
0
-0.175448
0
-1.69162
-0.742353
-5.23467
0
-3.90439
-0.114592
0
0
0
-2.91977
-1.27124
0
0
-1.6802
0
-1.12858
-4.18851
-6.27171
-1.92594
-5.67203
-8.14452
-0.59404
-6.40649
-0.315752
-3.42644
0
-1.28393
0
-5.54404
0
0
-4.65744
-4.67914
-1.28228
0
-0.13529
-4.27458
-3.27713
-2.35922
-5.22036
-9.86221
0
-7.62194
-1.12449
0
-3.44561
-2.45261
0
-0.406454
-10.8128
-0.917729
0
-1.06158
-7.02046
0
0
-4.60569
-0.376135
-7.31124
0
0
-2.0643
-2.08687
-3.74182
-0.981892
-0.379442
0
-1.37703
-4.95609
-5.81476
-1.99773
-8.60336
-0.228957
-8.16988
-0.0609999
-3.60201
-3.35211
0
0
-2.76437
-3.12208
-4.92158
-0.711735
0
-3.64936
-0.686278
-1.11004
0
0
0
0
0
-5.59358
0
0
-4.34129
-3.82658
0
-7.19927
0
-6.17644
0
-3.6222
-2.28673
-1.49501
-1.71358
-1.05082
0
-3.42419
0
-1.76708
-0.0907978
-1.62828
-2.88608
-0.106605
-4.00065
-0.630245
-0.0406452
-0.87904
-1.18466
0
-6.16311
-2.77276
-7.93574
0
-1.45217
0
-7.65064
-3.43799
-1.62194
-2.33495
-0.781132
0
0
0
0
0
0
-2.28106
-3.83426
-0.951785
-5.48685
-2.86706
-3.69953
-2.90153
-6.27364
-0.987824
-1.0482
-9.79076
-2.01186
0
0
-0.227266
-4.91843
0
-0.0418203
0
-2.80342
-0.591206
0
-9.78864
-4.24181
-0.284156
-0.102462
-0.1354
-2.09611
0
-1.00028
0
0
-7.24187
-0.921988
0
0
-1.99589
0
-0.218195
-1.61152
0
0
-7.92927
-1.66312
-1.07645
-6.58751
0
-1.12386
-2.34345
0
-1.81373
-0.907401
-0.0618471
-2.96519
-1.7487
-3.35838
-1.00222
-7.98248
0
-6.29427
-2.06149
-4.62561
-1.83099
-9.56737
-0.390967
0
-0.543231
-2.0578
0
-0.485177
-2.85555
-1.83697
-0.773034
-0.532839
0
0
-2.55922
-2.28984
-3.09253
0
-2.85021
0
0
-6.54719
0
-5.87012
0
-2.12939
0
-0.322462
-1.22715
-2.57865
-1.93663
-1.77148
-2.47275
-2.6895
-3.91752
-0.221223
-2.08641
-0.357347
-0.21877
-0.105147
-0.927604
-3.28777
0
-0.43123
-3.85596
0
-1.2083
-0.767393
-1.84234
-4.84688
-3.86353
-0.931728
-5.19203
-1.66563
-3.47028
-4.64737
-5.91929
0
-3.21229
-0.6683
-3.15872
-3.22781
-5.9934
0
0
-0.406028
-0.103208
-2.12505
-0.864116
0
-1.74602
0
-0.330665
-2.08745
-2.25356
-4.58342
-0.532505
0
-1.22344
-5.00292
-4.27718
0
0
-0.330096
-6.15829
-0.55008
-2.66823
0
-4.176
-2.91883
-2.43291
-5.63215
0
-0.0930236
-1.35152
-0.338428
0
-8.7754
-1.97091
-7.85826
0
-5.59807
0
-2.28656
-0.827139
0
-0.375331
-0.512924
-0.0488944
-2.6124
-3.52365
-3.0161
0
-2.50167
-1.018
-2.77858
-0.00575071
-1.18717
-0.625027
-7.86386
-0.845533
0
0
-5.54689
0
0
0
0
-3.56046
-1.97817
-0.434606
-0.930713
0
0
-1.15212
-2.50625
-2.11672
-1.95618
-4.13047
-0.651325
-1.41847
0
-7.09765
0
-3.16592
-0.196711
0
-4.58974
-0.0255626
-2.11275
-2.59979
0
-4.6849
-4.46372
-0.315806
-5.10867
0
-0.305884
-0.537111
-4.74349
0
-1.97108
-0.128221
-4.30891
-2.65245
-2.52587
-0.400237
-1.68557
-0.085662
-1.0864
-1.26486
0
-4.30096
-2.12446
-0.630448
-0.443529
-2.11784
-2.14394
-4.40714
0
0
-1.03777
-6.89641
-0.437346
-2.96485
-0.0655712
-7.75679
-1.00074
-7.65089
0
-1.28744
-0.0663349
-2.25867
-0.778283
0
-4.19973
-3.16289
0
-4.44533
-5.31592
-2.23738
-6.67
0
-2.18958
-1.53878
-0.617477
-0.522018
-2.90339
-4.39961
0
0
-0.965419
-0.364035
-1.55181
-1.55767
-4.37121
-2.27826
-3.23216
-0.156898
0
-0.998532
-1.48366
-4.27013
0
-1.99486
-2.50808
-2.01104
-1.54661
-2.65867
-4.31306
-2.14129
-6.09867
0
-7.05227
0
-5.10192
-0.358963
0
-4.29411
-7.97228
-2.25626
-0.45671
-9.48779
0
-10.0817
-0.921464
-0.655991
-2.35001
0
-6.41314
0
-6.6893
-0.149676
-1.05401
0
-0.978739
0
-6.27963
-1.49307
-0.967374
-0.109677
-7.5749
0
-2.81748
-2.06229
-2.46317
-6.20648
0
-8.05149
0
-1.81088
0
-2.1838
-0.722594
-8.41887
-1.69665
-5.54979
-4.13881
0
-0.85717
-0.840526
-3.04178
-2.02475
-0.660179
-1.90968
-4.46337
-3.48683
-1.3781
-7.80212
0
-4.35897
0
-5.83417
-0.500162
0
-4.02362
-2.02881
-1.31988
-1.03446
-0.751562
-5.76483
0
-1.55137
-0.329614
-4.71901
-1.86064
0
0
-0.170641
0
-3.5555
-0.678126
-4.01287
0
-2.24677
-0.702552
-4.04124
-1.05399
-10.4391
-2.11954
-4.18613
0
-7.62969
0
-5.14524
-1.15006
-4.83753
-0.0209382
-1.55288
-3.77888
-2.61792
0
-0.377998
-0.456962
-0.923769
0
-0.691197
-2.3046
-1.33608
-5.72313
-0.0405365
-6.09274
-0.858037
0
-0.91012
0
-0.943428
-2.74718
0
-6.75699
0
-2.19273
0
0
-2.93608
-1.11308
-7.10352
-0.164523
-2.6262
-4.59793
0
-0.503605
0
-1.27383
-3.49499
-1.09323
-6.9846
-0.751294
-9.99965
0
-2.69763
-1.67651
-2.98416
-0.3421
-1.44043
-3.0244
-0.805762
-1.27629
-2.02684
-1.46163
-1.27481
0
-4.18293
-3.23669
-3.95367
-0.71755
-3.37507
-0.998176
0
0
-7.41217
0
0
-2.6971
-0.167562
-8.15025
0
0
-0.082449
-2.907
0
0
0
-1.78578
0
-2.35594
0
-0.820518
0
-6.2532
-1.75416
-6.56724
-0.0210472
-3.01063
-3.97524
-0.7355
-3.21914
-2.28098
-1.03786
-2.38185
-3.53252
-3.04226
-1.85178
0
-6.57309
0
-4.37401
-3.18881
-0.757352
-4.89289
0
0
-1.89769
0
-8.84648
-0.911106
0
0
-5.50076
-6.5732
-0.687656
0
-2.93533
0
-0.367032
-1.72168
-4.55563
-0.344676
-3.50141
-2.37996
-1.33719
-5.39455
0
-3.9325
-1.21319
0
0
-0.44571
-2.83397
-3.86476
-4.17699
-1.00191
-4.03576
-2.92044
-4.52378
-0.379076
-5.73907
-2.94273
-1.08413
-1.4206
-1.9091
-0.0557072
0
-9.33915
0
0
-8.02311
-4.45135
-0.488613
-6.22331
0
-4.55084
-0.268564
0
-5.7501
-2.15751
-0.78635
-0.142671
0
-3.6592
0
-4.18122
-0.578772
-2.8348
-0.83211
-3.45646
-1.379
0
0
-1.06192
0
0
-3.94771
-12.8866
0
-2.37316
-1.49358
-2.41828
0
-0.993084
-0.719636
-1.28314
-4.19171
-3.72544
-2.92299
-6.02671
0
-4.21705
-1.16233
-9.52767
-4.31156
-0.925375
-2.1833
0
0
-1.75808
-5.57735
-2.37038
-1.66052
-7.80187
-4.92535
-4.68377
-2.08669
-0.776546
-0.428625
-9.37835
0
0
0
0
0
0
0
0
0
0
0
0
0
0
0
0
0
0
0
0
0
0
0
0
0
0
0
0
0
0
0
0
0
0
0
0
0
0
0
0
0
0
0
0
0
0
0
0
0
0
0
0
0
0
0
0
0
0
0
0
0
0
0
0
0
0.0623884
-1.31819
-0.293811
-1.7308
-0.953298
0
-1.90314
-0.884406
0.0504303
-0.806167
-0.243223
-1.80315
-0.7454
-0.296623
-1.60271
-0.926677
-0.514846
-1.86187
0.0217297
-0.725615
-0.680882
0.0949089
-1.13156
-0.504399
-0.390714
-1.60675
0
-1.18182
-0.903296
0
-1.05825
-1.21563
-0.0868387
-2.24794
0
-0.629121
-2.6322
0.00872965
-1.18831
-1.30201
-0.881681
-0.917925
0
-1.20632
-0.738634
0
-2.36677
-0.325126
-0.604777
-2.41899
0
-0.458428
-2.02636
0
-4.02481
-2.55044
-1.37288
-0.100725
-0.26756
-5.47924
-1.90144
0
-2.56094
-0.743885
-1.73315
-3.14449
-2.69385
-3.4291
0
-4.98132
-2.40008
-2.02369
0
-0.832809
-2.24253
0
-0.0144789
0
-2.21868
-5.03309
0
-3.26787
-2.87005
-6.12598
-0.198961
0
-6.65086
-0.424894
-0.187108
-7.60965
-2.12838
0
-5.41426
-4.96138
0
-2.75471
-2.20646
0
0
-3.29045
0
-3.94661
0
0
0
-2.37849
0
-0.178205
-3.08389
0
-4.0731
-3.27753
-2.40808
-0.765421
-0.642007
-1.75318
-9.84172
-3.98181
-1.37451
-3.47198
-0.198609
-1.47994
-2.10346
0
0
0
-8.0057
-1.40415
0
-2.38063
-2.6129
-0.832411
-3.20384
0
0
-0.318514
-4.29729
-2.3847
-5.70933
-2.6851
-5.5945
-2.90534
-0.361257
-1.75315
-1.13083
0
0
-4.24974
0
-0.247671
-2.11655
-1.01007
-0.481052
-3.68524
-3.79197
-2.57392
0
-1.83782
-0.657102
-7.15385
-1.11244
-9.38961
-0.132088
-1.39396
-1.87975
0
-7.40728
-2.15968
-4.60671
-1.00687
-3.52057
0
-5.06015
-0.526364
-3.33439
0
0
-0.242693
-2.16744
0
0
-4.49197
0
-3.73535
-0.554401
-0.289441
-0.381595
0
0
-0.867526
-5.4843
-6.82783
0
-2.00899
-1.4549
-1.90369
-1.15551
-3.38528
0
-3.58598
0
-9.13265
0
0
-2.72255
0
-0.207273
-0.300776
0
-1.58215
0
-4.2024
-2.14355
-5.24203
0
-1.98042
0
-0.584445
-7.20531
-0.842696
-6.53729
0
-7.63479
0
0
-1.5723
0
-5.63205
0
-5.69759
-2.58683
-6.83869
-0.748604
-1.2203
-3.67615
-4.43024
0
-5.17765
-2.75005
0
0
-5.09946
0
0
0
-3.94316
0
0
0
-5.62578
-0.546896
-0.0400446
-2.68601
-5.62326
-0.443496
-2.12648
-6.49632
0
-2.26575
0
-7.74654
-4.63221
-2.06428
-2.08425
0
-0.233008
-1.75005
-9.64282
-2.34843
-7.58618
-2.18521
-4.12701
0
-0.849465
-8.77453
-2.72
0
-5.58904
-2.79563
-2.58681
0
0
-5.0614
-3.49695
-5.61983
-2.24883
-5.71317
-0.134382
-4.2129
-0.257854
-1.72393
0
-0.325332
0
0
-0.039218
0
-5.80311
-1.16277
-4.444
-1.86575
-3.54667
0
-3.32645
0
-2.07563
-1.32815
-6.57973
-3.40375
-3.41614
-0.92188
-3.15576
-0.457923
-1.69585
-2.541
-4.23169
-1.87729
-2.24961
-0.162476
-3.1874
-0.183648
-2.11847
-0.882569
0
-3.50797
-4.07212
-0.698837
-2.02303
0
-2.8795
-2.03138
0
-1.8043
-2.75503
0
-5.33967
-1.36871
-2.21931
0
-0.085247
-1.26592
-3.44815
-0.898213
-1.42456
-2.67572
0
0
0
-4.97071
-2.3008
-2.5561
-1.78341
-1.72864
-2.71513
-4.94718
-3.08989
-4.11031
-1.18194
-9.00316
0
-5.26844
0
-6.09325
0
0
-2.00989
-1.04346
-2.59607
0
-3.82968
-8.81906
-0.496244
-5.23235
-3.82409
-2.15755
-3.0434
-0.0199072
-7.8447
0
-6.16978
-1.95865
-7.13558
-1.25894
-3.27676
-1.50608
0
-0.802393
-1.97823
0
-1.80803
0
-5.42129
-0.923821
-0.38297
-1.62579
-3.88857
-2.77805
-1.53622
-3.04799
-4.91219
-1.09337
-5.66958
-2.54043
0
-3.06505
0
0
-1.3282
0
0
-1.25146
-3.32948
-2.9424
-1.65161
0
0
-3.62848
-4.4263
-0.778038
0
-6.04016
-2.77117
-4.44195
-0.211459
0
-1.05553
-5.27285
-1.9867
-1.46196
-2.38366
-3.66427
0
0
-3.9508
0
-3.61109
0
-1.86768
0
-7.14786
-2.15399
-4.31956
-1.25038
-3.31444
0
-0.73774
-3.31957
0
0
-7.11484
-0.922376
-6.69596
-0.330382
-0.511874
-5.87943
0
-4.2539
0
-0.641511
-1.89711
0
-1.07776
-2.8926
0
-1.89982
-2.53072
-2.77214
-0.607026
-2.47229
-8.37909
0
0
-0.390919
-1.3306
-4.2055
0
-4.022
0
0
0
0
-0.810268
-6.63994
-2.30027
-2.61297
-2.67411
-1.97079
-5.13757
0
-2.12742
0
-4.06962
-3.55366
-4.33952
-0.882805
-6.78839
-4.45064
-3.2973
-2.84431
-1.17651
0
-3.65867
0
-2.90618
-2.4328
-7.65153
0
0
-0.947884
0
-5.57706
0
-9.46049
0
0
0
-7.31714
-0.126481
-6.57668
-0.0125849
-4.16327
-0.780038
-3.18043
0
0
-0.603401
-3.86098
-5.09799
-0.0774719
-2.38904
-2.42645
-1.95494
-2.7038
-3.08881
-1.02446
-0.0978313
-3.07466
-1.13738
-3.02574
0
-1.70827
-1.80399
0
-0.0223919
-7.51091
0
-6.45308
0
-7.74473
-1.43081
-3.68345
-0.891806
-0.7689
0
-3.29029
0
-9.10722
0
-0.703899
0
0
-1.43457
-5.52055
-2.86648
0
0
-0.655325
-7.12159
0
-6.73864
-0.1527
-3.47451
-1.6349
-0.999743
-3.92361
0
0
0
-0.901332
0
-5.9529
-4.38827
-0.459316
-1.31469
-4.35368
0
-2.1026
0
-1.12542
-5.80586
0
-4.42059
-0.784338
-3.79966
-0.212889
-0.0617239
0
-1.78238
-5.48734
-3.44359
0
-1.49224
-5.21751
-5.91914
-4.47493
0
0
-1.8299
-0.863678
-0.0654751
-1.48316
0
-0.27042
-1.74063
-3.30211
-0.582799
0
-5.58061
-2.10658
-1.05688
-3.66005
-1.80021
0
0
-3.40552
0
-8.82825
-0.622143
-0.920225
-3.46401
0
-3.46543
-4.36652
-2.18633
0
-0.754914
-2.25687
-1.55815
-1.44647
-1.60396
-0.204522
-3.35751
-2.33002
0
-4.33375
0
-4.47035
0
0
-0.864902
0
-2.28242
-0.186336
-1.66266
0
-7.20357
0
0
0
-1.06048
-4.28706
-0.926201
-1.23643
-1.19105
-4.12344
0
-5.64305
0
-7.89638
-3.8416
-3.78452
-0.0817031
-1.42317
-5.27219
0
-4.87789
-0.80547
-6.43182
-0.162356
-9.1342
0
0
-5.91179
-1.60006
-1.42478
-6.71612
0
-7.01851
-0.303499
-2.02344
-5.53323
-0.125874
0
0
-0.754247
-2.70399
-2.09917
0
-6.64865
0
-3.79917
-0.990338
-5.58997
0
-1.64938
-2.98428
-5.62352
-3.15545
-3.35751
0
-0.738144
0
-6.48293
-0.0108959
-5.51741
0
-3.40436
-2.56893
-3.17023
0
-1.07897
-3.79007
-1.23116
0
-2.6364
-0.872599
-1.25383
-0.03341
-1.27107
-2.34469
-2.96546
-2.94455
-4.33045
-1.70513
-2.1955
-3.5499
-14.7503
-4.54624
-1.90241
-5.86106
-3.20476
-6.33713
-0.2598
-3.39485
0
0
-0.426689
-0.0281885
-4.12327
-1.13031
-0.0957594
-0.884033
-1.97025
-1.23257
-0.910335
-2.48789
-0.611123
-0.0714293
-5.0432
-0.590881
-2.16082
0
-3.18527
-0.481365
-2.19321
0
-9.22842
-1.04735
-4.79229
-0.521791
-2.58171
-7.54475
0
-1.67222
-0.350227
-6.86703
-10.6911
-1.79328
-7.67428
-0.551525
-11.0813
-0.179774
-4.30442
0
-4.83333
-1.25962
-3.87846
-1.21047
-3.32828
-2.45201
-4.79736
0
-0.667972
-4.76372
-2.30097
-1.88316
-12.2529
-4.14304
-3.25029
-1.09133
0
-3.45008
0
-2.34973
0
0
0
-7.9687
-1.37562
0
-2.67931
-3.05305
-8.76572
0
-4.73611
-0.9065
-4.36732
-1.17107
-3.26953
-2.2537
-5.90377
-0.774363
-1.58448
-4.07214
-4.34829
-6.43021
-15.0684
-2.675
-2.70452
-2.92344
-5.6842
-5.2042
-3.47541
0
-0.477203
0
-2.52794
-2.02485
-0.385873
-0.367945
0
-1.33764
-5.73142
-2.6958
0
-3.77165
-1.54321
-2.81959
0
0
-1.1096
0
-4.96519
-3.97817
-4.19901
-2.70043
0
-0.761122
-2.39858
-4.47995
-1.62814
-0.504838
0
0
-4.52029
-1.57456
-2.1149
-2.30417
0
-1.89612
-1.65624
-6.39567
0
-2.10713
-0.888265
-1.2375
-0.213366
-8.73781
-1.54768
-3.27872
-3.01636
-5.43771
0
0
-1.03161
-0.342786
0
-4.02991
-4.64885
-2.49557
0
-4.31261
-9.55155
-0.607511
-1.44959
-2.55013
-1.58149
-5.18964
-2.66712
-1.60366
-1.62417
-4.98096
-1.84108
-2.34474
-2.08506
0
-7.64776
0
-3.5867
-0.492034
-5.41011
-0.459388
-2.60978
-0.252124
-1.04802
-0.251943
-0.64588
0
-3.68658
-4.16483
-2.11525
-4.10379
-4.11528
-0.0356428
-7.13001
-1.19313
-1.08195
-2.18373
-5.36033
0
-7.71357
-3.28009
-2.05764
-4.54551
-2.22704
-1.74721
-6.10749
-0.433815
-3.75356
-3.37056
-9.68071
-6.60814
-0.169876
-3.82865
-3.27996
-8.59803
-2.08061
-6.21968
-0.127035
0
-3.45561
-0.614253
0
-0.262526
-0.642549
-2.9733
-0.792833
-1.72858
0
-5.58928
0
0
0
0
0
0
0
0
0
0
0
0
0
0
0
0
0
0
0
0
0
0
0
0
0
0
0
0
0
0
0
0
0
0
0
0
0
0
0
0
0
0
0
0
0
0
0
0
0
0
0
0
0
0
0
0
0
0
0
0
0
0
0
0
-0.10748
0
0
0
0
0
0
-0.414566
0
0
0
-0.113668
0
0
0
0
0
0
0
0
0
0
-0.0807486
0
0
0
0
0
-0.251306
0
0
-0.0856208
0
0
0
0
0
0
0
-0.00360234
0
0
0
0
0
0
0
0
0
0
0
0
0
0
0
0
0
0
0
0
0
0
0
0
-3.01253
-1.66886
-0.563391
-1.58787
-2.09707
-4.10244
-1.55398
-0.648648
-4.12399
-2.68474
-1.08746
-1.71066
-4.5698
-3.87536
-3.53416
-1.72463
-0.994729
-4.55131
-0.832083
0
-5.33285
-2.00181
-2.33424
-0.924329
-5.20259
-0.930296
-3.1388
0
0
-0.315147
-1.74561
0
-5.10855
-0.914934
-5.10652
-4.80236
0
0
-0.252459
-6.96765
-2.31301
-3.87956
-8.35159
-5.11114
-2.56866
-4.0042
-0.13922
-0.288804
-1.86795
-3.11339
-3.77124
-1.80296
0
-0.761172
-0.425988
-1.19494
-4.2136
0
-0.759429
-1.32287
-4.94805
0
-3.47013
-1.92891
-1.70624
-4.57093
-5.20702
-1.42827
-0.139709
-4.01935
-3.71092
-1.96599
-0.884915
-1.16532
-1.96148
0
0
-1.25529
-1.17203
-1.06062
-11.2099
0
-3.39973
-0.0381522
-0.164009
-2.77694
-3.31598
-4.35417
-2.02269
-0.116001
0
-3.96824
-2.49293
-2.91973
0
-2.07935
-0.539477
0
-3.04235
-5.13311
-2.79558
0
-1.24178
-1.39264
0
-1.17608
-2.84452
0
-2.05662
-0.443486
-0.256461
-2.26155
-0.748184
0
-3.95739
-0.0528807
-5.07819
-2.27745
0
0
-3.30222
-8.61813
0
-4.73613
-0.739703
-2.5149
0
-1.93452
-7.22679
-0.708726
0
0
-2.03859
0
-3.55283
-0.39641
-0.516572
0
-1.67336
-2.87826
-0.034869
-4.03206
-1.22577
-6.39923
-1.00647
-3.55345
-3.95411
-3.5239
-3.89211
-5.09179
-4.49338
-1.18389
-5.33506
-5.43103
0
0
-9.02066
0
-1.56541
-2.75386
-1.60643
-5.64973
0
-1.55535
-1.12215
-4.56631
0
-2.63557
-2.32244
0
0
0
-2.41408
-0.107411
-2.3582
0
-1.5352
-0.0391536
-0.122007
-5.45669
-0.561622
0
-1.88911
-6.732
0
0
-2.89141
-3.94925
-0.995318
-3.26912
-3.2398
-7.77668
-0.55647
-0.459462
-4.59673
-4.08946
-3.50862
-1.20848
-0.430875
0
-8.25422
0
-2.50164
0
-0.19447
-1.73736
-0.380513
-2.42664
-1.51677
-5.2427
0
-3.07502
-6.36128
0
0
-4.09137
0
-10.1983
-1.38633
-3.63371
-1.20144
-3.60011
-2.13372
-0.560279
0
-7.00405
-6.72193
-0.193963
-6.87615
-0.890778
-3.71586
-9.17792
-5.0864
-0.786537
0
0
-0.241393
-1.62881
-4.4465
-0.988834
-0.808664
-0.0348329
-1.3255
0
-3.37208
0
-6.45302
0
0
-0.185944
0
-1.3536
-1.95955
0
-0.254833
-1.09085
-4.66535
0
-1.41658
-3.50528
0
-1.7934
-1.13684
0
-6.29442
0
-2.21216
-2.51299
-3.07319
-2.03334
-2.67156
0
-0.230139
-4.56139
-1.62206
-5.24888
0
-0.217887
-3.17776
-2.42514
-5.67767
-4.14313
-4.78723
-3.74034
-2.24176
-1.12476
-2.98163
-0.321908
-3.64362
-0.0217444
-1.79094
-1.8906
-2.25871
-2.17449
0
0
-1.39906
0
-3.64144
-6.77419
-1.8207
-8.75796
0
-4.76973
-0.87768
-1.42907
0
-3.81697
0
0
0
0
-1.64346
0
0
-0.362133
-1.19488
0
-1.04169
0
-4.82023
-0.612494
-0.793696
0
-5.13413
-4.68201
0
-1.79138
-3.60039
-2.16729
-4.35655
0
0
-3.39943
-0.745517
0
0
-0.722195
-1.86392
0
-1.03501
0
0
-2.12295
-1.20536
-0.137062
-1.02791
-1.01501
0
0
-2.47736
0
-1.32575
-2.59436
-2.13405
0
-1.95223
-0.841043
-4.13868
-3.24222
0
0
0
-6.20477
-1.23932
-0.320027
0
-4.778
-2.85339
-1.03786
0
-0.176039
0
-2.86147
-0.541781
-1.03356
-2.44473
-2.56453
-0.838597
-4.36955
-5.72865
-3.90941
-4.6933
-2.61153
-1.83243
-0.0157684
0
-0.607711
-7.20892
-3.24618
-3.14252
-1.23171
-7.66308
-3.26384
-6.09574
-2.36151
-4.97478
-1.21948
0
-5.01603
-2.57273
0
-0.147542
-5.74062
-2.55458
-0.864431
0
-6.89797
-0.488927
-1.87963
-3.31613
0
-3.80368
0
-2.65987
-1.91349
-4.19955
-4.46331
0
0
-2.98714
-0.0719444
0
-1.02572
0
-5.87025
0
-4.70067
0
-0.769841
0
0
-2.72494
-1.02026
-7.27734
0
-4.41011
-0.479066
-4.23297
-0.590496
-0.883641
0
-2.7128
-0.745377
-2.59653
-0.411786
0
-2.48043
-1.24619
-0.413317
-7.01774
0
-0.735151
0
0
-6.44873
0
-6.9912
-1.01569
-6.80259
-0.30017
-7.49685
0
0
-0.444482
-2.32676
-0.63892
0
-3.61474
-1.81574
-4.34314
0
-1.67673
-1.3934
-0.946992
-4.7333
-2.39125
0
-4.96208
0
0
-3.85453
-0.258581
0
0
-2.04475
-2.1755
-0.933148
-3.62638
-0.439755
-1.12546
-0.613407
0
-1.6857
-7.06168
-2.53145
-6.80818
-0.0887883
-0.755369
-2.43441
-3.6852
-1.65552
-1.53204
-4.43708
-0.832754
0
0
-2.68111
-0.0752097
-1.5867
-2.99896
-2.80265
-3.65746
-3.33975
-1.50311
-4.91413
0
-0.250828
0
-0.68885
-4.05646
-9.43323
0
-10.4766
0
-2.51719
0
-4.42422
-0.817025
-0.608494
-0.104289
-6.87469
0
-6.52759
0
0
-6.30567
0
-0.0879264
-0.330051
-1.18833
-0.752638
-5.635
-1.2742
-2.45978
-6.72359
-1.58832
-5.79974
-3.20704
-0.708346
-3.89248
-0.46851
-2.29016
0
-1.92398
0
-0.518377
0
-0.876382
-3.35021
-0.266309
-6.85276
0
-0.838691
-6.16306
0
0
0
0
-7.28829
-2.45765
-7.21276
-0.0640666
-1.94281
-1.00723
-1.7539
-5.39287
0
-0.554614
-2.8505
-1.89903
-2.43701
-2.40888
-0.589753
-2.92173
-1.92368
-0.526855
-2.17734
-0.0146564
-3.31032
-0.0570764
-2.62815
0
-5.60749
-2.87918
-1.17262
-1.69093
-0.25763
-4.09387
0
-2.91064
-1.16283
-1.75473
0
-0.102097
0
-0.0556862
-1.74429
-0.897519
0
0
-4.39723
0
-2.1906
0
-0.270814
-2.21199
-2.35664
0
-0.741315
-3.82273
0
-3.73116
0
-1.43459
0
-1.60253
0
-5.91525
-1.58949
-1.43314
0
-4.74217
-2.40613
-2.00086
-1.23495
-3.20912
-0.588923
0
-4.024
-0.0995653
-2.07243
0
-4.57619
-0.549319
-0.883895
-3.49803
-0.925243
-0.429911
-0.206797
0
-1.6445
-0.0342884
-0.354581
0
-5.89396
-3.08915
-0.523577
-0.554944
-0.922796
-0.874788
-3.33773
-5.00617
-3.94889
-1.70138
0
-0.0930022
-0.676866
0
-1.99788
-6.79047
-1.71
-0.391437
-2.13502
0
-5.14656
0
-5.72006
-2.96141
-6.88021
-1.97226
-2.99598
-5.22369
-0.0317692
0
0
-4.74073
-5.85666
-1.02716
-0.978989
-2.26294
-3.66925
-2.84499
0
-0.703412
-1.61797
-3.24342
-3.1722
0
-2.71107
-1.48867
-0.740971
0
-0.104332
0
-5.83288
-0.38509
-2.08284
-2.91518
-4.52211
0
0
-1.0463
-1.46481
-3.71579
-1.15702
-1.1884
-0.774542
-1.3971
-0.844824
-0.370055
-0.116354
-0.751452
-1.83198
-1.01596
-0.635698
-6.31976
-4.0391
-2.07123
-1.61027
-0.846481
-0.751986
-0.313093
-0.842356
-4.91064
0
-7.3385
-1.73964
0
0
-1.2169
-0.634193
-7.14211
0
-2.25448
-5.97859
-5.88491
-2.30082
-1.37801
0
-4.43573
0
-0.265327
-0.241345
-3.49209
-1.59472
0
-3.38874
-0.136815
-0.258402
-1.3186
0
0
0
0
0
-0.437084
-2.43512
-2.41339
-0.908452
-3.91399
-2.72798
-2.9775
0
-2.06239
-2.68772
-1.73591
-6.75262
0
0
-3.11705
-2.00902
-1.41705
-7.39746
-6.94885
-1.19593
-3.89791
0
-1.79431
-1.44817
0
-4.14808
-0.465855
-6.04716
-1.0505
0
-2.11327
-1.15019
-6.85211
-0.772473
-3.28998
0
-2.16384
-3.28651
-1.38199
-3.37853
-2.24538
-2.29761
0
-2.31509
-1.97699
-5.16079
-1.07576
-3.66028
0
-2.91282
-0.438834
-1.3662
-0.70272
-3.14245
0
-2.50611
-4.05785
-1.28432
-1.8007
-0.175268
-9.34758
-1.76069
-0.460063
-7.1313
-1.33758
-0.719742
-2.59852
-0.804109
-0.445643
-7.53453
-0.960692
-0.907451
-1.02025
-0.148776
-5.02331
-1.22365
-0.764487
-0.523225
-2.1513
0
-0.834505
0
-1.78029
0
-0.0806608
0
-0.846039
-2.09536
-0.626784
-2.60614
-0.164321
-3.43782
-4.92545
-0.650971
0
-1.92695
-6.01153
-4.12234
0
-9.85495
0
-3.58526
-0.710374
-0.984477
-1.12229
-8.14937
0
-4.16204
-0.626364
-5.34145
-2.12183
-3.82601
-0.900007
-0.203822
-3.09683
-0.351642
-2.95362
-0.300104
-6.05326
-3.47923
-2.09017
-0.503417
-3.467
-3.53434
-3.24843
-3.61261
-7.34347
-2.40105
-6.65599
-3.66701
0
0
0
0
0
0
0
0
0
0
0
0
0
0
0
0
0
0
0
0
0
0
0
0
0
0
0
0
0
0
0
0
0
0
0
0
0
0
0
0
0
0
0
0
0
0
0
0
0
0
0
0
0
0
0
0
0
0
0
0
0
0
0
0
0.177593
-0.952115
-0.068946
-0.851863
-0.375276
-0.29275
-1.49007
-0.662084
-0.0659461
-1.36004
0
-1.34602
-1.50434
0
-1.07007
-0.762552
-0.511058
-1.03211
-0.0389703
-0.574904
-1.031
0.0310327
-0.958134
-0.887225
-0.846755
-0.697045
-0.579573
-1.52642
-1.54481
-0.0268006
-1.38653
-0.836599
-0.609302
-0.490386
-0.266156
-2.40544
-1.80013
0
-1.40526
-0.174804
-0.316693
-0.451339
0
-0.530945
-2.1937
0
-0.246728
-0.813154
-0.376215
-0.112007
0
-1.02926
-0.147299
0
-0.959487
-0.288875
-0.0749835
-3.64139
-0.443609
-2.00876
-2.63624
0
-0.163401
-1.27558
-0.0500036
-8.89924
0
-4.85045
-1.78744
0
-2.06858
-2.11545
0
-0.207647
-3.98184
-5.21295
0
-0.779855
-0.0392786
-0.59538
-0.506182
0
-4.17242
-0.573978
0
-0.175007
-3.48283
-0.190017
0
0
-2.97825
-2.96928
-6.49639
-0.643941
-4.38315
-4.06785
-2.19932
-0.827966
-1.13241
-0.228249
-1.43958
-2.92864
0
0
0
-2.6757
0
0
-0.545335
-0.21788
-3.90125
-1.91913
-0.699433
-1.7908
-3.45425
-1.62844
-3.47492
-0.838755
-1.63663
-6.27812
0
0
-4.81406
0
0
-7.85048
-7.35018
-3.61811
0
-0.0740183
-0.662533
-3.31049
-2.07759
-2.56236
-2.25335
-1.65765
-0.837567
-7.48404
0
-5.30512
0
-5.58216
-0.0845385
0
-0.204646
-3.8696
-4.02028
-4.78348
-1.77047
-2.33706
-2.35232
-0.121178
-0.533132
-1.07125
-3.49864
-2.64644
0
-3.20813
-4.58915
0
-5.51673
-4.9207
0
0
-1.67835
-1.07134
-0.0677977
-0.404054
-1.27539
-5.96395
0
0
-5.60322
-2.58605
-3.28978
-7.86195
0
-3.62318
-3.23184
-5.38666
-0.159635
-1.19112
-1.86984
-5.92308
-2.23011
-0.75648
-1.154
0
0
-5.65652
-0.332055
-9.63566
0
-1.90051
-2.19084
0
-0.624715
-4.0018
-2.6472
-0.463303
-3.26594
-1.53725
-0.729154
-0.56893
-3.17577
0
-0.290393
0
-1.52438
0
-0.850484
-3.07646
-1.31031
0
-1.51976
-1.02422
-0.770919
-3.00371
-3.31899
0
-1.30758
0
-3.1993
-0.542154
-0.341352
-4.16476
-4.8557
-4.58612
-8.01639
-0.242273
-5.84791
-1.67579
-5.89647
-3.85516
-10.9549
-1.35551
-7.33921
-0.512064
-3.59345
-1.94274
-2.814
-2.74959
-0.517631
0
0
-6.59629
-0.341256
-3.24309
-2.14408
-5.58603
-0.175157
0
-7.48145
0
-6.27498
-0.862818
-3.73484
0
0
-0.256876
-0.443272
-5.33461
-0.591374
-8.34366
0
0
-9.05798
0
-2.3531
-1.33982
-1.98068
-1.62887
0
-1.21352
-4.29399
-0.273935
-2.00334
-5.05228
-2.17454
-8.43168
-0.199909
0
-10.0959
-0.661198
-4.35977
0
-2.64776
-4.23656
-3.72396
0
-5.59479
0
0
-8.62035
-0.776933
0
-1.3631
-3.88384
-4.4987
-4.06681
-2.96946
-1.31074
-4.4419
-0.259764
-4.11292
0
-6.12984
0
-1.87901
0
-3.49563
-7.35822
-2.48041
-6.12641
-3.36898
-2.25328
-5.13822
-7.92642
-0.18109
-2.26937
-2.41866
-6.23313
0
-0.101527
0
-1.6443
-2.55863
-1.405
-2.80573
0
-3.3588
-0.139559
-7.8232
0
0
-5.50145
0
0
0
0
-2.16173
-3.76089
-1.41651
0
-0.460557
-4.00461
-0.346571
0
-3.71059
-0.541197
-6.21317
-0.593586
-3.5189
0
-0.292422
0
0
-3.44279
-4.07165
-7.39005
-3.46885
0
-6.64554
0
0
-3.62653
-0.796961
-6.21983
-1.33274
-5.3653
-0.126755
-2.28991
-1.00027
-4.07874
-3.35929
-0.139623
-4.99092
0
-5.21818
0
-5.9052
-0.856788
-6.05783
-2.71263
0
-0.936452
-4.1627
-6.75969
-1.35996
0
-6.67564
-2.54821
-4.20939
-0.0835117
-0.158089
-3.30772
-2.02339
0
-2.03731
-1.44036
-2.8314
-2.23356
-0.237656
-6.25953
0
-8.03109
-4.22756
-4.35388
-1.66825
-1.20888
-5.29822
0
-5.32387
0
-10.7968
0
-2.59956
0
-3.41624
-0.612556
-4.78241
-5.44225
-1.49852
-3.17947
0
-3.92509
0
-1.58983
-1.23646
-4.02093
0
0
0
-3.33991
-2.13717
-4.67954
-2.79532
-5.30645
-1.02901
-4.78517
0
-4.57789
0
0
-2.44601
0
-7.37656
-2.82028
-1.32707
-2.31781
-5.52022
0
-1.28932
-0.148371
-4.1022
0
-1.55737
-3.16341
-2.83909
-3.47293
-1.91945
-1.52319
-7.16223
0
-2.46411
-3.9122
-1.00641
-2.90025
0
-5.14975
-0.766132
-0.728564
-1.81528
-5.36332
-1.20893
-0.46989
-0.120723
-5.79283
-0.326728
-1.5885
-1.92569
0
-8.78586
-7.81402
0
-7.56694
-3.19771
-4.13737
-3.4358
-1.20964
0
-3.69028
-3.57144
-3.2767
-2.55606
-4.74402
-1.69006
-1.43235
-1.50141
-0.805731
-2.0996
-0.592033
-0.25404
0
-2.76668
0
-0.205373
-0.113067
-3.33496
0
-6.12467
0
-3.42557
0
0
-2.45614
0
-5.58384
-2.06121
-0.0333713
-4.34724
-0.288751
-0.571826
-1.20315
-0.126246
0
-2.67172
-1.86012
-5.34899
-3.68404
-3.93461
-2.77364
-2.41949
-2.03873
-3.47261
-0.878203
-3.85278
-2.70256
-0.774228
0
-7.82848
-2.75331
-0.109578
0
-6.0923
-0.595418
0
-6.59576
0
-3.25266
0
-6.05789
-6.93729
-2.44031
-3.72636
-4.12554
-5.54307
-0.0929667
-4.34459
-1.82101
0
-3.24966
-6.05146
-2.41072
0
0
-8.06569
0
-4.04729
-5.55398
-0.896072
0
-1.39382
-4.36721
-0.702059
-0.786098
-0.809884
0
-0.426121
0
0
-7.28386
-1.84828
-10.4017
0
-2.48516
-0.181443
-0.300138
-6.70268
0
-1.8967
-0.0317718
-5.31883
0
-3.97547
0
-0.396102
-2.14169
-4.8439
-4.49517
0
0
-0.651851
-5.63561
-1.3776
-7.70858
0
-0.77162
0
-4.80101
0
0
0
-4.37591
-1.41695
-0.248589
-4.46957
0
-3.22066
0
-1.99488
-5.57058
-0.214721
-0.732675
0
-0.21119
-0.449582
-2.52772
-0.121097
-2.04246
-9.42501
-1.93819
-9.22484
-1.2349
-5.42029
-2.23608
-1.74021
-2.52208
-2.39194
-4.85202
-3.20834
-2.89711
0
-3.52541
-0.488889
-0.902861
0
-1.62185
0
-2.357
-9.56691
-5.63661
-2.34637
-2.92106
-3.75361
-2.03198
-3.31923
-3.38886
-0.368309
-3.63628
-4.46118
-1.03646
-2.17269
-1.53406
-2.76247
0
-5.74056
-0.473584
-5.13121
-3.54616
-5.30825
-2.85835
-0.0960844
-1.75854
-3.44017
-1.10624
0
-6.78165
0
-4.98435
-0.246438
-0.995483
-1.62857
-2.54753
-3.25391
-3.2417
-1.61116
0
-1.77177
-1.26102
-2.35841
-1.26522
-1.36844
-4.41897
-0.063358
-5.54035
-0.550923
0
-2.17458
-2.68554
-4.40418
-0.604575
0
-0.602944
-2.39248
-5.63972
-7.38087
-1.2902
-2.12779
-4.45894
0
-7.04732
-0.87962
-9.65485
0
-10.5785
-1.89676
-8.02355
-4.51537
-1.29926
-2.90606
-12.5228
-1.36176
-10.1104
0
-8.04435
-1.66393
-0.709954
-6.91806
-1.20316
-3.338
-0.334167
-4.28073
0
-3.89819
-2.8946
0
-4.52736
0
-0.778092
-0.6107
0
-5.44305
-0.465153
-2.44471
-1.62967
-1.673
-2.29188
-6.09216
-1.45166
-0.0674455
-0.47485
-2.93592
0
-2.47207
-1.59791
-0.54532
-4.65477
-1.83689
0
0
-6.85552
-1.83554
-1.91581
0
-5.84475
0
-5.79301
-3.07168
-2.40586
-0.977455
-1.17936
-0.761184
0
-1.98577
-4.32213
-0.858672
-3.55438
-3.18018
-0.515362
-1.08277
-2.75454
-8.91623
0
-5.31813
-2.72513
-6.49877
-2.55415
-0.211027
-1.09515
0
0
0
0
-3.64325
-2.42347
-4.79873
-0.479316
0
-6.39883
-0.371163
-1.93118
-5.02103
0
-7.70398
-0.176038
0
-5.05652
-3.97361
0
0
-2.38619
-5.01077
-1.29131
-3.48566
-0.697877
-3.25694
-0.037898
0
-6.9767
0
-7.29805
-0.0872487
-5.93429
0
-3.59898
-1.76147
-0.362592
-4.00594
0
-4.75917
-1.69998
-0.456441
-2.3029
-2.02581
-0.852345
-1.03443
-6.19595
-1.55478
-0.294684
-5.79457
0
-4.26275
-1.80869
-2.00992
0
-0.368834
-2.62916
0
-3.80191
-0.0743424
-4.00997
-1.94119
-1.67016
0
-3.39809
0
0
-3.71273
-3.17034
-6.05965
-2.99294
-0.901723
0
-4.7554
-7.59836
-4.29233
0
-2.44045
-1.33437
0
-4.78878
0
-4.39892
-3.59283
-2.85525
-0.722149
0
-2.24027
0
-1.62385
-2.98758
-0.987029
-1.74693
-3.8364
-0.747574
-3.27923
-3.59709
-1.29397
-5.26234
0
-5.08007
-1.80421
-0.483251
0
-7.70508
-1.1698
-0.387074
-4.09285
0
-4.28972
-4.38312
-6.73684
-2.15953
-2.55581
-3.37611
0
-4.17001
-2.6065
-0.900403
-2.03405
0
-1.75635
-0.415312
-5.766
-1.70191
-1.66745
-0.0350994
-3.22065
0
-4.09051
-1.00194
-1.87724
-0.912705
-1.06793
-6.64789
0