<?xml version="1.0"?>
<VTKFile type="RectilinearGrid">
<RectilinearGrid WholeExtent="0 32 0 32 0 32" Origin="0 0 0" Spacing="1 1 1">
<Piece Extent="0 32 0 32 0 32">
<PointData>
</PointData>
<Coordinates>
<DataArray type="Float32" format="ascii">
0 0.524874 1.04975 1.57462 2.0995 2.62437 3.14924 3.67412 4.19899 4.72386 5.24874 5.77361 6.29849 6.82336 7.34823 7.87311 8.39798 8.92285 9.44773 9.9726 10.4975 11.0224 11.5472 12.0721 12.597 13.1218 13.6467 14.1716 14.6965 15.2213 15.7462 16.2711 16.796 
</DataArray>
<DataArray type="Float32" format="ascii">
-5.03879 -3.62163 -2.20447 -0.787311 0.629849 2.04701 3.46417 4.88133 6.29849 7.71565 9.1328 10.55 11.9671 13.3843 14.8014 16.2186 17.6358 19.0529 20.4701 21.8872 23.3044 24.7216 26.1387 27.5559 28.973 30.3902 31.8074 33.2245 34.6417 36.0588 37.476 38.8931 40.3103 
</DataArray>
<DataArray type="Float32" format="ascii">
0 0.524874 1.04975 1.57462 2.0995 2.62437 3.14924 3.67412 4.19899 4.72386 5.24874 5.77361 6.29849 6.82336 7.34823 7.87311 8.39798 8.92285 9.44773 9.9726 10.4975 11.0224 11.5472 12.0721 12.597 13.1218 13.6467 14.1716 14.6965 15.2213 15.7462 16.2711 16.796 
</DataArray>
</Coordinates>
<CellData>
<DataArray type="Float32" Name="Scalar" format="ascii">
0
0
0
0
0
0
0
0
0
0
0
0
0
0
0
0
0
0
0
0
0
0
0
0
0
0
0
0
0
0
0
0
0
0
0
0
0
0
0
0
0
0
0
0
0
0
0
0
0
0
0
0
0
0
0
0
0
0
0
0
0
0
0
0
-0.240979
-0.937654
0
-0.581694
-0.741211
0
-0.933319
-0.271927
0.0973632
-0.708771
0
-0.323939
-0.363685
-0.344935
-1.10156
-1.07006
0.0865945
-0.428773
0
-0.346608
-0.200701
0
-0.482049
-0.194287
-0.527909
-0.321812
0
0.298701
-0.656662
0
-0.765904
-0.193963
-2.23062
-0.257439
0
-0.415565
-0.168501
0
-1.53364
-0.175923
-0.0427314
-0.363888
0
-0.219257
-0.599935
0
-0.0680312
-0.501764
0.00929678
-1.16862
0
-0.510885
0
0
-0.64332
-0.122526
-0.0573834
-0.357005
0
-0.154972
-0.189703
0
-1.0407
-0.273745
0
-0.909604
0
-4.33863
-0.930198
-0.381405
0
-2.50376
-0.216803
-2.19049
-0.364145
-1.24979
-4.86884
0
0
0
-3.77919
-2.73529
-1.74481
-3.68206
-0.0837165
-7.56291
-0.257748
-3.17878
-1.91344
-6.96779
-4.05283
-1.84665
-2.00846
-0.0406794
-1.45653
-1.5891
-2.00586
-1.25617
0
-8.80942
0
-7.30711
0
-0.553538
-6.59128
-1.87566
-8.51173
-1.37376
-5.53655
-0.551694
-3.96586
0
0
-1.06323
-4.7786
-1.71384
0
-3.60552
-1.60441
-6.65517
-2.69949
-1.52159
-1.98603
-1.6742
0
-1.03182
-1.04656
-1.15086
0
-1.53748
-1.43045
-3.25494
0
0
-4.54423
-2.1775
-7.14033
0
-5.22534
-1.09603
-5.92085
-1.65795
-4.19464
-0.994316
-2.09732
-2.28301
0
-6.35688
-2.0414
-2.08056
-4.37042
-3.1103
-5.82999
0
-5.06749
-0.588934
-0.0351939
-3.39902
-1.05382
-1.36887
-1.20777
-3.11269
-1.83606
-0.601166
-3.75268
-4.85917
-0.232094
-4.8999
-1.53808
-1.87769
-0.665564
-2.01481
-0.332681
-2.24375
0
0
-1.91757
-4.49045
-4.29253
-1.36403
-2.48396
0
0
-6.10958
0
0
-0.572065
-5.07194
-0.02028
0
0
-2.48193
-2.53498
-4.09429
0
-6.61496
-6.44504
-1.19324
0
-6.44062
0
-1.77626
0
-2.90821
0
-1.68844
-0.0648316
-8.58338
0
-0.514846
-3.4206
-2.51798
-2.82416
-9.14039
0
-1.385
-2.96917
-0.376445
-4.2839
-1.52402
-5.73409
-0.506514
-5.14227
-4.75588
-1.49894
0
-4.12038
0
-3.59668
0
-2.1499
-2.83399
0
-1.92595
0
-0.0205336
0
-4.48392
-5.54016
-6.80192
-6.6856
-1.20794
-2.8532
-4.5316
0
0
-5.19525
-4.28218
-1.02496
-1.67717
-1.01297
-7.61137
0
-0.343253
-1.28026
-1.25013
0
-1.28539
-0.777069
0
-2.89239
-3.20644
0
0
-3.96183
-1.53221
-4.11495
-7.39369
-3.00222
-6.56969
-0.205977
-5.27714
-6.20461
-4.01337
-7.02245
-5.71834
-6.74294
-2.59252
-2.72643
0
-5.69633
-0.754947
-4.68137
-2.57186
-3.82323
-0.736373
-3.79125
-3.43848
0
0
-1.31799
-3.34956
0
-2.57698
-1.25997
0
-1.00728
-1.30676
-1.01942
-1.49782
-5.30058
0
-8.75804
-0.710269
-2.98579
0
-1.48001
-3.77333
0
0
-8.40282
0
-1.6324
-5.07453
-0.494207
-1.84044
-1.89508
-2.47937
-1.71468
-5.21939
-4.92401
-1.24842
-5.52939
-3.86503
-0.746175
-4.12
-1.45071
-0.611817
-2.45938
-3.2361
0
0
-1.45546
-0.358419
-4.26602
0
-7.51145
-0.584833
-4.1933
-5.65863
-1.27418
-1.13068
-0.180436
-5.2432
-1.41544
-4.63361
0
-5.13618
-7.19341
0
0
0
-0.0433817
-0.855465
-5.04534
0
-4.66953
-1.58777
0
-6.94019
-0.517159
-4.88602
0
-4.48064
-4.56647
-0.466529
-4.87344
0
-7.94473
-0.797156
-2.30416
-1.19624
-0.294923
-0.889794
0
-1.53821
-5.85984
0
-4.18609
-1.26473
-1.77212
-3.92164
-0.926589
-1.67075
0
-3.48356
-0.0312318
-1.40883
-3.05879
-2.09444
-1.9855
-0.927857
-0.204094
-0.63529
0
-5.28521
0
-7.47106
-1.01904
-3.91347
0
-3.6752
-6.06299
0
-5.59161
-0.721558
-5.96711
0
-2.04351
-3.39687
-6.11547
-0.222212
-8.21477
0
-0.503132
-1.0845
-1.08111
-0.229666
0
-5.98737
-0.169976
-6.88757
-2.18458
-8.20551
-1.29437
-5.81684
-8.23747
-0.181292
-2.1674
-1.8859
-7.97732
-2.4607
-8.98096
-0.913958
-7.41126
-0.934427
-4.13452
0
-2.49413
0
-4.61824
-0.623848
-4.87248
-2.67669
-1.36824
-4.17686
-2.87847
-4.62865
-3.73337
-1.95983
-3.17966
-1.32599
-4.1452
0
0
0
-5.04322
0
0
0
0
0
0
0
-0.981639
-4.93534
-4.24976
-2.31736
-2.28279
-3.31453
-0.289615
0
-0.534303
-6.87861
-5.13137
-2.92751
-4.10765
0
-3.01449
0
-0.900008
-1.78443
-2.73574
-6.01338
-0.164683
-5.61293
0
-3.54881
0
-0.86224
-5.83395
-0.162548
-3.33848
-2.02875
0
-0.638832
-1.94338
-1.34833
-5.59854
-0.487557
-1.40748
-0.389656
0
0
-8.77509
0
-5.50171
-2.08346
-6.82626
0
-3.11649
-1.36585
0
-1.21049
-0.134615
-0.688653
-3.3958
0
-1.21391
-4.57947
-0.0850445
0
-5.67871
-0.43191
-10.1227
-3.78272
-8.50658
-1.43169
-7.11484
0
-2.71164
0
-2.95891
0
-1.23769
0
-0.231731
-4.08887
-3.14749
-8.66595
-1.29678
-9.87989
-1.07243
-4.79695
-3.65273
0
-1.81633
0
0
-0.341916
-1.10731
0
-1.00587
0
0
0
-1.70977
-1.599
-4.85751
-1.15179
-1.43124
-2.88913
-1.44605
-1.63093
0
0
-2.25328
-1.4213
0
0
-5.43819
0
0
-3.42776
-2.45929
-3.16257
-5.86634
0
-3.66465
-1.76237
-2.31527
-1.21995
0
0
-1.74791
-0.106891
-4.72927
0
-3.55097
0
-2.78507
-0.154071
-2.27132
-0.212961
-3.77114
-1.18682
0
-1.03308
-3.84249
0
0
-2.06249
-0.295415
-5.53721
0
-6.83829
-0.240706
-0.654327
-1.4929
0
-3.16425
-2.73957
0
-3.14163
0
-2.11839
-1.18533
-5.34415
-0.321603
0
-2.36835
-1.33201
-0.405408
0
-4.74249
0
-3.18379
-3.00769
-1.47218
-0.642114
-4.13459
0
-1.19872
0
-5.65406
-0.39319
-1.28566
-5.47309
0
-0.807295
-6.85821
-1.62971
-8.05385
-0.588541
-3.31224
-0.650134
0
-1.67374
0
-1.09431
-3.24906
-0.101221
-6.77546
-1.96141
-2.72005
-2.74559
-6.22365
-4.69308
-1.06153
-0.715324
0
-0.922501
-2.12715
-0.037314
-6.346
0
-2.55536
-3.61034
-4.19018
-7.8356
-1.47105
0
-3.20318
-1.05708
-1.84224
-0.593173
0
0
-3.34911
-0.337507
-4.66892
-1.44821
-5.50067
0
-4.73046
0
-0.033863
-2.85213
-2.50756
-5.32691
-2.70991
-2.9998
-2.51403
-2.29748
-0.157865
-1.72935
-0.0277997
-3.22258
0
-6.0051
0
0
-2.462
-1.51612
-2.59556
0
-1.04917
-2.67353
-2.92952
-1.47283
0
-1.18364
-0.21205
-3.15957
-2.75244
-1.98441
-1.91287
-1.6603
-5.04228
0
-0.480591
-6.9141
0
-1.53833
-0.762745
-0.170185
0
-5.63707
0
-1.81818
-1.99501
-5.65376
-5.17699
-3.81045
-2.19613
-1.3322
-9.27108
-2.72122
-13.683
-0.646967
-5.9398
-3.74207
-1.45875
0
0
-1.86549
-0.419825
-0.786149
-1.91709
0
0
-3.16241
0
-1.11418
-2.04548
-0.467441
0
-3.02568
0
-0.0964084
-3.91592
-1.55227
-2.0531
0
-1.49445
-5.17145
-0.967364
-0.215425
-3.73724
-1.73616
-0.41922
-0.513067
-2.87676
-1.47909
-3.96555
0
-3.65151
-5.63744
-1.88576
-1.34771
-2.98685
-1.30566
-1.92421
0
0
-0.125672
0
-3.85547
-3.07688
-4.79311
-1.87332
-5.47033
-0.513585
-6.73295
0
-2.97638
0
-8.38088
-5.40722
-0.912175
-5.59838
-2.28449
-1.16621
-7.99707
-0.0133723
-3.43677
-1.13681
-6.19438
0
-3.07745
-1.34705
-3.09876
-0.445725
-6.50029
-0.678412
-0.47462
0
0
0
-3.47084
-0.265879
-0.470386
-0.382348
0
-4.67911
-1.19261
-2.71233
-3.68105
-0.750119
-0.475752
0
-0.336336
-0.814184
-1.59338
-2.94889
0
-5.69321
-0.816098
-7.43932
-1.41858
-5.66971
-0.732235
-3.13718
-0.166391
-3.24061
0
-7.17767
-6.12751
-5.93999
0
-4.58202
0
-1.20462
-5.18868
0
-2.39757
-0.858871
-7.10656
-0.783581
-0.714264
-0.952499
-1.73277
-5.93563
-0.198308
0
-5.70376
0
-7.13439
-0.730722
-0.753483
-1.00844
-4.12686
-2.70906
-4.31345
0
0
-2.13313
-3.34797
-0.841348
-1.45027
0
-3.15058
-3.37536
0
-4.95007
-1.30338
-6.97562
0
-6.18236
0
-5.92939
-0.739561
-3.72454
0
-0.274918
-1.08092
-6.1068
-1.66592
-4.39547
-1.93281
-0.671704
0
-4.95438
0
-5.39522
-0.511995
-2.42638
-2.86574
-4.30616
0
-0.167874
0
-10.0321
0
-3.84352
0
-5.83181
-2.07634
-1.88229
0
-2.00441
-2.01351
-0.424646
-4.42112
0
-7.44654
-2.58854
0
-1.10842
-2.75663
0
-4.70446
0
-5.60489
-1.89941
-3.9929
-0.689711
0
-2.64794
-0.891545
-5.85633
0
-6.08352
0
-7.15747
0
-9.95096
-4.037
0
-1.16038
0
-6.89293
-0.142438
-5.22789
-8.62331
-4.15789
0
-5.57913
-3.52933
-3.26973
0
0
0
0
0
0
0
0
0
0
0
0
0
0
0
0
0
0
0
0
0
0
0
0
0
0
0
0
0
0
0
0
0
0
0
0
0
0
0
0
0
0
0
0
0
0
0
0
0
0
0
0
0
0
0
0
0
0
0
0
0
0
0
0
-1.1052
-2.17715
0.0259768
-1.26337
-1.21768
0
-1.07099
-0.928585
-0.234727
-1.23761
-0.0800369
-2.15423
-0.725441
-0.0842381
-1.50271
-1.24434
-0.673916
-0.707998
0.0143433
-1.04392
-1.59361
-0.16754
-1.39238
-0.965583
-0.11455
-1.26362
0
-1.35793
-2.05112
-0.11319
-1.42074
-0.927388
-0.314229
-3.87321
0
-0.365189
-2.9844
0
-0.124056
-0.883965
-0.170632
-0.976683
0
-1.06395
-0.825802
0
-3.04735
-0.43053
-0.426061
-1.86218
0
-0.438355
-2.23636
0
-1.80717
-0.673877
-1.08111
-0.28956
-1.54856
-4.84975
-1.51414
0
-2.98746
-0.0332419
-1.07964
-6.70863
0
-5.57101
-3.17594
-1.21156
-2.41271
0
-2.82846
-2.35968
-2.8729
-1.65717
-1.56704
-3.20753
-2.48555
-3.20428
-4.37872
0
0
-6.21438
0
0
-4.5596
0
0
0
-2.31981
-0.687348
-6.75391
-2.86542
-8.10953
-8.81422
-4.20074
-0.359772
-5.7856
-1.28784
-2.09945
-4.81664
-5.73434
-1.63168
-2.32941
-0.140372
-0.419992
-1.01774
-3.66729
-1.41831
0
-7.02738
-8.11381
0
-0.555715
-3.61582
0
-1.17591
0
0
-2.00089
0
-2.28883
-1.792
-2.77567
-1.41102
0
-1.60035
-1.57304
-3.60737
-5.90926
0
-4.78171
-0.322933
-4.64945
-2.09328
0
0
-1.33373
-1.35621
-1.00047
-2.92199
-1.08737
-4.98912
-1.54615
-2.19678
0
-1.98642
-3.18409
-1.83183
0
0
0
-2.71411
-4.12003
-4.57885
-4.12897
-4.29159
0
-3.81183
0
-0.980782
-0.431862
-1.28105
0
-1.07998
0
0
-7.80741
0
-3.66533
0
-4.0383
-5.28463
-0.920604
-5.01246
0
-2.55452
-0.0566696
-1.66408
0
-0.995769
-4.2907
0
-3.05378
-2.99083
-5.31501
-3.06766
-1.72983
-5.11396
-4.09501
-1.52164
0
0
-5.59965
-1.33382
-0.415092
-0.138183
-2.70387
-2.33321
-2.62663
-2.88565
-6.29053
-2.64396
-0.881994
-8.11212
-2.12566
0
-3.52923
-4.07253
-3.04354
-1.75146
0
-3.32285
-7.90752
0
-6.80315
-0.134418
-4.1689
0
0
-6.10139
0
0
-4.32334
-0.0864753
0
0
0
-9.65387
-0.128155
-3.64311
0
-2.21272
-3.31642
-1.77356
-1.46351
0
0
0
-6.47612
-3.82779
-4.08452
-3.20005
-0.151133
-7.15256
0
-1.71134
-5.08528
-0.366821
0
0
-8.11944
-0.464731
-4.61453
0
-2.80825
-4.23663
-1.17968
-4.12878
0
-0.0489106
-3.00382
-3.86956
-4.26482
-0.731523
-7.20499
-1.99657
0
-1.37432
0
-2.05361
-1.49485
-3.03501
-1.08342
-3.64145
-0.628393
0
-3.19018
0
-0.316687
-0.929782
-0.437278
0
-2.94284
-2.19607
-0.0591824
-1.70157
-4.40654
-2.47892
0
0
-3.29458
-2.88313
-3.38924
-5.09006
-5.26704
-0.673563
-3.69476
0
-1.68672
-0.321795
-1.29102
-0.810705
-2.96466
-1.12193
-0.0195576
-2.74111
-2.24161
-1.96645
0
-0.979125
-7.15667
-1.08989
-3.23911
-4.43171
-1.27702
-1.18234
-0.933147
0
-1.23878
0
-1.96525
-0.57104
-1.73242
-6.92767
-2.80087
-1.09505
-4.60786
-1.87403
-4.84186
-7.40438
-3.12851
-2.0169
-2.17499
-0.299059
0
-0.362411
-6.49637
0
0
-3.74257
-2.08302
-1.6216
0
-0.176866
-0.661958
-0.948225
0
-5.97053
-1.03408
-7.0586
-2.9246
-1.85304
0
0
0
-0.437718
-5.88343
0
-1.36306
0
-3.58215
0
-3.59496
0
-1.12721
-0.218708
0
-5.58459
-1.47521
-2.53518
-1.17871
-3.27165
-1.61048
-1.30615
-1.79619
-0.273278
-0.0650236
0
-0.736345
-0.547295
-1.12988
-2.20541
-3.28982
-3.3106
-2.40558
-0.254638
0
-0.330317
0
-1.38534
-1.61457
-1.92077
-4.26972
0
-2.28537
-2.17709
-0.619815
-0.400159
-4.23125
-6.9572
-0.543299
-9.33238
0
-4.49034
-0.994066
-6.54968
0
-0.536954
-1.1094
-3.91843
-0.119944
0
0
-1.78101
-2.76332
-3.22149
0
-0.145802
-0.317671
-1.81492
0
-1.39251
-2.65942
-4.50201
0
-3.25442
-3.87124
-2.8585
-0.634771
-2.15265
0
-1.0074
0
-2.71987
-3.32501
-4.7393
-0.328543
-0.318985
-1.60651
-0.173749
-0.484344
0
-0.749247
0
-0.417288
-0.228731
-0.797805
0
-0.780613
-1.28169
-1.08721
-3.55812
-2.48316
0
-2.67836
0
-8.35375
-2.19382
-6.97041
-9.90304
-1.30471
-6.73212
-1.08066
-0.623778
0
-1.28557
-1.57502
-2.50676
-5.5659
-1.42004
-3.82927
0
0
-1.17436
-1.85756
0
-1.48894
0
-1.166
-1.17284
0
-0.708782
-0.830775
0
-6.4829
-0.689332
-5.66854
0
-3.48316
-0.407352
0
0
-3.7042
0
-0.274809
-0.473065
0
-4.27937
0
-8.64181
-3.27245
0
-5.00328
0
0
-0.43529
-0.480818
0
-1.8848
0
-1.34451
-1.3459
-4.49912
0
-2.42877
-2.50235
0
-1.00202
-0.729098
-4.88006
0
-1.75761
-0.435196
-0.233825
-0.390981
-5.46753
0
-4.87027
-2.99403
-4.18524
-2.97513
0
-7.84273
0
0
-2.17246
0
0
-0.346256
-0.420805
0
-3.41884
0
-8.31987
-0.197356
-5.45497
0
-4.13171
0
-7.04572
0
-10.6083
0
-7.97534
0
0
-0.925735
-0.938809
-0.553634
0
-2.59658
-0.710121
-1.71179
0
0
-5.79413
-3.86876
-2.80498
-2.73733
0
-1.90001
-0.0253898
-0.993757
-1.63423
-2.87843
0
-3.65932
-2.57228
-2.7225
-0.610956
-8.52993
-2.01577
-4.36504
-1.82889
-0.955983
0
-2.9755
-6.49657
-0.939362
0
-5.54415
-0.669782
0
-2.1155
-6.38065
-0.990685
-2.0765
-2.36852
-3.60382
-4.43943
-0.605854
-0.802163
-1.02079
-4.0881
-1.82219
-2.49526
-0.1356
-4.91191
0
0
-5.72241
-1.22872
-1.51869
-2.01031
-6.20196
0
-1.97972
0
0
0
-5.32074
0
-1.99217
0
-4.79861
-0.0694926
-3.8583
-1.69343
-2.77929
0
-1.24315
0
-0.0801935
0
-5.21824
-0.872849
-7.71747
-5.46371
-0.0439303
0
-1.13944
-0.506961
-0.944496
-0.351251
-5.61251
-0.792565
-6.79449
0
-1.68962
-5.64058
-3.24517
-3.25628
-1.19983
-4.81225
0
0
0
0
-1.52334
-2.80641
0
0
-0.881378
0
-1.41761
0
0
0
-3.12738
-1.23045
0
0
-5.6288
-0.681685
-8.21095
-0.178584
-4.7489
0
-1.80363
0
0
0
0
-0.873164
-1.54388
0
-1.83446
-6.59815
0
-0.777391
-3.23264
-3.00785
-1.23439
-1.59565
0
-2.52914
-0.362731
0
0
0
0
-0.727108
0
0
-0.0798751
-1.51704
-0.404389
-1.98215
-1.30809
0
-4.17246
0
-1.47187
-3.30616
0
-5.05912
0
-6.12586
0
-2.84045
-0.668635
-5.56063
-2.50713
-2.65637
-0.506118
0
0
-4.40318
-1.02347
0
0
0
-0.185804
-2.51667
-3.10968
0
0
-1.75567
-0.326965
0
-1.34321
-1.66752
-4.81302
-0.940907
-6.22832
-0.86626
-2.00884
-3.52924
-0.136622
-3.25814
-1.19741
-5.55232
-0.404129
-6.35535
0
0
-1.91222
-1.99583
-1.4944
-2.28509
-0.278151
0
-4.03403
-0.109475
-6.51337
0
-0.663968
-0.0747994
-3.08056
-2.4093
0
-2.18914
-2.91083
-6.13155
0
-0.347588
-1.99928
0
0
-1.39344
0
-3.42653
-1.8423
0
-2.22339
0
0
-0.147943
-1.40377
-2.72499
-0.768875
0
-3.23131
-1.84278
-3.5328
0
-0.042453
-5.37484
-6.41765
-1.47699
-2.45127
-0.329606
0
-5.1165
0
0
-0.922576
-1.42268
0
-3.8925
-0.97022
-5.16519
0
-3.09322
-0.115226
-8.56736
0
-3.33018
0
-1.33978
-1.3312
0
0
-0.732616
-2.08779
0
-2.58064
-1.8091
-5.33886
0
-0.996699
-0.336468
-2.82397
-0.686383
-1.38312
0
-6.28899
0
0
-7.71866
-1.65144
-4.00547
-1.01462
0
0
0
-1.0279
-3.52984
0
-0.238467
-2.51532
0
0
-11.1014
0
0
0
-2.24033
0
0
-2.53071
0
-0.408622
-1.52572
0
0
-10.0584
-1.33846
-0.0703535
-2.30527
-1.10041
0
-3.35834
-5.22961
-2.72465
-1.50514
-1.70567
-2.45009
-5.94686
0
-4.11019
-0.0539633
-2.6163
0
0
0
-3.81276
-1.83925
-3.12317
-0.28644
-2.47892
-4.07188
0
-7.23871
-6.13759
-3.5824
-3.80817
-3.04855
-3.30843
0
-0.358229
0
0
-1.29888
-2.02837
-4.0938
-0.611441
0
-6.30374
0
-0.0191246
-0.0765613
-6.31989
0
0
0
-2.02812
0
-2.6075
-2.51537
-2.09912
-6.97536
0
0
0
-8.07535
-0.0267214
-0.61745
-0.539619
0
-1.38815
0
-4.99211
-2.29337
-3.88304
-6.44977
-1.79088
-0.698929
0
-7.45388
-5.05889
-1.90322
0
-2.83883
0
-1.00892
-6.26876
-6.81458
-7.43883
0
-8.28523
-1.11459
-0.721141
-0.938299
-7.1854
-1.61307
-2.8735
-2.84745
0
0
0
0
0
0
0
0
0
0
0
0
0
0
0
0
0
0
0
0
0
0
0
0
0
0
0
0
0
0
0
0
0
0
0
0
0
0
0
0
0
0
0
0
0
0
0
0
0
0
0
0
0
0
0
0
0
0
0
0
0
0
0
0
0
0
0
-0.293638
-0.0215457
0
-0.628622
-0.0484105
0
-0.305662
0
0
-0.351355
0
0
0
0
0
0
0
0
0
-0.159807
0
0
-0.0393371
0
-0.0051966
0
0
0
-0.132884
0
0
0
0
0
0
-0.11113
0
0
0
0
0
0
0
0
0
0
0
0
-0.00669752
0
0
-0.0259002
0
0
0
0
0
0
0
0
0
-1.44817
-1.0935
0
-1.90045
-2.04019
-1.58028
-0.881364
0
-0.309957
0
-3.44631
-0.642697
-6.17373
0
-4.33965
-0.939849
-3.7452
-6.50645
-0.323442
-4.66551
-0.936075
-3.18803
-0.624187
-3.35834
-4.2426
-0.507059
-3.15361
-0.416971
-3.21371
0
-1.28715
-0.330055
-0.0807897
-0.951658
-1.48585
-3.98117
-0.916256
-3.94713
-0.423196
0
0
-0.265902
-7.77189
-2.30784
-0.35199
-5.48007
0
-0.45945
-0.101346
-6.0422
-2.122
-1.545
-0.502927
-6.3312
-1.38892
-6.71197
-6.18992
-2.8888
-5.13698
0
0
-2.35207
-6.02143
-0.715445
-1.69131
-1.63786
-0.207769
-0.78598
-1.01948
0
0
-3.29983
-2.6373
-3.09728
-1.85077
-7.20684
-4.45591
0
0
0
0
-6.06242
-1.46595
-1.96402
-1.33371
-2.88235
-1.19259
-2.19629
0
-1.56163
-2.36625
-5.7764
-0.771562
-6.57733
0
-4.10769
-2.84148
-3.32319
-2.6725
-5.05159
-1.807
-3.01905
-2.76989
-0.810323
-5.33604
-0.846146
-5.73795
0
0
-0.684754
-0.568749
0
-1.15104
-5.09738
-1.80748
-7.10486
-2.20308
-5.12941
-0.625634
-3.35108
-2.82095
-1.0786
-2.12087
-0.995577
-0.412854
0
-1.58708
-5.07243
-1.80727
-7.09179
-6.67282
-2.89384
-3.86222
-3.71495
-0.515852
-5.25801
0
0
0
-1.5459
-4.6758
-0.737507
-3.88099
-2.00782
-4.61035
-0.588254
-0.622903
-1.61934
-2.54423
-0.194043
-0.576013
-4.30205
-2.62384
-4.76483
-0.592533
-5.55128
0
-0.908374
-1.00924
-2.58029
-5.02757
-1.73318
-1.41051
-6.07513
-1.47525
-3.01703
-0.752445
0
-8.09781
0
-0.516058
-0.750939
-2.61802
-1.31194
-4.73109
-0.875035
-3.63098
-5.3738
-5.90334
-2.16518
-5.62121
0
-1.90549
-5.46619
0
-0.617502
-7.05854
0
-0.560014
-1.40711
-4.75356
-1.88985
-0.194951
-0.338178
0
-5.41981
0
-2.27046
-2.50895
-0.774017
0
0
-0.678158
-5.41763
-2.24389
-9.36667
0
-5.66481
-1.45227
-1.63426
-0.936321
0
-5.85054
-0.0602186
-1.99698
-3.55585
-1.69311
-1.83437
-1.71536
-0.959423
-2.43627
-2.28876
-3.03236
-0.626683
0
-2.13596
0
-5.00683
-0.302207
-3.04537
-0.735129
0
-1.14062
0
0
-0.0526152
-3.46031
-1.43928
-4.40399
-6.80356
-0.203836
-1.6221
-0.864434
-2.03639
-0.874303
-4.33752
-2.57582
-4.18014
0
-8.35114
-0.17859
-2.20629
-6.11379
-2.74321
0
-2.79256
-1.23736
-3.21194
-2.74902
-3.22439
-2.63099
-0.159539
0
-6.21066
-0.800015
-3.90276
-0.256775
-0.505787
-0.158184
-0.403931
0
-5.28042
-1.74215
-5.14544
0
-6.34309
-1.17152
-4.0562
-5.56569
0
-3.63673
-1.73465
-4.46319
0
-4.09421
-0.240382
0
-0.225071
-3.36883
0
-4.09372
-9.94886
-1.14292
0
-1.04263
-3.52642
-3.1896
-0.294126
-3.17132
-1.70734
-3.11712
-2.56869
0
-6.27722
0
-1.63284
0
-1.97326
-9.24583
0
-3.96398
-1.1818
-2.94477
-6.16641
-0.626595
-4.49729
-2.03209
-3.73968
0
-3.97936
-0.760916
-2.44571
0
-0.108078
-5.9411
-5.90858
0
-2.75362
-1.55821
-0.0762898
-1.50587
0
-4.12434
-0.0741584
-4.65819
0
0
-0.624371
-3.19592
0
0
-3.49761
-2.77777
-0.984188
-0.00875454
-4.48997
-0.684904
-7.89195
0
-4.53073
-3.934
-1.10849
0
0
-2.14675
-5.69229
-0.547483
-1.53613
0
-6.2778
0
-3.26076
0
-6.09427
0
-6.10481
-6.57041
-8.72755
-3.94195
-9.20877
-0.256604
-9.00436
0
0
0
0
-5.88664
-2.06161
-3.3804
-1.255
-3.70379
-1.39089
-0.77314
-5.12005
-5.29872
-1.42651
-4.17336
-1.30614
-1.48404
0
0
-1.08236
-2.87495
-0.63094
-3.02679
-0.930891
-1.30129
-0.519198
-0.311328
-7.06083
-1.57382
-2.89327
-1.83962
-4.17126
0
-0.283823
0
0
-1.49827
0
-1.42349
-1.90212
-2.91769
-1.78695
-4.94005
-3.95831
-3.39158
-1.87423
-6.46364
-1.13757
-2.96154
-2.24619
0
0
-0.86476
-1.84834
0
-5.65846
-0.628648
-2.10218
-0.971201
0
-3.89836
0
0
0
-1.59837
-0.689527
-0.305145
-5.48093
0
-0.412678
-4.95086
0
-5.64765
-1.88953
-1.18708
-4.67969
-3.22194
-3.0302
0
0
-1.65865
-1.00854
-2.46841
-4.70868
-2.77291
-1.38875
-1.91745
-1.30065
-2.87512
-2.27526
-4.16783
-2.91443
-2.3958
-1.03225
0
-1.75092
0
-4.34013
-1.01428
0
-7.85009
-2.08086
-6.17507
-1.24882
-0.853498
-3.30669
-0.866351
-4.04934
-3.03399
0
-5.62213
-1.19104
-2.72663
-4.62539
0
0
-1.03966
-0.454112
-1.15974
0
-6.23218
0
-7.05464
0
-1.81764
-1.90568
-5.0991
-1.79527
-3.91854
0
-6.49519
-0.253138
0
0
-3.49983
-1.2109
-3.36886
-4.968
-0.36972
-4.94001
0
-2.04544
-1.73335
-1.18392
-1.13507
-1.37542
-0.875323
-0.0701957
-3.40794
0
-6.35816
0
-1.40121
-6.60116
0
-3.38856
-1.05261
-2.60076
-1.63123
0
0
-1.58975
-1.40088
0
0
-1.73228
0
-4.92308
0
-0.907917
0
0
0
-3.12786
-1.56887
-1.9764
-2.46304
-2.10541
-3.74518
-1.5998
-5.19938
-1.98099
0
-5.62619
-1.20253
-4.26918
0
-6.68006
-4.12394
-0.82641
-5.1482
0
-2.26234
-0.0766082
-2.38571
-0.951522
-4.94005
-4.73802
-5.06763
-3.00995
-1.81627
-4.52222
-1.24949
-2.06376
0
-3.50347
-1.68347
-5.07772
0
-4.40871
-1.41593
-1.47483
0
-1.68173
-0.142942
-3.45785
0
0
-2.56269
0
-0.717975
-4.81161
-1.54727
-4.02096
-1.89523
-0.867013
-3.56909
-2.79502
-4.26987
-1.37087
0
-1.12911
-8.26965
-3.00269
0
0
-1.48106
-5.87512
-3.43904
0
0
-0.987063
0
-4.70559
-0.337303
-9.29212
0
-6.75163
-3.94058
-1.27925
-7.04652
-3.66721
-7.52718
0
0
-4.82779
0
-3.84243
-3.3752
0
-8.02842
-1.4606
-3.6387
-2.26196
0
-1.77754
-1.33188
-3.69774
-2.39941
-2.81647
-3.39445
0
-2.56443
0
-0.69422
-1.35036
-0.726742
-6.67436
-0.490338
-1.95789
0
-4.00288
0
-1.00281
-0.472304
-0.686492
-2.39811
-1.59258
-6.53754
0
-7.6481
-1.88487
-3.12219
0
-1.6845
-6.65906
-3.95217
-0.441548
-3.40686
-0.877145
-1.87323
-0.329364
-3.87971
-2.13141
-2.79837
-5.51251
-2.8885
0
0
0
-0.934418
-1.38687
-0.674633
-3.14999
0
-4.26707
-2.76369
-1.70653
-0.529048
0
-3.37605
-3.70892
-1.74316
-1.04584
-1.85204
-3.93756
-5.72497
-0.149
0
-2.78427
0
0
-0.851487
0
-0.690103
-1.66272
-1.3667
-1.20846
-1.94652
-1.78289
-2.22402
-4.99697
-1.15965
-0.636941
-3.78051
0
-4.92937
0
0
-0.00818705
-3.73858
0
-7.81085
-1.20482
-6.37063
-0.478078
-7.63857
0
-0.119327
0
-2.44371
0
-5.71047
-0.054814
0
0
-0.221439
-3.53065
-0.567745
-1.42498
0
-2.94817
-0.914432
-2.10426
0
0
0
-8.08308
-1.45729
-1.01917
0
-0.0120591
-0.168695
-1.77749
-7.02089
0
0
-2.48257
-1.04198
-3.82939
-4.58484
-4.84209
-0.509377
-0.319143
-3.53882
0
-1.35587
-3.15987
-0.358289
-3.0574
0
-4.31078
0
-4.70447
-0.0808645
-3.07074
-0.417308
-3.4361
-0.88987
-2.51118
-0.503663
-6.37545
0
-4.1199
0
-1.61785
-2.96678
-6.59428
-0.659104
-0.632548
0
-4.79598
0
-3.40809
0
-3.25749
0
-6.60315
-3.26725
0
-3.68203
0
-1.90952
-1.87753
-6.65788
-5.12579
-0.967073
-7.70953
-1.87608
-0.750444
-1.69839
-1.30441
-3.09674
-0.836205
-0.683676
-0.373763
-7.39031
0
-1.53405
-8.96498
-5.16563
-0.69575
-5.89843
0
-4.8794
-2.40965
-0.326051
-3.64777
0
0
-1.13233
0
-4.49675
-0.934383
-2.56441
-1.39744
-0.275373
-3.42627
-2.08115
0
-1.41031
-1.48262
-5.94037
-2.2493
-3.08935
-0.0112559
-5.93034
0
-1.36146
-4.78502
-4.06058
-0.162085
-4.0719
-0.191407
-2.30609
0
0
-4.40705
0
-4.58546
0
-2.74586
-0.280028
-5.1153
-1.59006
-4.89385
-2.20248
-6.61496
0
-5.74497
0
0
-1.26929
-5.10736
-5.80507
0
-1.16411
-5.40883
-5.9995
-1.64414
-3.19239
-6.09489
-2.80146
0
0
0
-4.96708
0
-5.20199
0
-1.71899
-2.24894
0
-3.6304
0
0
0
0
0
0
0
0
0
0
0
0
0
0
0
0
0
0
0
0
0
0
0
0
0
0
0
0
0
0
0
0
0
0
0
0
0
0
0
0
0
0
0
0
0
0
0
0
0
0
0
0
0
0
0
0
0
0
0
0
0
0
0
0
-0.168774
-1.06683
0
-1.05598
-1.93777
0
-1.475
-1.53216
-0.0339829
-1.33858
0
-0.906934
-0.653155
-0.0811066
-0.921289
-0.733009
-0.126159
-2.03612
-0.16123
-2.4726
-0.775243
-0.0725388
-0.72603
-0.89105
0.013577
-0.607566
0
-1.42848
-1.23064
-0.15268
-1.88841
-0.665752
-1.01427
-0.800134
0.094617
-2.27256
-0.18274
0
-3.38626
-0.37835
-0.417899
-1.77768
0
-0.447976
-1.46106
0
-0.936802
-1.03468
-0.55788
-0.0503349
-0.25844
-3.07095
-0.402064
0
-2.05135
-0.0267349
0
-3.98992
0
-0.525639
-1.89267
0.0285687
-0.453671
-0.793185
-2.12907
-3.73178
-0.169276
-4.27492
-2.27437
-1.89833
-0.903377
-4.4314
-4.55363
-1.23446
-4.42826
0
-2.9559
0
-3.84222
-2.6793
-2.22815
-3.46044
-1.99585
-5.05537
-1.24459
-3.07139
-1.87112
-2.13181
-3.52822
-2.34509
-3.15585
-1.37059
-4.74404
0
-4.47547
-7.14363
0
-8.81149
0
-1.23335
-2.73438
-2.87656
-0.51691
-4.85198
-4.52706
0
0
-4.2305
-1.26141
-8.70711
-2.84367
-8.20598
0
-5.72739
-0.318521
-7.10728
-1.94886
-5.44804
0
0
-5.20948
-0.682063
-0.859362
-6.45595
-5.81358
0
0
-2.0263
-1.16517
-3.57499
0
-2.25424
0
0
-5.75821
0
-2.10844
-3.27151
-0.173995
-0.28453
-1.65927
-4.4244
-3.03116
-6.5014
-2.30391
-6.31557
0
-4.44742
-0.673142
-3.67083
0
-0.71593
0
-2.36231
0
0
-0.425086
0
-1.05663
0
-0.160176
0
-5.29897
0
-2.92674
-3.20423
-1.55982
-0.459918
-6.47588
-1.12222
-2.53276
0
-5.71141
0
-3.95248
-1.97421
-2.96122
0
-1.5187
-2.20239
0
-4.81504
-0.926791
-4.05451
0
-2.22348
-6.34364
-0.0558884
-6.3199
-3.10432
-7.51422
-2.04186
-2.08837
-1.29375
0
-4.05578
-1.08114
0
-4.27963
0
-4.72557
-0.277375
-9.89751
-0.992781
-5.15922
-5.45309
-4.32109
-3.6655
-3.07603
0
-4.10867
-1.39858
0
-4.56424
-0.500025
0
-1.55085
-0.0770768
-3.49992
-1.95529
-7.88547
-0.108104
-0.143924
-3.74819
0
-3.64142
0
-0.407837
0
0
-1.94277
-6.74834
-0.4128
-6.49187
-5.35624
-1.25423
-3.15396
-3.15541
0
0
-3.98691
0
-5.72639
-8.12755
-3.92053
-5.84466
-3.465
0
-4.23248
0
0
-2.56571
-3.04372
-11.6278
0
-4.35886
0
-6.06146
-1.44349
-4.48409
0
-6.61241
-1.26042
-2.45314
-5.12143
-1.28785
-3.02958
-5.3593
0
0
-0.525164
0
-0.825432
-0.776377
-0.00506733
-0.768554
-1.19127
0
-0.21665
0
-3.40011
-0.606533
-2.32145
-4.76679
-0.84704
-1.96679
0
-4.04922
0
-6.12488
0
-0.255365
0
-0.258861
-4.47324
-3.3763
0
-7.91291
-6.0341
-2.21198
-2.74329
0
0
-0.244287
-2.02877
-5.01977
-1.07003
-8.58553
0
-5.29313
-0.872715
-4.12165
-0.127072
-0.617558
-2.32658
-3.73779
0
0
0
-1.56317
0
0
-3.05859
0
-2.30377
-7.75832
0
-1.9512
0
-4.18167
0
-1.69743
-3.5403
-4.8389
-0.413438
-0.38612
0
-2.43296
0
-1.12619
0
-3.05677
0
-0.703678
-7.43462
-0.665569
-2.71965
-1.04414
-4.90839
-4.26226
-2.82571
-4.47344
-2.89842
-1.50768
0
-3.68347
-0.99888
-6.02485
0
-7.13722
0
-4.70125
0
-0.0556009
-3.67
-3.89717
-4.33412
0
-10.3078
0
-2.85013
-3.31411
-0.696943
0
-2.25494
0
-5.28976
0
-1.51933
0
-0.994995
-2.77978
-1.088
-0.51636
0
-6.24124
0
-5.07704
0
-0.714611
-9.12021
0
-5.67992
-3.23519
-2.14158
-2.21092
-2.20412
-2.95748
0
0
0
-4.40605
-3.55904
-4.3705
-2.31327
0
-7.18521
0
0
0
-9.094
0
-5.24389
-0.10505
-0.191062
-7.87386
0
-8.10958
0
0
0
-0.54973
-1.05089
-1.08592
-0.572553
-1.07463
-10.0034
0
-4.11672
-1.32412
0
-0.968558
-1.96759
-0.904101
-0.658099
-1.69855
-1.56543
-1.95063
-5.96755
-1.64728
0
-1.60937
-0.640224
0
-3.29237
0
-0.915477
-0.123685
-3.0894
-0.0347796
-4.78543
0
-7.14276
-0.78588
-6.30933
0
-2.47341
-0.123952
-1.29877
-3.91442
0
-5.88789
0
-4.4694
-3.38536
-1.99438
-0.217953
0
-4.30624
-2.45083
-5.75112
-0.315635
-5.79653
-0.144899
-1.83815
-0.701393
-1.01611
0
-1.24431
-0.797135
-0.29481
-1.37724
0
-2.99437
-0.492834
-6.36102
0
-7.65508
0
-3.71271
0
0
0
-1.66446
-0.914245
0
-1.28127
-1.18585
-5.21678
0
-1.06128
-1.70434
0
-1.2651
-5.54367
-0.56821
0
0
0
-0.0327008
0
-1.23844
-1.23043
-1.75772
-7.79414
-6.05283
-4.76651
-0.891917
-5.99759
0
-6.8913
0
-7.38309
-4.91626
-1.15149
-5.14038
-2.32361
-1.6746
-4.75064
-3.15611
-0.915843
-0.580445
-4.2806
-0.624611
-4.65684
-2.60035
0
-3.35128
0
-1.90622
-0.830176
0
0
-1.2726
0
0
-1.05901
0
-3.99901
0
-5.42187
0
-3.099
0
-5.85791
0
-3.8001
0
-0.872134
0
-3.88459
0
-3.46187
-1.39259
-5.16278
-0.0200123
0
-1.27907
-0.997907
0
-1.55893
-2.50044
-2.5233
-0.214401
-1.37956
0
-5.2652
-1.37238
-3.01801
-1.3214
-3.28188
-2.01037
-3.63869
0
-2.72279
-2.93393
-2.89666
-2.38829
-5.14586
-0.048976
0
-6.39267
0
-2.64482
0
-6.45521
-2.95829
-5.9215
-3.10807
-4.61377
-0.804044
-4.90105
-0.145282
-0.991962
0
-4.17568
-2.32725
-1.29561
0
-1.10788
-3.87985
-2.56434
-1.91793
-8.34276
-5.1082
-0.232983
0
-9.94264
-0.740953
-0.752774
0
-4.48135
0
0
0
-4.35706
-0.870629
-1.86798
-3.27481
0
-5.53469
0
-2.46293
-1.12874
-2.2957
-1.95607
-1.42045
-1.43373
0
-4.50277
0
0
-0.20989
-1.2436
-0.39277
-3.10322
0
-9.58934
-0.281587
-5.19971
-0.307424
-3.3418
-2.20827
-4.54797
-0.261101
-5.45709
0
0
0
0
-0.181409
-0.25016
0
-2.98408
0
0
-5.30362
-0.258623
0
0
-3.35022
-5.93033
-0.929062
-0.811539
0
-4.16229
-2.24107
-1.59735
-3.72766
-1.37213
-0.816974
-2.48111
-0.233775
-1.50477
-3.52394
0
0
0
-1.15095
-0.629169
0
0
-2.28561
-2.24805
0
-0.45811
0
0
-0.682991
-3.41613
0
-2.37887
-2.27605
-4.40592
-1.18308
0
-1.38014
-0.831175
-2.46182
-3.3379
-0.047716
-1.88584
-1.52344
0
0
-4.04892
-0.588332
-4.1254
0
0
-5.56133
-0.658352
-4.61782
0
-0.845835
-1.53773
0
0
0
-4.15196
0
0
0
0
-2.72694
-1.14121
-2.22822
0
-1.32945
-0.10079
-1.66779
0
0
-3.1739
0
-1.80358
-2.33586
-0.773613
-3.8421
-1.99533
-3.51055
-0.456599
-3.07666
0
-4.25544
0
0
-0.194284
-0.387758
-3.84445
-1.27784
0
-1.20608
0
-6.83803
-1.69923
-1.76995
-3.71238
-1.05435
-2.78597
-0.724493
0
-5.85469
0
-7.28475
-1.8083
0
0
-4.55349
-1.31412
-0.906409
-2.12783
0
-1.67005
-5.86461
-1.15912
-1.71828
-3.98503
0
-1.68163
0
-1.15576
-2.94077
-2.23473
-5.87827
-1.3575
-1.53215
-2.10098
0
-4.29082
-4.40985
-4.35948
-4.75854
-1.56517
-3.45671
-3.78482
-1.53317
-1.50634
0
-0.151824
-4.6957
0
-1.56228
-1.50114
-2.38407
-3.11903
-2.07883
-0.0791554
-6.05514
-0.891676
0
-2.62265
-2.89082
-3.38657
-2.48682
-0.543674
-4.09602
0
-7.32007
-2.57564
-5.86988
-3.48186
0
-5.10789
0
-3.13676
0
-0.0790522
-1.32016
-2.97508
0
-4.22941
0
-4.74748
0
-4.38325
0
0
-0.0485892
-2.44293
0
-1.6924
-4.38839
-2.26622
0
-4.27446
0
-0.785943
-4.66414
-4.66352
0
-3.43823
0
-1.72759
-3.80319
-3.73634
-0.23419
0
-5.43716
-2.68439
0
-6.17687
-1.95452
-4.84486
-2.58031
-0.569755
-2.54175
-0.872717
0
-0.427108
-4.5451
-1.42853
-0.144802
0
-5.98524
0
-1.07294
-3.4337
0
-2.95898
0
-2.1112
-0.371434
-4.07792
-2.30388
-0.919845
-6.48193
-2.45205
-4.661
-0.0588078
-3.02878
0
-3.54767
0
-2.49983
0
-3.63453
-1.56986
-0.743381
0
-3.80471
0
0
-1.22109
-6.4256
-0.510267
-2.97345
-2.20628
-0.846632
0
-2.28835
0
-7.74102
-0.282032
0
-2.24739
-0.350128
-2.63537
-1.07857
-2.02314
0
-1.66043
0
-1.98724
-4.15394
-0.794047
-6.01152
-4.03287
-1.22037
0
-2.04229
-0.951488
-5.54866
0
-1.76724
0
-2.49717
0
-5.384
-0.414828
-5.70442
-0.890919
-4.35247
0
-3.23453
0
-3.80214
-4.92149
-3.37538
-1.76535
0
0
0
0
0
0
0
0
0
0
0
0
0
0
0
0
0
0
0
0
0
0
0
0
0
0
0
0
0
0
0
0
0
0
0
0
0
0
0
0
0
0
0
0
0
0
0
0
0
0
0
0
0
0
0
0
0
0
0
0
0
0
0
0
-0.131146
-1.29542
0
-0.949836
-1.79758
0
-0.89187
-0.806327
0.0316948
-1.02221
-0.698053
-1.37054
0.0658399