<?xml version="1.0"?>
<VTKFile type="RectilinearGrid">
<RectilinearGrid WholeExtent="0 32 0 32 0 32" Origin="0 0 0" Spacing="1 1 1">
<Piece Extent="0 32 0 32 0 32">
<PointData>
</PointData>
<Coordinates>
<DataArray type="Float32" format="ascii">
0 0.524874 1.04975 1.57462 2.0995 2.62437 3.14924 3.67412 4.19899 4.72386 5.24874 5.77361 6.29849 6.82336 7.34823 7.87311 8.39798 8.92285 9.44773 9.9726 10.4975 11.0224 11.5472 12.0721 12.597 13.1218 13.6467 14.1716 14.6965 15.2213 15.7462 16.2711 16.796 
</DataArray>
<DataArray type="Float32" format="ascii">
-5.03879 -3.62163 -2.20447 -0.787311 0.629849 2.04701 3.46417 4.88133 6.29849 7.71565 9.1328 10.55 11.9671 13.3843 14.8014 16.2186 17.6358 19.0529 20.4701 21.8872 23.3044 24.7216 26.1387 27.5559 28.973 30.3902 31.8074 33.2245 34.6417 36.0588 37.476 38.8931 40.3103 
</DataArray>
<DataArray type="Float32" format="ascii">
0 0.524874 1.04975 1.57462 2.0995 2.62437 3.14924 3.67412 4.19899 4.72386 5.24874 5.77361 6.29849 6.82336 7.34823 7.87311 8.39798 8.92285 9.44773 9.9726 10.4975 11.0224 11.5472 12.0721 12.597 13.1218 13.6467 14.1716 14.6965 15.2213 15.7462 16.2711 16.796 
</DataArray>
</Coordinates>
<CellData>
<DataArray type="Float32" Name="Scalar" format="ascii">
0
0
0
0
0
0
0
0
0
0
0
0
0
0
0
0
0
0
0
0
0
0
0
0
0
0
0
0
0
0
0
0
0
0
0
0
0
0
0
0
0
0
0
0
0
0
0
0
0
0
0
0
0
0
0
0
0
0
0
0
0
0
0
0
0.10183
-0.992929
0
-0.575962
-0.0362651
0
-0.853697
-0.725239
0.0729628
-0.766071
0
-0.227328
-0.893538
0
-0.338567
-0.523317
-0.492356
-0.459643
-0.0220939
-0.16914
-0.286112
0
-0.903155
-0.689104
0.202219
-1.0729
0.0175294
-0.0063895
-0.372007
-0.00209457
-0.260244
-0.31863
-1.43299
0
0
-0.272861
-0.0376418
0
-0.725605
0
-0.668596
-0.863409
0
-0.0709268
-1.09676
0
-0.0426224
-0.1828
-0.523216
-0.315926
0
-0.671539
-1.08616
0
-1.10595
0
-0.122089
-0.486449
0
-0.00954955
-1.0179
0
-0.983265
-0.62358
-0.0508123
-3.18725
0
-1.34126
-3.73173
-1.0766
0
-4.25107
-1.15438
-1.55007
-2.90196
-4.1761
0
-2.57838
-3.88383
-4.24303
0
-2.31445
0
-4.33426
-5.15952
-0.325127
-2.03441
-0.423748
-2.8753
0
0
-1.30162
0
-0.594696
-3.79093
-4.71149
0
-0.946193
-2.12568
0
0
0
-1.56332
0
0
0
0
0
-4.70849
-0.747443
-0.0708399
-0.87931
0
-4.10355
-1.14868
-2.324
-2.04302
-2.11491
0
-0.831149
-2.82787
-2.66288
-3.80144
0
0
0
0
-2.13202
0
-0.486882
-3.95544
-3.65917
-3.66131
-1.19972
-0.623628
-2.63921
-4.26877
-4.44197
-3.24358
-5.08604
0
-4.13464
-0.537971
0
0
-1.4838
0
-0.325761
0
0
-4.8264
0
-1.29553
-1.4871
-2.6214
-2.99215
0
-3.22798
-1.82649
-5.54991
-5.15096
-1.27114
-1.63541
-1.99961
0
-2.71035
-3.24535
-1.92048
-1.40013
-0.388624
-5.53948
0
-7.23
0
-1.56208
-0.221757
-3.13251
-3.1224
-2.68569
0
0
-1.70766
-3.63123
-1.09067
-2.32593
-2.35018
-0.475529
-7.05568
0
-6.47156
-2.4403
0
-2.47427
0
0
0
0
-1.15521
-1.46342
0
-8.81819
-6.25574
-5.1255
0
-0.986948
-4.20102
0
0
0
-1.53089
-2.4877
-3.22615
0
-4.67891
0
-5.98581
-1.6597
-3.56052
-3.60858
-0.713263
-1.72249
-2.41446
-2.04863
-5.4866
-1.35635
-5.12233
-1.74212
-4.38084
0
0
-4.77937
0
-1.34517
-4.36869
-0.378115
-5.04179
-1.43154
-4.0835
0
-6.54704
-0.103098
-3.8527
-2.71007
0
-4.29244
-0.302994
-0.682635
-3.64942
-2.34239
-2.39325
-1.32553
-3.23274
-1.26837
-0.755295
-0.531274
0
0
0
-5.2731
-0.668812
-0.0658106
-1.34087
-3.81629
-6.09695
-3.45808
-1.86135
0
-1.75041
0
-1.36734
-3.65595
0
-4.5837
-0.177682
-0.0809114
0
0
-2.75119
-0.36793
-1.88928
0
-0.155819
-7.22631
-2.53803
-2.12173
-2.45359
-0.86835
-4.04983
0
-4.68358
0
-6.36356
0
-7.39292
-2.83654
-1.92636
-1.8532
-1.05694
-7.14713
-0.0502915
-2.45796
0
-0.823874
-9.26503
0
-3.34045
-8.05732
0
-4.72894
-1.22774
-1.2142
-4.83389
0
-1.48442
-1.08489
0
-1.53411
-1.70957
-0.960873
-10.4393
-0.516933
0
-1.27464
-0.438863
-0.0816468
-0.41112
0
0
0
-8.03694
0
-0.186974
-6.44136
-3.64651
0
-0.505144
-5.05605
-2.59854
0
0
0
-1.28026
0
0
-6.30112
-2.77456
-2.49087
0
-1.48732
-0.748145
-9.25937
0
-1.77911
-2.20931
-1.85505
-1.94777
-2.90765
-5.58463
-7.96192
-1.94211
-1.09481
-0.0684549
-1.24767
-9.15582
-1.39218
-2.48293
0
-8.20301
-4.12723
-0.5894
-0.528564
-2.87469
-3.21799
-3.01627
0
-4.29529
-3.01209
-6.44791
0
0
-2.20031
-0.531948
-2.20186
-3.86523
-5.99771
0
-9.43043
0
-2.89178
0
0
-1.34046
-6.0967
0
-9.92856
-0.93377
-1.92417
-0.215234
-2.00558
-1.72468
0
-1.9699
-1.10872
-2.67889
-0.177577
-7.16982
-1.41479
-3.21667
-1.29446
-3.09003
0
-7.57473
0
-6.83633
-0.248705
-0.340869
-1.62704
-2.47338
-0.374916
-6.67101
0
-3.69305
0
-1.05057
-0.82846
-5.55625
-1.51373
-2.34469
-3.17319
-2.58595
-0.0818552
0
-1.23627
-0.476117
-1.16755
0
-2.50989
-0.7048
-1.16498
-1.98803
-2.12467
-3.04565
-1.61319
-4.28359
0
0
-2.74609
-4.23484
0
-0.43686
-2.25095
-0.0915612
-0.532119
0
-7.99524
0
-4.61371
0
-1.30989
-0.24108
-0.252797
-0.561555
-0.968948
-3.30857
-0.310712
-9.71968
0
0
-4.70756
-0.337727
-7.74861
0
-10.1545
0
-9.11405
-1.87036
-8.48122
0
0
-1.23819
0
-3.92105
0
0
0
0
-6.50163
0
-0.17146
-1.24542
-2.23271
-4.43938
-6.35384
0
0
-0.451014
-3.10535
-0.0283412
-1.22364
-7.85095
0
-3.76272
-4.22876
-3.48044
0
-0.0952202
-6.5443
0
-2.55649
-3.60264
-1.7413
-5.79093
-2.81267
-0.970819
-5.94342
-7.44486
-6.02467
-4.54683
-7.57935
-2.14562
-2.30135
-5.8295
-0.88407
-1.89626
0
0
-0.211292
-2.71095
-1.82031
-0.110379
-8.50642
-0.438029
-0.861656
0
-2.20932
-2.13973
-2.83034
-2.67687
-4.13907
-4.61851
-6.16292
-0.422228
0
-2.12832
-6.49466
-1.27933
-3.65479
-2.62007
-0.389297
0
-4.11381
-3.23818
-2.87981
-4.14242
-2.22678
0
-1.05484
0
-2.92084
-3.78997
-3.64087
-0.886492
-1.97327
-0.89074
0
-6.20095
-0.388221
-6.38401
0
-2.80516
-3.72317
-0.475959
-0.987532
0
-1.29467
-3.64924
-2.58419
0
-3.59258
-4.08007
-3.01888
0
-1.18778
-1.61723
-4.5158
0
-1.0036
-2.39841
0
0
0
-1.28087
-1.40524
-5.23688
-0.871422
0
-8.51567
0
-0.64987
-0.400244
-1.96779
-1.90258
-2.08772
0
-3.83997
-0.571137
0
-3.0213
-1.01958
-6.91007
-1.56907
0
0
-0.117749
-2.66489
-1.42937
-3.1314
-3.62059
0
-0.140125
-6.00534
-2.57924
-5.08603
-6.28944
0
0
-7.0446
0
-8.80909
0
0
-5.28213
0
0
-1.11754
-2.89947
-3.68821
-1.86747
0
0
-5.25191
0
-2.40736
-1.42942
0
-3.39323
-0.185508
-6.56745
0
-0.433892
0
-4.79614
-6.48443
-6.02732
-5.60848
-4.78546
-1.91786
0
-2.17183
-2.82083
-7.01331
-3.17054
-3.29641
-5.12739
-0.0270737
-2.9372
-0.86539
-3.22513
-5.1795
0
0
-10.1241
0
0
-1.68804
-0.0633457
-1.20766
0
-1.99779
-1.35397
-1.91365
-2.00211
-1.27055
-1.4015
-5.94823
-1.78817
-4.55287
0
-8.37454
-4.12749
-2.69571
0
-7.19241
-0.359353
-6.34469
-1.5037
-6.71447
-6.3896
0
-0.257811
-0.877242
-2.57744
0
0
-2.28227
0
-2.48657
-2.98862
-7.06776
-1.75082
-4.76856
-3.8908
0
-3.8514
-1.72727
0
-1.76139
0
-6.71757
0
0
-9.95612
0
-2.23481
0
0
-1.09624
-1.01731
-2.97976
-0.258447
0
-0.21642
-1.87913
-0.110539
-4.98211
-3.72656
0
-0.340051
-1.51755
-4.79154
-0.652851
-7.29614
0
-2.38192
0
0
-1.82647
0
0
-0.559919
-3.84524
-2.66041
-1.25871
-3.45703
-1.01861
-6.51819
-0.0587241
-3.22389
-0.503419
0
-1.46624
0
-0.506974
-2.80971
-1.98325
-0.244261
-0.644986
-3.95481
-0.731223
-3.23339
-0.0902982
-0.415449
-0.727942
-0.840562
0
-0.819646
-0.484696
0
-3.25129
-4.72746
-2.39795
-1.72747
-0.94006
-2.74835
-3.7908
-5.91664
-1.3955
0
-0.824538
0
-7.93339
-0.418822
-2.30021
0
-3.0451
-0.494184
0
0
0
-0.67594
-2.3862
-4.16285
-4.50385
-2.14089
-0.839998
0
-1.32583
-1.48384
-0.579566
-0.397627
-6.98286
0
0
-0.724042
-2.68994
0
-4.23446
-1.36328
-4.30576
-1.79503
-1.65566
-7.66561
-4.47593
-0.877372
-6.58328
-1.80167
-1.88186
-4.25278
-3.68202
-1.95943
-4.77432
0
-2.2258
0
-1.5682
-3.70012
0
0
-0.981457
-1.28619
0
0
-6.25902
0
-5.47188
0
0
-2.58077
-3.57036
-2.13371
-1.1017
-4.58634
-0.418071
-2.41573
-4.83213
-0.774788
-5.27325
-1.17551
-0.407829
-2.64994
-3.65409
-3.5035
-0.524457
-3.53066
-7.4432
-4.1092
-5.22633
-0.100548
-0.704164
-3.43074
-2.1362
-5.51011
-6.85276
-11.0049
0
-3.43718
0
-7.11853
0
-4.37281
-2.11136
-0.0798714
-1.32045
-4.84344
-0.0442633
-0.624695
0
-2.05063
0
-1.12552
-0.796733
-6.33589
0
-8.57488
0
0
-2.66473
0
-0.17805
0
-3.37512
0
-3.62915
-0.200917
0
-3.94746
-2.44426
-3.82061
-0.526748
0
-8.10043
0
-0.062517
-1.04872
-4.16697
0
0
-5.65155
0
-0.325947
-1.68205
-2.35191
0
-0.791241
-3.81695
-3.62543
-3.93196
-4.9386
0
-0.0322476
-3.09117
-1.84979
0
-7.76091
0
-0.737677
-5.11698
-0.33895
-1.28989
0
0
0
-0.24773
-1.63231
-4.03959
-6.71547
-3.35604
-6.83416
-2.38325
-3.11313
0
-5.26075
0
-4.09358
-0.465775
-0.88558
-2.44793
-1.00186
-1.74314
-3.54455
0
0
0
0
0
0
0
0
0
0
0
0
0
0
0
0
0
0
0
0
0
0
0
0
0
0
0
0
0
0
0
0
0
0
0
0
0
0
0
0
0
0
0
0
0
0
0
0
0
0
0
0
0
0
0
0
0
0
0
0
0
0
0
0
-0.756083
-1.04014
0.0101629
-1.35916
-1.45044
-0.0104573
-0.998104
-0.644006
0.104441
-0.617236
0
-1.19106
-1.13625
0.00987816
-1.64472
-0.713394
-0.3155
-1.90579
-0.0666315
-0.883174
-2.25559
-0.0301839
-1.81415
-1.00621
-0.851076
-0.420669
0
-1.04969
-1.14136
0
-0.628401
-0.747941
-0.366207
-2.1714
0
-0.22305
-2.61377
0
-0.370646
-0.596678
-1.01889
-0.0841982
0
-1.3343
-0.901483
0
-1.92447
-0.136649
-0.363988
-1.72149
-0.138917
-2.3425
-2.41949
0
-0.649843
-0.582212
-0.731603
-0.903616
0
-0.987973
-0.278834
0
-2.13733
-0.331728
-0.495708
-2.26602
-1.63869
-5.84505
0
0
-5.21398
0
-0.756728
-5.11895
-1.11199
-3.25686
-3.23106
-0.146158
-4.68056
-1.89854
-3.71513
-2.7891
-1.87534
-0.98338
0
0
-4.94901
-0.0268761
-4.82096
-6.36499
-0.484365
-3.69238
-2.14943
-5.97841
-0.809673
-1.26322
-1.53964
0
0
-0.119815
-5.26379
-3.07952
-2.92174
0
-2.78312
-1.09305
-3.66777
0
0
-0.958543
-2.10354
-3.2108
-0.443475
-1.84621
-0.162526
-2.05218
-0.181385
-1.35836
-4.28969
0
-5.47304
-2.96172
-2.29886
-2.91389
0
-6.79967
-1.02758
-3.51994
0
-7.79828
0
-6.4204
-2.5404
-0.790649
-8.11394
-1.95265
-6.85701
0
0
-1.90047
-3.04868
-0.36148
-2.74197
-2.01418
-1.93584
-0.645473
-1.93436
-1.20062
-3.45911
-3.15777
0
-2.36648
-0.33672
-1.44275
0
-3.52222
0
-0.746041
-0.929963
0
-6.09861
-0.421586
0
-5.90876
-0.558034
-9.54304
-1.57219
-2.39965
-0.936861
-1.17706
-5.89818
0
-4.73196
0
-2.69695
-0.210593
-2.39294
-0.440044
-0.397637
-2.55561
-0.92888
-0.956963
0
-4.51236
-1.07197
-5.93799
-1.29149
-1.23531
-4.50965
-2.33455
-11.2538
-1.61287
-1.47283
-6.60656
-3.7417
-7.09207
-0.614636
-1.78727
-3.05182
-9.70762
0
-1.99299
-1.01881
-8.44863
0
0
-8.10827
0
-5.97526
0
-4.30528
-1.88191
-1.20652
-3.77755
-0.201222
0
-0.806236
0
-5.573
-3.66548
-2.15067
-2.88214
-1.85667
-0.293889
-0.541323
0
0
-3.86839
-5.76194
-4.54019
-0.297244
-1.79242
-5.91074
0
-3.01548
-0.329601
-5.56183
0
-3.66856
-0.418334
-0.346888
-1.61572
-0.182041
-4.23009
0
-7.50205
0
-1.58088
-1.14333
-1.85561
0
0
-1.23041
-10.1872
-0.780672
-8.49946
-2.89914
-3.44633
0
0
-4.9506
0
-0.306217
-0.185868
0
-0.110057
-3.6945
-2.4804
-1.55749
-0.863902
0
0
-1.5053
-1.01724
-2.46658
-1.05352
-2.69941
0
-0.348821
-2.54357
-9.83495
-3.77968
0
-4.37046
-1.5403
-0.78162
-2.30472
-0.729293
-0.267726
-3.62241
0
-7.08475
-4.65993
-0.567586
-1.91837
-0.0114854
-1.47853
-0.0400282
-4.53143
-1.49396
-3.87469
-6.45884
-1.58693
0
0
-0.29743
-1.80576
-4.83231
-1.42675
-4.45439
0
-0.46878
-4.56075
-0.120194
-4.3778
-0.274455
-2.97601
0
-2.03354
-0.0241085
-3.86233
-3.52278
-1.14338
-2.7256
0
-4.8886
-1.3685
-2.56286
-6.28472
-0.480142
-0.663639
-7.59473
0
-4.72176
0
-4.382
-0.792706
-1.14428
-1.10812
-2.77872
-2.88196
-2.54383
-5.28462
-1.61188
0
0
-4.26554
-0.759573
-5.4579
-3.21381
0
-1.81732
0
-0.633029
-1.08029
-1.73199
-2.48613
-1.38634
-2.51481
-0.885092
-8.37236
-6.55154
-7.64869
-0.485349
0
-2.77271
-2.47193
-1.38011
0
-1.7895
-3.35098
-1.09795
-2.46819
-3.84365
-3.54803
-3.01653
-1.02168
0
-4.67649
-3.57752
-2.29911
0
-0.84162
-1.57296
-1.33973
-1.26919
-0.497263
-1.73809
-3.21283
0
-5.96963
0
-0.187159
0
0
-2.16484
-0.0779777
-5.92253
-2.75478
-3.5683
-1.61909
-1.27406
-3.54357
0
-4.60432
-0.0181717
0
-4.322
-1.55337
0
-2.45183
0
-1.90973
0
-4.4434
-1.02087
0
-5.18892
-1.41701
-4.28031
-1.4165
-2.40448
0
-4.19932
-0.713082
-0.926892
-5.14558
-2.14959
-0.199647
-2.85523
-0.555124
-3.52939
-6.15328
0
-2.89356
-4.33705
0
0
-0.0863227
-5.30418
-0.696635
0
-0.342398
-0.139894
-7.7406
-3.08743
-4.31084
0
-2.19905
-3.86296
0
-6.07878
-2.97965
-7.64006
0
0
0
-7.90533
-0.210267
-5.90643
-2.10436
-1.90081
-2.88109
-5.9752
-1.59856
0
-2.77627
-5.49768
-0.537285
-3.91015
0
-1.19347
-1.27222
-0.236556
-4.1965
-2.11572
-0.596305
-0.907903
-8.45182
-0.0572915
-2.73285
-1.75151
-1.97111
-2.62398
-2.34021
-0.0299064
-1.48325
-2.36173
-0.307215
-2.99001
-1.93914
-0.721489
-0.460009
-0.719787
-5.54182
-1.32825
-1.49822
-6.04796
-1.1462
0
-5.14252
-0.616541
0
0
-6.68953
-0.684715
0
-0.201116
-3.51178
0
-5.46245
-1.50297
-4.13382
-4.96691
0
-3.02428
-9.47061
0
-3.04137
-7.07635
-3.49532
-0.731992
-0.0767332
-3.33237
-2.04171
-7.99888
-2.37276
0
-5.74556
-0.419419
-7.30347
0
-6.71799
0
-1.75437
-1.94793
-2.28857
-1.26969
-4.5398
0
-8.88872
-0.235589
-6.78421
-0.0111632
-1.32653
-3.98067
-3.17156
-1.46311
-3.18035
-3.78249
0
-3.29125
0
-5.41062
0
-4.10313
0
-4.99758
-1.84398
-0.680889
-1.7704
-5.90884
0
0
-3.1042
-2.47689
-0.262697
-0.192627
-1.54701
-1.00125
-1.68754
-5.10464
0
-9.41036
0
0
0
-1.06747
-3.71768
0
0
-5.43011
0
-7.37388
-0.528234
0
-3.12066
-5.12453
0
-6.47826
0
-4.18409
-0.221509
-0.87396
-9.50089
0
0
-5.70968
-9.82245
0
-7.43431
0
-3.08799
-7.3238
-2.55686
-3.4083
-1.00257
-2.49173
-2.968
-2.24573
-3.47342
-4.17678
-3.39935
-7.07429
-1.79202
-0.837938
-1.71805
-4.96814
-11.0869
0
-1.77394
0
-0.303291
-2.08227
-4.95592
-9.59074
-3.30291
0
0
-4.38101
-0.761205
0
-1.48014
0
-0.265605
0
-2.53281
-0.449763
-3.77458
-4.48593
0
-2.70692
-0.307648
-2.13734
-2.04747
-4.76564
-1.92848
-0.179334
0
-2.75547
-4.40984
-3.66776
0
-5.52684
0
-0.87423
-2.29653
-2.92773
-3.40778
-1.30419
-4.10965
0
-1.9615
-5.60891
-1.88615
-0.359395
-7.70565
0
0
-7.62086
-0.783601
0
-5.04422
-5.5351
-2.67188
-1.6087
-3.34819
0
-0.531734
-0.186084
-8.7793
-6.23306
-0.766531
-4.88222
-0.574524
-7.91574
-0.521735
0
-0.450823
-0.502789
-1.56095
0
-1.5822
0
-0.152215
-1.99135
-1.53379
0
-7.39584
0
-2.76807
0
0
-2.39904
-6.01966
0
-1.3463
-0.545675
0
-2.42342
-4.09051
-3.23502
-3.76433
-0.925609
-0.352846
-0.0125178
-4.68669
-1.07985
0
-1.06845
-8.22625
0
0
-2.623
0
-6.86208
-4.74994
-5.33144
-0.787495
-2.80544
-0.595457
-9.59128
-1.65789
-9.04992
-1.66583
0
-3.07961
-2.72914
-2.08935
-0.487413
-0.0821395
0
0
-4.89821
0
-11.8611
-1.7453
-4.94922
-1.95124
-5.92821
-0.22133
-3.84472
0
-2.34576
-0.414957
0
-11.7484
-0.811059
-4.41059
0
-5.51196
-1.36311
-7.02802
0
-2.70871
-0.517644
-2.62923
0
-0.540633
0
0
-4.99365
0
-3.66946
0
-5.39312
-3.51442
-2.62457
-0.243911
-2.73679
-3.09122
0
-0.290272
-2.47996
0
0
-4.91793
0
-4.67669
0
-2.34684
0
-0.228462
-2.88496
0
-0.767967
0
-6.28613
0
-4.832
-2.95692
-2.29017
-1.84077
-4.31636
-1.26793
-5.4101
-2.49469
-5.05624
0
-0.850019
-2.66172
0
-4.33494
-0.745094
-3.36633
-3.81715
-2.42476
-2.56549
-2.25059
0
-0.450614
0
-0.681378
0
-0.856779
-0.778466
-3.48803
0
-0.359486
-7.05051
-1.95957
-8.23301
0
-5.05733
0
0
-4.03848
-1.34
-1.68184
-2.43689
-8.07632
-3.86493
-5.13197
0
-0.52798
0
-5.19541
-0.512744
0
0
-3.44508
-2.42656
-2.07035
-4.45791
-0.959417
-2.51884
-3.04449
-0.574688
-5.00363
0
0
-1.8574
-5.32369
-2.35912
0
0
-1.86375
-0.36559
0
0
-0.0750524
-0.0250717
0
-0.510213
-0.911543
-6.07687
-0.232453
-4.98737
0
-4.78721
-1.0652
-8.63471
-1.71774
-2.51946
-0.0648286
-5.76008
-1.31287
-2.48882
-3.56551
-3.50593
-4.16375
-0.0602118
-0.376695
-0.438133
-0.233077
-6.15788
-1.73817
-3.82982
-3.04868
-4.6326
-2.93994
-2.17917
-3.9159
-2.54594
-6.27063
-3.18128
-0.730803
-6.5419
-1.00039
-0.586635
-1.29363
-10.638
-0.109264
-7.48332
0
-9.20571
0
-1.36602
0
-6.22476
0
0
-3.95837
-1.33009
-2.03252
0
0
-0.612703
-1.50175
-7.12153
-1.53954
-4.60703
-5.69908
0
-6.96659
-0.940689
-3.18957
-2.22161
-1.68768
-1.8073
0
-6.815
-4.40641
-3.80869
0
-4.46402
0
-1.68322
0
-1.91625
-3.08872
-0.670201
-3.18778
-2.27726
0
-2.00377
-1.66357
-2.58711
-5.09505
-0.0317262
0
0
0
0
0
0
0
0
0
0
0
0
0
0
0
0
0
0
0
0
0
0
0
0
0
0
0
0
0
0
0
0
0
0
0
0
0
0
0
0
0
0
0
0
0
0
0
0
0
0
0
0
0
0
0
0
0
0
0
0
0
0
0
0
-0.0684046
0
0
-0.341745
-0.189082
0
0
0
-0.121353
-0.03128
0
-0.481297
-0.0546174
0
-0.0117091
0
0
0
0
0
-0.0698965
0
0
0
-0.0699964
-0.0316038
0
-0.543797
0
0
0
0
0
0
0
0
0
0
0
0
0
0
0
0
0
0
0
0
0
0
0
-0.160851
0
0
0
0
0
0
0
0
0
0
0
0
-1.02756
-3.37081
0
0
-1.87954
-1.00483
-0.956739
-2.29006
-0.13393
-1.56074
-3.25814
-0.967083
0
0
-3.81476
-2.40234
-1.47856
-2.91822
-0.0641601
-1.64801
-3.71665
-0.189167
-4.35266
-0.972041
-0.846543
0
0
-5.34851
0
0
-0.761559
-2.45514
0
-6.25976
0
0
0
-1.51885
-1.30868
0
-0.922589
-1.95954
0
0
-2.8038
-2.64093
-2.18194
-0.191828
0
-1.67012
-0.489525
-0.946839
0
0
-0.231276
0
-1.52778
-0.757068
-3.80168
-0.0416537
-4.05471
0
0
0
0
0
-0.703351
-4.91426
0
-4.51899
-0.152619
0
-7.71318
0
-0.947653
-0.656373
0
-0.385691
0
-1.63678
-1.47025
-0.569732
-0.106316
0
0
0
-0.546914
-2.66894
0
-2.97385
-1.14958
-0.874184
0
-7.93842
-0.107003
-7.35761
-1.58518
-10.4621
-0.645209
-1.82004
0
-2.96629
-1.43402
-0.329286
0
-2.09443
-1.66912
-2.7365
-0.834167
0
-1.4548
-0.0355521
0
-8.37248
-0.170072
-0.126521
0
-3.55437
-0.969587
-0.229229
-0.662155
0
-2.40928
-4.52506
-3.28635
-1.15114
-2.73999
-2.40058
-1.40231
-2.86386
0
-0.422582
-2.07365
-2.17344
-0.49153
0
-0.924944
-4.34284
0
0
-2.65021
-3.24652
-4.27056
-3.62703
-2.63741
-2.13267
-1.84098
-0.929603
-4.45635
-1.14187
-1.49036
-7.65904
-3.18363
-8.40734
-2.11673
-1.92797
-2.83485
0
-0.393463
-4.39003
0
-0.417423
-2.45629
-1.91247
0
-3.34485
-8.89586
0
-2.33489
0
-2.3616
-1.89978
-4.48947
0
-1.94768
-1.25032
-0.911457
-3.69674
0
-1.10528
0
-0.358388
-1.74271
0
-6.67265
0
-5.89433
0
0
-3.53432
-5.91464
0
0
0
-5.58436
-0.71985
-0.273576
-1.99061
0
-2.55981
-0.0780294
0
0
-0.379563
-1.40496
-0.421981
-6.3808
-1.13658
-7.84274
-0.0860252
-0.797422
-0.186821
-1.51987
-2.2809
-0.924507
-4.12007
0
0
-3.7277
0
-2.4338
-0.827041
-2.91405
0
0
-0.177207
-1.74306
-7.50641
-4.77985
-0.201417
-2.68413
-0.732763
-2.28446
-2.47203
-3.38555
-1.39376
-0.324431
-1.94265
0
-8.10714
-1.38643
-5.54391
-2.75953
-1.88331
0
-2.24634
-2.72521
-5.82952
-0.149565
-1.21118
-2.48334
-2.26792
-1.86478
-8.01572
0
-8.21093
-0.0785058
-2.9477
0
-1.38304
0
-1.73523
-3.64145
-0.752063
-1.12634
-8.16645
-0.375194
-4.16137
0
-10.3737
-1.06143
-2.02581
-0.540841
-5.80919
-3.19072
-4.68354
-2.43031
-0.628411
0
-2.33476
-3.02913
-2.69975
-5.13296
0
0
-0.951245
-3.55834
-0.727666
-1.54424
-5.26464
-6.32648
-2.01672
-4.69525
-1.23342
-7.99268
-3.61721
0
0
-0.528133
-2.17715
-4.6103
0
-1.40383
0
-4.90061
0
-0.697254
-1.46853
-0.786978
-3.0927
-2.88619
-2.33461
-4.58431
-0.0493407
0
0
0
-4.76013
-2.33887
-2.84705
-0.678948
-2.02686
-2.54552
-4.46122
-2.35522
-1.6887
-0.299949
-1.66997
-6.7074
-2.42025
-8.88695
-7.52615
-2.28814
0
-1.66328
-1.98261
-0.884195
-3.16701
-1.87554
-1.64646
-0.440206
0
-5.7624
0
-8.28498
-4.59175
-6.5535
-4.61416
-1.51757
0
-1.30508
-1.20613
-2.25661
-5.10478
-2.24882
-1.00655
-2.24968
-3.18872
-2.44795
-0.646423
0
-8.58934
-0.899034
0
-4.08889
-1.1716
-1.20579
-1.12741
0
-8.29526
0
-6.16976
-3.13176
-5.38657
-4.10837
0
-2.51837
0
-7.90684
0
0
0
-2.21237
-3.7004
-4.12084
-2.69106
-1.23022
-1.09153
0
-4.31881
-1.22689
-6.96988
-3.25238
-0.663486
-0.542062
-3.14895
-2.6641
-5.64995
-1.35443
-0.926392
-0.761988
-5.95889
0
0
0
-3.11825
-5.73383
-4.46612
0
-0.371545
-0.453996
-1.10152
-4.61798
0
0
-2.64824
-3.10542
-1.50804
0
0
-1.32397
-3.36405
-1.97978
0
0
-0.537066
-7.25543
-0.955975
-3.68048
-0.821876
0
0
-1.52968
-0.550474
-0.775906
-6.80949
-2.18469
-1.30854
-7.92812
0
0
-3.17134
-0.298493
-1.85783
-3.175
-0.279144
-5.39329
0
-3.03487
-0.618347
-7.38409
-0.877001
-0.573049
0
-5.29338
-5.8534
0
-9.60211
-2.27831
0
0
0
-4.16572
-12.351
0
-1.43577
-1.40665
-1.38072
0
-6.87563
0
-9.0045
-2.8035
-2.6825
-10.971
0
-0.457035
-4.59691
0
-3.04618
0
-0.891899
0
-0.287936
-2.18382
-4.42979
0
-3.04311
0
-2.96246
0
-1.62919
-0.0514806
-0.445963
-1.7951
-4.88334
-1.22071
-3.16139
-3.36982
-6.41799
-1.16248
0
-0.344537
-9.44204
-0.400736
-6.65276
0
-0.425583
0
-0.229855
-2.9484
-8.69998
-3.54141
-0.461267
-0.973856
-0.67729
-0.491995
0
0
-3.37648
-0.684343
-2.13098
-3.67494
-0.329542
0
0
0
-1.71416
-2.03033
0
-0.534235
-2.57527
-3.17508
0
0
-4.29521
0
-9.51735
-0.128392
-2.46005
-3.55865
0
-0.26036
-1.04894
-5.27467
-4.86011
-5.17121
-3.61285
0
-1.29276
0
-0.949878
-3.48701
-0.496191
0
-1.81181
-3.34366
-2.82641
-0.955071
-4.44329
-0.80105
0
-0.4186
-7.40385
-5.42241
0
-1.60623
0
-1.43603
0
0
0
-3.96382
0
-7.61347
-1.24692
-2.56947
-1.40066
-2.51498
-1.69919
-1.21817
-4.00112
-0.436809
-7.58792
-2.37135
-1.17271
0
-4.6287
-0.11194
-1.54078
-3.78144
-5.89739
-0.950483
0
-2.33147
-0.0584331
-1.28958
-0.977585
-0.187377
-1.50604
-4.48521
-2.28106
-8.13598
-2.74028
-8.1466
0
0
-3.44508
0
-2.45643
-6.37019
-0.0818843
-5.44306
-2.88501
-4.12265
0
-1.78875
0
-1.72503
-4.09461
-3.15328
-1.24352
-3.40976
-3.99187
-2.20172
-6.36629
-6.12606
-0.149055
-2.17321
0
-5.30754
0
-3.82491
-3.53768
0
-1.43554
-2.72448
-0.0112511
-6.37194
-1.32872
0
0
-6.70323
0
-6.78437
-0.77635
-5.28778
-1.17911
-0.36937
-1.07279
-6.94722
-4.05985
0
0
-9.05608
0
0
-4.3263
-2.13272
-4.25851
-2.01215
-3.25376
-0.354961
-0.846366
-3.52885
-4.28933
0
0
-5.68257
0
-0.0380817
-4.83271
-0.960004
-1.65859
-6.37103
-2.11764
-7.92805
-9.56484
0
-0.0430803
0
0
0
-3.15822
0
-3.79052
-0.478721
-6.34864
0
-3.55197
0
-6.06695
-0.0494879
0
-1.46154
0
-7.03901
0
-1.15834
0
-4.42465
0
0
-3.06805
-2.02204
-5.26538
0
0
-0.228389
-3.18616
0
-3.37082
-1.9988
-1.55991
-1.57268
-1.55239
-3.1367
-2.33271
-4.22162
-0.603533
-5.70215
0
-4.99853
0
-0.65516
-1.67398
-0.126511
-4.44655
-1.00961
-3.96267
-6.86685
-6.90965
-0.0696888
0
-0.419052
-0.429127
-2.01503
-5.35359
-1.69388
0
0
-3.11453
0
-5.62763
-0.328932
-9.18615
-2.00691
-5.95588
0
-0.224343
-5.42368
0
-9.9423
-1.59767
-8.27843
0
-6.85305
-1.64132
-6.41119
-7.00973
-0.285372
-7.8966
-0.191564
-0.29046
-4.04333
-1.50736
-1.56011
-0.0316615
-2.25535
0
-3.40108
-3.54248
0
0
-2.98228
-0.356478
-6.70776
0
-5.01349
0
-11.8564
0
-1.60063
0
-4.2194
-2.62484
-1.55042
0
-1.88564
-0.0419844
-2.20937
-2.23416
-1.56369
-0.181248
-0.356082
0
-9.24606
-0.732626
-1.02888
-2.03187
-3.77268
-2.42083
-7.106
-1.87814
-6.21906
-6.74245
0
-6.53305
0
-1.01253
0
-0.520421
-0.935555
0
-6.92671
-4.54444
0
-4.00776
-1.15886
-5.05089
-2.18588
0
-2.37339
-3.01219
-3.11379
0
-5.14264
-1.41653
-6.96718
-0.304339
-1.09554
0
-4.20819
0
-1.7531
0
-1.03467
-2.31804
-4.028
0
-0.569671
-3.45242
-0.593979
-7.11745
-2.7567
-5.37308
-0.960108
-2.25886
0
-2.03355
0
0
-0.583844
-4.43258
0
0
-1.14926
-0.303207
-3.31532
-0.554361
-0.45353
-4.02048
-0.807288
-0.701219
-2.65181
-2.69929
-4.58022
-0.0847195
-2.4268
-0.760914
0
-0.0291637
-0.101021
-5.00698
0
-2.54842
-5.64432
-1.92098
-0.37596
-0.390942
-3.84494
-0.933418
-2.38934
-2.82134
-7.94903
-0.905078
-1.57638
-0.963058
-6.38948
-1.49924
-8.87229
0
-8.13836
-2.38323
-2.94709
-6.261
0
0
0
0
0
0
0
0
0
0
0
0
0
0
0
0
0
0
0
0
0
0
0
0
0
0
0
0
0
0
0
0
0
0
0
0
0
0
0
0
0
0
0
0
0
0
0
0
0
0
0
0
0
0
0
0
0
0
0
0
0
0
0
0
-0.288922
-1.03102
-0.11676
-0.957749
-1.765
-0.123073
-0.65167
-0.602227
-0.777401
-0.985621
0
-1.26942
-1.25045
0.00604722
-0.428741
-1.56049
-1.03995
-1.00689
-0.0323625
-1.24969
-0.958096
0
-0.430367
-0.581129
-0.195123
-1.25792
0
-1.27548
-1.03527
0
-0.990889
-0.255112
-0.281062
-0.367397
0
-1.01545
-0.409644
0
-3.68689
-0.479709
0
-2.97679
0
-0.981478
-2.68971
0
-0.50246
-1.09499
-1.04099
-0.563899
0
-2.0752
-0.240045
0
-0.842923
-0.940913
-0.164384
-1.46052
0
-0.0648989
-1.10337
0
-0.382227
-0.381121
-0.0471388
-5.06608
-2.38804
-4.60053
-2.44229
0
0
-4.70437
-1.65292
-3.9546
0
-3.84418
-7.19973
0
-3.3208
-2.68936
0
-5.24286
-2.47465
-3.25724
-2.48988
-1.49953
-0.890233
-1.23615
-2.46118
-1.90312
-0.644121
-2.673
-1.52544
-2.74717
-3.60091
-3.6693
-3.38518
0
0
-6.31787
-0.529564
-4.04659
0
-4.84126
-2.75163
-5.61583
-1.41933
-4.11835
-0.135163
-0.237199
-1.40161
-0.197171
0
-2.08772
0
-3.76887
-2.25816
-3.31003
-0.876666
0
-1.49375
0
-0.818601
0
-7.93348
-1.13694
-5.83704
-1.64462
-0.862083
-2.40006
0
-3.54691
-0.739367
-2.26123
-1.20247
-7.27948
0
-2.08087
-0.501914
0
0
-1.63201
0
-0.0395503
0
-3.10823
-3.87514
-1.2872
-2.79951
-1.21683
-0.185984
-1.11978
-2.02521
-1.0337
-2.35945
-8.36772
0
-2.18123
0
0
-8.30292
0
0
-2.56353
-2.53428
-1.67035
-5.08413
-3.63382
-3.45238
-5.76824
-1.04848
-5.63625
0
-5.43139
-2.98061
-5.24425
0
-1.72108
-2.49253
-2.7774
-5.97524
-0.769177
-2.44102
-5.17611
0
-2.01823
0
-2.50129
-4.17929
-5.78308
-6.32252
-0.778689
-2.09007
-2.85562
-0.548597
-6.05066
-0.580925
-0.0189686
-3.34376
-1.82804
0
0
-3.77157
-2.63658
-0.754372
-2.08587
-1.56814
0
-5.17099
-1.28547
-3.90917
-5.05869
-3.2909
-0.705786
-3.9041
0
0
0
-3.30213
-1.71842
-2.49708
-4.11771
-1.35566
0
-7.19557
-2.52749
-3.02302
-0.00300435
-1.6415
-4.17702
-0.205605
-1.0248
-3.60005
-5.59861
-2.62015
-2.62967
-2.91873
0
-5.97318
-2.28331
-2.75447
-0.485276
0
-1.01169
-4.73995
-0.426127
-7.31561
0
-1.78514
0
-1.54232
0
-5.18154
-0.253724
-4.32775
-0.778361
-4.84366
0
0
0
0
-2.72612
-1.64043
-0.434674
-0.0790599
-0.19351
-1.74519
-0.0784763
-1.51081
0
-0.245087
0
-4.56477
-2.40965
-4.61346
-4.35939
-1.06009
-1.56936
-3.55026
0
-2.01358
0
0
0
-1.17191
-0.933332
-2.4638
0
-2.47109
-8.9951
0
0
-2.24358
0
-0.679618
-2.20981
-3.44516
-0.55323
-5.85284
0
-1.13818
-5.02991
-6.24815
-0.602651
0
-0.924374
0
-2.39382
-0.297927
-3.77932
-3.2798
0
-1.39438
-3.07055
0
-3.05203
0
-1.9838
-1.60403
-1.35031
-3.62462
-4.80748
-2.74799
-4.96555
-11.5929
-0.614559
-0.832488
-8.65594
-0.933572
-1.81008
0
-7.00266
-0.740299
0
0
-6.04896
-3.50536
-1.43411
-1.26388
-2.77973
-5.94117
-2.31139
-3.04345
-0.327471
-4.1609
-0.581406
0
-5.02081
0
-3.89032
0
-1.93501
-0.203368
0
-0.75052
0
-0.15538
-0.627528
-0.510733
-0.440891
-6.34984
-0.922257
-3.45595
-0.447425
0
-1.18825
-4.62938
0
-3.52361
-4.35583
-3.10503
0
-0.0639897
-1.95831
0
-1.24221
-2.4855
0
-4.709
-5.32839
-1.9553
-5.83616
0
-3.06202
0
-4.21492
-4.44458
0
-3.53923
-3.54583
-11.1198
0
-0.281463
0
0
-0.769829
-2.93057
-3.76144
-3.21779
0
-1.34313
-0.696107
0
-3.26372
-2.82275
-2.05753
0
-1.62678
-0.305582
0
0
-11.2874
0
-10.7984
-3.98752
-9.56034
0
-0.40392
-0.169467
-6.10392
-4.67122
-1.8389
0
-7.20192
-2.23495
-1.44588
0
-6.71995
0
0
-1.43837
-1.39018
-10.0348
0
0
-8.07053
0
0
-4.42957
-4.6913
-10.1056
0
-1.1787
-0.135696
-7.47761
-0.17621
-3.24317
-0.578226
0
-5.96846
-1.00354
-3.33803
0
-0.801986
-0.260912
-1.38227
-0.918669
-1.91442
-0.604494
-5.64858
-1.0314
-1.00798
-8.92736
-1.79024
0
0
-7.08679
0
-6.07553
-1.0366
-1.42559
0
-5.15066
-1.32874
-4.70086
-1.26729
-0.0372984
-4.98994
-1.53265
-7.77156
-2.27093
0
-3.50063
-3.15004
-2.47208
-0.081241
-3.92533
-6.03492
-2.56458
-7.339
-0.915602
-3.27629
-1.9563
-2.42714
-1.90078
0
-1.82276
-4.9261
-2.10603
0
-7.40607
-2.65907
-0.288021
-2.18743
-1.90473
-5.06665
-1.32435
-2.3974
0
-8.24439
0
-1.07819
-2.96283
-4.47557
-0.307258
-2.18777
-5.92203
0
-4.90335
0
0
0
-2.19315
-8.33645
0
-7.45996
-1.96908
-0.10275
-4.43104
-1.72455
-0.591425
-4.54686
-0.550057
-3.99082
0
-2.74052
-2.92757
-1.26144
0
-5.35431
0
-8.99566
0
-7.88627
-1.85342
-3.65348
-1.22659
-4.51766
0
-2.07251
-4.1829
-3.46773
0
-5.37719
0
-0.13518
-8.78798
-7.69137
-3.53797
0
-1.10291
-1.39169
-0.93938
-0.991459
0
-9.23236
-2.68547
-1.41113
-6.36766
-0.143982
-5.69005
-0.681571
-5.33174
-0.767083
-1.13841
0
-3.7009
0
-1.70539
-5.29848
-0.346465
-7.26451
-8.34855
0
-7.84596
0
-3.62697
-3.36597
-7.2414
-0.409335
-2.89273
-2.14884
0
-4.70214
-0.851581
0
0
-6.8941
-0.181628
-4.85827
-3.8488
-1.05147
0
0
-6.34069
-4.31108
-0.949316
-0.0381191
0
0
-6.21232
-0.0343436
-10.0256
0
-9.55058
-0.572315
-3.816
-1.9916
-0.766328
-1.84387
0
0
0
-1.33009
-0.0674034
-2.9164
-2.61421
-0.196685
0
-1.4869
-3.79497
0
-3.08053
0
-6.19726
0
-5.40352
-0.955508
-1.69735
-3.78324
-1.64408
-1.36578
-2.09072
-7.31966
0
-3.6397
-1.54946
-3.38521
-1.10329
-7.03836
-3.15914
-1.32045
0
0
-5.98638
0
-0.647563
-8.04314
-2.79424
-2.055
-4.49651
-3.88345
-4.68833
-6.38669
-2.09219
-0.533416
0
0
-1.82786
-3.25506
-3.3069
0
-4.68895
-2.22474
-0.473498
-2.55708
-2.37219
-0.915883
0
-2.06257
-1.45565
0
-4.31621
0
-1.8524
-5.78542
-0.41878
0
-3.53266
0
-1.33055
0
-5.7332
0
0
-4.13927
-1.45985
0
-2.75011
-2.87608
-3.60088
-3.26567
-2.03837
0
-3.62582
-1.93137
-0.129006
-0.229666
-0.879928
0
-0.590345
-6.52706
-5.7035
-2.20257
-3.34108
-3.54678
-7.79211
-1.05743
-0.809714
0
-5.70842
0
0
-0.689772
-3.61085
-0.627126
-11.1017
-0.670873
-2.31744
-0.211576
-4.07103
-2.17866
-2.68755
-0.225743
-5.47194
-0.952096
-3.5631
-6.23509
0
-3.74029
-0.162731
-0.881359
0
-5.77666
0
-8.19769
-0.894992
-3.2935
0
-2.68848
-0.54144
0
0
-3.54091
0
-1.5154
-2.60002
-0.633845
-4.80831
0
-0.0442824
-3.97627
-1.99683
-1.02182
0
-3.13733
-2.69655
-2.24399
0
0
-3.18378
-1.95023
-3.08584
0
-2.28309
-3.4712
-0.623107
-4.32652
-2.08561
-2.41884
-0.0555866
-1.77675
-2.89359
-1.01174
-2.85206
-0.627191
-5.21648
-0.633749
-5.14127
-3.31118
-1.09549
-1.38991
-1.8539
-2.20224
-0.961537
0
-8.31323
0
-2.4137
-3.25681
0
-3.52715
0
-8.23843
-0.704335
-2.42452
-2.994
-4.5959
-0.149776
0
-0.21147
0
-5.50959
-4.64358
-5.08536
-0.510775
-0.0837204
-0.784089
-0.741043
0
0
-2.25002
0
-1.57372
0
-1.19132
-4.94154
-3.31374
-2.42683
0
-3.48132
-2.26561
-5.61494
0
0
0
-3.34511
-1.68471
-4.277
0
-0.904526
0
-6.12972
-2.52007
-3.79298
-2.71211
-0.0453536
-3.72537
-0.251497
0
-0.845757
-6.36298
-4.93427
-1.35726
-0.589883
-2.39032
-3.96672
-1.1625
-3.91102
0
-0.277342
-1.17116
-4.8648
-3.96899
0
-4.14179
0
0
-2.44659
0
-4.60744
-0.314012
-1.11681
-5.68911
-4.40344
-3.47182
-0.890153
-5.40131
0
0
0
-1.34839
-1.73551
-0.137862
-1.14423
-5.8988
-2.19859
-1.01506
-2.56581
-1.29903
-0.109238
-1.29312
-3.61407
-1.49973
-7.65415
-2.41559
-1.30045
0
-0.798252
-3.74564
-4.17199
0
-0.303843
-3.65646
-4.23238
-0.685997
-3.4183
0
-0.0793064
-0.298896
-2.77214
0
-6.10517
-1.30506
-1.22719
-6.08987
-0.034358
-4.02382
-0.586452
-6.86239
-4.14724
0
-2.35437
-0.240848
-2.35378
-0.953287
-2.06617
-0.769941
-0.650097
0
-0.407378
-2.28606
-4.56358
-8.06835
-8.58671
-8.69715
-5.59136
-1.45609
-2.43129
-2.47671
-0.343923
-1.36031