<?xml version="1.0"?>
<VTKFile type="RectilinearGrid">
<RectilinearGrid WholeExtent="0 32 0 32 0 32" Origin="0 0 0" Spacing="1 1 1">
<Piece Extent="0 32 0 32 0 32">
<PointData>
</PointData>
<Coordinates>
<DataArray type="Float32" format="ascii">
0 0.524874 1.04975 1.57462 2.0995 2.62437 3.14924 3.67412 4.19899 4.72386 5.24874 5.77361 6.29849 6.82336 7.34823 7.87311 8.39798 8.92285 9.44773 9.9726 10.4975 11.0224 11.5472 12.0721 12.597 13.1218 13.6467 14.1716 14.6965 15.2213 15.7462 16.2711 16.796 
</DataArray>
<DataArray type="Float32" format="ascii">
-5.03879 -3.62163 -2.20447 -0.787311 0.629849 2.04701 3.46417 4.88133 6.29849 7.71565 9.1328 10.55 11.9671 13.3843 14.8014 16.2186 17.6358 19.0529 20.4701 21.8872 23.3044 24.7216 26.1387 27.5559 28.973 30.3902 31.8074 33.2245 34.6417 36.0588 37.476 38.8931 40.3103 
</DataArray>
<DataArray type="Float32" format="ascii">
0 0.524874 1.04975 1.57462 2.0995 2.62437 3.14924 3.67412 4.19899 4.72386 5.24874 5.77361 6.29849 6.82336 7.34823 7.87311 8.39798 8.92285 9.44773 9.9726 10.4975 11.0224 11.5472 12.0721 12.597 13.1218 13.6467 14.1716 14.6965 15.2213 15.7462 16.2711 16.796 
</DataArray>
</Coordinates>
<CellData>
<DataArray type="Float32" Name="Scalar" format="ascii">
0
0
0
0
0
0
0
0
0
0
0
0
0
0
0
0
0
0
0
0
0
0
0
0
0
0
0
0
0
0
0
0
0
0
0
0
0
0
0
0
0
0
0
0
0
0
0
0
0
0
0
0
0
0
0
0
0
0
0
0
0
0
0
0
0.296511
-1.36221
0
-0.445488
-0.120938
-0.0439066
-0.322487
-0.455693
0.126384
-0.0283376
0
-0.0815495
-0.789518
0
0.0697579
-0.0614437
0.141662
0.451869
0
-0.487661
-0.0708578
0
-0.02368
-0.219464
-0.579638
0.43287
0
-0.725369
-1.12813
0
-0.492236
-1.44624
0.0811041
0
0
-0.862961
-0.25119
0
-1.26562
0
-0.190829
-1.62377
0
-0.335471
-0.837978
0
0
-0.485182
-0.470444
-0.53945
0
-0.546962
-0.246024
0
-0.119849
0
-0.0504103
-0.953894
0
-0.0866945
-0.465861
0
0
-0.329587
0
-1.3744
0
-1.06381
-3.3712
-3.37027
-0.530405
-4.69464
-1.51931
-3.44645
-0.697289
-1.68653
-1.39404
-0.0446487
-2.8326
0
0
-2.03881
0
-0.811665
-1.19758
-1.69135
-1.71464
-1.04068
-0.259253
-2.9135
0
-2.16742
0
-2.36626
-0.137239
-6.42728
-1.14305
-0.203155
-2.86595
-1.22861
0
-2.20606
-2.02478
-0.719424
0
0
0
-0.492291
0
-2.18908
0
-1.78732
0
-6.35959
0
-0.980771
-4.5231
-0.24905
-0.15476
-0.103534
-0.401006
0
-3.93907
-1.58786
0
-1.6609
0
-0.103282
-1.34111
-0.550319
0
0
0
-5.95409
-0.879354
-5.45337
-0.528377
-1.66022
-0.818635
-0.193302
-2.88417
-0.249338
0
-2.44691
-0.722496
-0.116958
-0.390396
0
0
0
-1.92006
0
-5.25395
-2.55041
0
-0.042569
-0.462341
-3.05517
-1.20619
-6.56777
-4.63345
-1.10216
-4.98162
-4.81904
-1.70022
-1.19543
-2.54384
0
-2.87874
-1.5009
-8.12555
0
-6.26188
0
0
0
-6.90429
0
-5.81037
0
-3.80386
-1.20803
-1.50925
0
-1.66005
-1.55193
-4.41968
-0.939286
-3.64208
-1.88173
-5.71999
0
-4.16986
-1.36354
-1.73208
-0.120382
0
0
-5.8679
0
-5.06142
0
-1.66893
-0.959457
-0.337995
-2.92558
0
0
0
-1.49481
-0.0359615
-4.57697
0
0
-1.35887
-2.18025
-1.82363
-2.98552
-0.509527
-2.30713
-0.642374
-0.263641
-2.61254
0
0
-3.83983
-0.101635
-3.48822
-2.53125
-0.376604
-2.39441
0
-4.53419
0
-4.63799
0
-2.32984
0
0
0
0
-0.489969
-0.815843
-0.0449394
-8.04102
0
-0.476597
-3.54845
-4.36099
-0.289164
-4.63196
0
-3.71307
-1.57282
-0.757852
-0.258577
0
0
-3.36679
-2.00385
-4.6698
0
0
-5.89708
-2.64812
-6.48432
-0.609773
0
-3.82956
0
-6.72872
-0.376242
-5.19528
-1.39441
-4.2635
0
-1.19886
0
0
-5.53484
0
0
-5.4453
-1.56495
-0.0886781
0
0
-2.80253
-1.23325
-2.1578
-3.63119
-9.92233
0
-4.04656
0
-3.54144
-0.873816
-2.02896
-8.72474
-5.75236
0
0
0
-2.92473
0
-7.57961
-1.84187
0
-6.37985
0
0
-6.36021
-0.173046
-6.49677
-1.20638
0
0
-1.07155
-5.18753
-6.59373
-1.08621
-1.39176
0
-1.45413
0
-5.79811
-1.12731
-3.70442
0
-2.51678
-1.11157
-3.0967
-0.441361
-10.3753
-6.92781
0
-2.68742
-3.58334
0
-2.8029
-0.761629
0
0
0
-4.47621
-7.42078
-5.27798
0
-2.48563
-0.388838
-7.30214
0
-1.02408
-1.20232
-0.925996
-8.64344
0
-7.31387
-5.63058
-0.122656
-5.26384
0
-5.40475
-5.11276
0
-3.55972
0
-6.06597
-8.0928
-1.92349
-3.26055
-1.98385
-5.94823
-7.05016
-0.796812
-0.335984
-6.50467
-2.99601
-5.67415
-6.53764
0
-1.96494
-0.532669
-1.13903
-5.3428
-0.768066
-1.69716
-0.891409
-1.56707
-0.583986
-0.94526
0
-5.60398
0
-9.07184
0
-0.731456
-2.40936
-5.51159
-1.90514
0
-5.85074
-0.225277
-3.72524
0
-0.709426
-4.54823
0
-13.2482
-1.42666
-0.441497
-10.1163
-2.73828
-5.72523
0
-5.14466
-1.24146
-3.85187
0
-3.33191
-9.80733
-3.33185
0
-0.0619489
-0.998576
-6.14533
-2.25181
-2.28999
-5.08924
-5.52132
-0.0472354
-2.35032
0
-5.1232
-3.98027
-3.66156
-8.53325
-4.1421
-4.42455
-4.71899
-2.13752
-3.52379
-1.66108
-4.38164
0
-4.97461
0
-6.92906
-0.964181
-0.121738
-6.62724
0
-1.42575
0
-4.94343
-0.54281
-5.86947
0
-3.56897
0
-3.04036
0
0
-2.25692
-1.28703
-7.09978
0
-0.19552
-0.366042
0
-3.67478
0
-2.86887
-7.20141
-5.26864
-10.3581
-0.160535
-1.28023
-4.31775
-2.34086
-3.61718
-4.80188
-0.794823
-0.717953
0
-4.01862
-4.83642
0
-4.36381
0
-1.41222
0
-9.89828
0
0
-1.48376
-1.88839
0
-0.490389
0
0
-1.52471
-5.34533
-0.337233
-4.6288
0
-0.357303
0
-6.04038
-4.342
0
-6.32614
-1.15337
-5.11654
0
-1.1893
-0.494087
-1.15393
-0.683486
-0.83028
-0.424712
-3.26239
-0.636633
-6.94019
-1.11021
0
-4.18972
0
-0.899874
0
-5.21588
0
-1.17301
-0.878286
-1.10942
0
0
-9.21943
-1.41283
-1.91311
0
0
0
-3.2312
-8.04833
-0.1252
-0.139349
-0.492265
0
-11.2823
-0.612832
-2.15215
-4.93299
-0.712974
-2.74623
0
-2.76218
0
-1.3409
0
-6.60762
0
-4.64232
-2.81793
0
-9.42328
0
-3.64741
0
-1.16077
-3.74582
-11.5442
-1.5363
-1.95166
0
-1.55851
0
-7.04261
-0.795457
-0.358701
-1.91522
-0.0939341
0
-0.483111
-7.62552
0
-0.820841
-0.0564117
-5.68619
0
0
-2.41964
0
-2.08408
0
-2.02656
-1.3614
-1.04125
-0.968066
-1.24
-5.70392
-0.0370778
-1.63281
-0.17197
-2.03029
-1.61273
-3.11017
-2.75069
0
-3.58354
-5.33277
-4.793
0
0
-2.86324
-3.57834
-3.06728
-0.361987
0
-0.746298
-4.52171
0
-5.99899
-1.12741
-3.50368
0
-1.52858
-0.498274
-2.46322
-4.87285
-0.506894
-2.17263
0
-0.656572
-0.130116
0
-5.12469
-5.41331
-2.0454
0
-7.11397
-0.931086
-6.1893
-0.137721
0
-6.25921
0
-9.73387
-3.6135
-2.23479
0
-6.48698
0
-1.63945
-2.52146
-4.27604
-1.64403
-1.39823
-4.12356
-2.39801
-7.87785
-0.6359
0
-6.95051
0
-6.4797
0
0
-5.58603
0
-5.95002
-3.76034
0
0
-0.902365
-4.79411
-1.0252
-0.567681
-4.12988
0
-0.805829
0
0
-1.71721
-1.29372
-1.42319
-0.407205
-3.68568
-3.64405
-0.563384
-5.24743
-0.635847
-0.393368
0
0
-2.4638
-3.98169
-0.0992534
0
-7.75143
0
0
0
-1.73886
-0.824893
-0.543848
-1.71134
-0.810523
-3.65337
-2.08669
-1.57147
-0.377184
-2.79713
-5.42248
-2.07056
-0.987364
0
-2.43964
-7.1216
-0.335755
0
-2.32931
-0.136341
-1.81782
-0.421391
0
0
0
-0.747286
-0.576929
0
-1.12427
-1.79924
-0.791179
-3.14862
-4.66763
0
-7.76521
-8.24545
-5.8679
-2.03113
-3.21073
-1.45191
-6.54803
0
-1.96255
-0.698276
-2.57908
-1.93887
-7.33125
-1.33328
0
-0.469496
-2.59241
-6.01317
-3.20676
-0.0729851
-3.25608
-0.244147
0
-0.978101
-0.167556
0
-7.72499
-3.79056
-4.36828
-1.7802
-0.442578
-2.00184
-2.65172
0
0
0
0
-0.897514
-2.32501
-0.779877
-1.9995
0
-0.116229
-0.888193
-0.499691
0
-4.45205
-2.03532
-2.87651
-3.21331
-2.57705
-0.875081
-2.27689
-6.0697
-6.02553
-2.29238
-3.4146
-1.98996
0
0
-0.427113
0
-3.2644
-7.39257
0
-2.50312
0
-2.63048
0
-1.40168
0
-0.462976
-3.28823
-3.49051
-2.13546
0
-0.33343
-4.98191
0
-6.29022
-0.424646
-6.75804
-0.731947
-2.68604
-3.96676
-2.62991
0
-2.96202
-1.97467
-2.48526
-2.71644
0
0
-4.37445
0
0
-5.26707
0
-0.861051
-0.04824
-2.41878
-3.63495
-1.18012
-3.79125
0
0
-0.10355
-5.28295
0
0
-0.827093
-6.24231
-0.284309
-2.80715
-4.87569
-1.21848
-7.45263
-0.617228
-6.69868
0
-2.52824
-1.55509
-1.74948
-2.40573
-2.9449
0
-1.11922
-4.90908
-2.03334
0
-3.33485
-0.80435
-2.25064
-0.674886
-4.43352
-2.32519
-3.24798
-2.8845
-0.806258
-7.63479
-0.798854
-9.13794
-1.8962
-0.693969
-1.38737
-8.19332
0
-0.813727
0
-6.35939
-0.190542
-3.61936
-4.1596
-0.878557
-5.53681
-0.0946523
-5.83823
0
0
-2.80232
-1.16245
0
-2.89063
-1.191
-0.195123
-1.68148
-0.19056
0
-1.14929
-1.57259
-0.576885
-0.996806
-0.525521
0
-1.28521
-4.91327
-0.240885
-0.188872
-6.249
-1.62747
-0.62828
-1.34642
-1.89571
-2.85556
-5.76781
-0.774171
-1.92328
0
-1.38412
-3.62414
-3.13545
0
0
-4.87447
-7.16091
-0.929962
-0.361704
-1.4277
-0.095542
-2.34373
-6.89066
-2.07258
-0.590966
-3.09168
-0.58069
-5.30573
0
0
-0.208326
-0.429209
-0.672452
-7.48708
-0.438886
-2.33539
-2.24325
-1.57734
-3.52289
-2.25797
-3.9487
-1.41935
-2.80502
0
-8.12068
0
0
0
0
0
0
0
0
0
0
0
0
0
0
0
0
0
0
0
0
0
0
0
0
0
0
0
0
0
0
0
0
0
0
0
0
0
0
0
0
0
0
0
0
0
0
0
0
0
0
0
0
0
0
0
0
0
0
0
0
0
0
0
0
-0.975003
-1.43926
-0.203956
-1.03609
-1.08809
0
-1.03105
-0.542423
-0.476768
-0.505028
0
-0.676626
-0.796354
0
-0.533942
-0.997046
0.232395
-1.27337
0
-1.38506
-1.42444
0
-1.20845
-1.83703
-0.662577
-1.24122
0
-1.31359
-1.25262
-0.0617078
-1.12279
-0.904807
-0.0641922
-1.84191
0
-0.0360564
-0.972728
0
-0.291378
-0.33678
-0.223775
-0.51889
0
-1.05444
-0.193915
0
-2.10905
-0.0684102
-0.954916
-2.76298
0
-1.50971
-2.65126
0
-0.811133
-0.600943
-0.534842
-0.506765
0
-1.75571
-0.22723
0
-1.03404
-0.0146999
-3.25354
-1.80911
-3.00729
-2.10088
-2.37225
0
-3.97601
-0.807249
-0.435693
-2.82876
0
-5.78204
-2.47443
-1.77051
-7.34644
-0.280392
-5.9033
-0.61316
-4.57226
-4.5857
-3.48322
-0.396416
-4.64076
-4.60552
-1.37773
-2.37471
-1.35156
-1.56661
-3.62333
-1.42699
-1.53372
-0.172504
-1.47249
-1.47934
0
-0.132413
-5.88125
-1.16552
-0.434934
-0.495272
-3.29268
-0.259745
-7.33889
0
0
-1.42778
-0.390674
-0.0901238
0
-2.58099
-2.07251
-5.09942
-1.52561
-2.1122
-6.20578
-2.92183
-3.06789
-4.90855
-1.39853
-0.69937
-5.14313
-1.36916
-2.45187
-1.30936
0
-2.32461
-0.842306
-5.53072
-1.3881
0
-6.10147
-0.819019
-4.84166
-0.205071
0
-3.39678
-5.42964
-2.37658
-5.74677
-3.30728
-1.7381
-0.107041
-1.93977
-4.25034
-4.51171
-0.459022
-1.48732
0
-2.99318
0
-3.19961
-2.63982
0
-0.661988
-1.43326
0
-1.1786
-0.464804
-0.82456
-1.57473
0
-10.7062
0
-5.28587
0
-3.05276
-3.61752
0
-2.07418
0
-6.21511
0
-1.13548
-2.62351
-1.1051
0
0
-4.18663
-3.55105
-1.69138
-3.49122
-0.583112
0
-0.0383308
-2.06288
-3.21195
-2.45079
0
-2.80352
-1.78424
-2.84224
-1.23012
-5.3425
0
-0.194696
-0.710067
-1.74108
-0.392117
-0.731468
-5.09497
0
0
-4.38515
-0.494055
-3.82112
-0.618916
-3.00713
-3.69748
-0.294743
-6.81594
-2.31698
-0.305933
0
-0.401761
-3.82383
0
-0.998954
-0.324482
-1.64106
0
-7.23232
-1.80096
-1.45996
-6.76815
-4.52122
-1.38662
-2.43511
-0.582283
0
-2.4012
-2.40529
0
-5.17539
0
-3.49842
-1.60874
-4.26748
0
-0.985624
-2.46805
-0.93204
-0.679833
-7.02518
0
-3.35122
-0.718922
-2.96966
0
-2.57726
-1.34661
-2.33525
-1.88721
0
-1.19118
-2.0436
0
0
-2.26467
0
-2.34105
0
0
-4.42629
-3.10572
-0.457575
-0.0247892
-1.85575
0
-3.27943
-0.690162
-3.90585
-0.543134
-6.4472
0
-1.52734
-0.458956
-1.83489
-5.03216
0
-1.10986
-1.87161
-0.559168
-0.537511
-3.00589
0
-6.08946
0
-2.07155
-2.32147
-3.07637
-3.88645
-5.44769
-1.92836
-6.59012
0
-1.81906
-6.68357
-1.71352
-2.82825
-0.59279
-7.83516
0
0
-7.76338
0
-3.40061
-7.19258
-2.81094
-5.78865
-0.509041
-2.56873
-4.04344
-2.45004
-1.1528
0
-5.59623
-0.219874
-0.388987
-3.98555
-4.18253
-1.75073
-5.85951
-1.37069
-1.79456
-7.52197
-2.2205
-2.2009
-2.24122
-4.57714
0
-1.71914
-10.8479
-2.70975
0
-6.51862
-0.240522
-4.41833
-2.69764
-0.124836
-6.2263
0
0
0
-3.19369
-6.47578
-2.6709
-2.34904
-2.33125
-1.27232
-5.25757
-5.11825
0
-0.182978
-0.979532
-0.308552
-3.08469
-1.87955
-6.44018
0
-5.30185
-1.72594
0
-2.87082
0
0
-3.28817
-0.608887
-2.69924
-1.56212
-1.68176
-8.60192
-1.79033
-0.893314
-0.0346557
-0.509589
0
-6.35538
-0.669892
-1.20637
-6.77683
0
-3.89631
0
-2.72166
-3.29987
0
-7.71453
-4.702
0
0
0
-2.57331
-6.94452
0
-0.405178
-1.25178
0
-3.41044
-0.656577
-0.377841
0
-3.63443
-1.82996
0
-0.293116
-3.21601
-7.76312
0
-0.302822
-3.93548
-8.09309
-2.19286
-2.35373
0
-3.81904
-5.48923
-1.79728
-3.72911
0
-6.91813
0
-0.389053
-0.319396
0
0
-5.22469
0
-5.87219
-0.435137
-1.4908
0
-5.02229
0
-0.62939
-2.64392
0
-0.701101
0
0
-5.47591
-2.29286
-1.83121
-4.26422
-0.619869
-3.85176
-1.03511
-2.1092
-3.79991
-0.886953
-8.77908
-0.511485
0
0
-6.15488
0
-8.06238
-2.03794
-4.80443
-1.89997
-4.8339
-1.75268
0
-0.031857
-5.44921
-1.19024
-6.87453
0
-0.769092
-5.81133
-0.51023
0
-1.00353
-6.5331
-2.5271
-7.84605
-0.524224
-2.38324
-4.19558
-1.47164
-1.10861
-4.26304
0
-6.28767
0
-5.45101
-1.28767
-8.85421
-1.6667
-1.11108
-0.641286
-5.09
0
-2.92558
0
-3.58125
-0.480394
-5.07406
-3.16518
-0.196383
0
-3.15872
-4.88615
-1.08295
-1.47899
-0.179606
0
-0.587098
0
0
-1.18532
0
-2.57796
-0.607957
0
-2.16476
-0.603787
-4.20787
-2.70299
-4.19576
0
-3.1278
-6.13352
-0.599641
0
-3.45332
-2.77512
-5.83542
0
-4.62406
-0.0333724
0
-6.34325
0
-0.607
-1.61778
-1.83632
-7.2542
-2.69393
-1.84895
-2.99772
0
-0.640233
-3.72047
-2.78657
-5.35264
-2.02208
0
-5.00647
0
-6.76298
0
-2.95447
-0.332761
-5.32834
-2.08982
-3.40568
0
-3.80223
0
-2.0045
-3.17219
-5.38779
-0.0313323
-4.12842
0
-1.87776
-0.535589
0
0
-5.2352
-0.462434
-0.338267
-9.0558
-0.39987
-6.23022
-4.44012
-2.01317
-3.84769
-2.43199
-9.6255
-0.139354
0
-7.30035
-1.86242
-1.28742
-1.57343
-7.09836
-2.29994
-8.1854
-0.801282
-6.66593
-0.190188
0
-1.61703
-4.38105
0
-7.62929
-2.6489
-5.38866
-3.2908
0
-0.935357
-1.69686
-1.55399
-6.00644
0
-0.663703
0
-0.187417
-6.71138
-0.721113
0
-3.86898
-3.09428
-12.1537
-0.0970481
-0.217391
0
0
0
-3.59788
-1.64173
-1.88956
-1.39783
-0.653155
-4.10351
-1.5811
-1.12329
-2.30023
-1.63209
-3.08186
-5.55145
0
-2.47768
-0.713007
-5.96816
0
-1.51443
-0.137786
-9.50158
-4.7336
-4.57398
-3.45795
-1.89383
-0.302052
0
-5.48898
0
-1.5266
-2.73688
-2.38504
-1.02967
-0.453527
-3.48244
-5.24946
-1.07334
-2.34282
0
-6.54963
-0.949833
-1.20944
0
-6.7877
-3.97273
-0.593851
-3.43841
0
-3.16849
0
-5.27583
0
0
-3.68882
-4.09425
-0.63842
-0.861906
-7.20836
-6.95805
-1.63633
-9.29142
0
-4.95606
0
0
-2.83275
-4.58008
0
-0.628529
-2.93075
-1.9935
-2.05978
-5.55907
-0.835137
-0.305369
-5.56572
0
-2.51899
-3.33195
-1.63291
-1.82192
-2.53001
-2.432
-3.72834
0
0
-4.93721
0
-8.34454
-0.17111
-0.22801
-0.439275
-1.94115
-3.1922
0
0
0
-4.22246
0
0
-6.31121
-1.51319
-8.80419
-3.58787
-0.412561
-0.500347
-6.16001
-9.19514
-3.35249
-1.26061
-4.70146
-2.06772
-0.984151
-5.21071
-2.84336
0
-5.33631
-2.90255
-1.67656
0
-1.62382
-4.28027
-5.82337
-1.5161
-2.85813
-0.772157
-0.593549
-1.48872
-12.7969
-4.93409
-5.41972
0
0
-10.984
-1.06266
-1.96795
-4.46393
-4.4052
-5.50573
-1.5623
-2.12889
-0.292532
0
-1.44126
-2.6798
0
-4.0982
0
-1.59161
-0.985449
-5.72305
0
-2.66731
-3.29506
-0.217279
0
0
-3.28173
-0.456261
-6.13197
0
-3.68881
-2.50799
0
-2.41077
-1.86158
0
-0.784442
-0.0817039
-2.27227
0
0
-5.52065
-1.17542
-7.9862
-0.13794
-1.1406
-1.58052
-0.397192
-8.22629
-3.8073
-7.82691
-0.326523
-4.2972
-1.7099
-1.19982
0
-1.6543
-0.841297
-3.94653
-0.412436
-1.25802
-1.16384
-0.632233
-0.95878
-0.45182
0
-0.461724
-0.752128
-0.033141
-4.68999
0
-2.62509
-1.11427
-2.20592
-3.03111
-6.25182
-1.57932
-3.93725
-1.4322
-0.406314
-1.36213
-0.700802
-6.4368
0
-0.676183
-1.7745
-2.03625
-4.64359
-1.46806
0
-0.307582
-0.27105
-2.29635
-2.21909
-1.19708
-1.58994
-4.44405
-0.287012
-2.45678
-0.840548
-5.25095
-1.92397
0
-4.39175
0
-1.13298
-0.153095
0
-5.80001
-1.18682
-2.25687
-0.506556
-6.35327
-3.07966
0
-0.801644
-0.370324
-0.0446452
0
-0.460702
-2.76816
-1.32693
-3.40276
-1.47004
0
-3.38792
-2.91773
-4.95127
-0.497354
-0.895863
-8.20634
0
-0.681747
0
-4.99275
-0.647647
-2.60564
-2.07922
0
-1.33439
-1.08361
-2.34063
-0.103409
-1.02518
0
-1.65362
0
-4.33086
-4.05844
-1.031
-3.05124
-0.198513
-2.09299
-1.68586
0
-3.48532
-1.49241
0
-0.040435
-1.31561
0
-0.789717
0
-5.58458
0
-8.49523
-0.242642
0
-0.554112
-3.20214
-3.36103
-4.36555
0
-0.0527474
-1.8156
-5.57021
-2.72559
0
-6.80173
-0.843638
-4.92612
-2.58167
-0.939736
0
0
-5.15433
-0.201586
0
-6.0094
0
-6.78206
-5.05582
-7.62066
-1.25319
-0.587429
-1.61426
-7.84776
0
-0.190336
0
-0.0164016
-0.568432
-3.7464
-4.39746
-3.51052
-4.02585
0
0
0
0
0
0
0
0
0
0
0
0
0
0
0
0
0
0
0
0
0
0
0
0
0
0
0
0
0
0
0
0
0
0
0
0
0
0
0
0
0
0
0
0
0
0
0
0
0
0
0
0
0
0
0
0
0
0
0
0
0
0
0
0
0
0
0
-0.522298
0
0
-0.11914
0
-0.0788067
0
0
0
0
0
0
0
0
-0.258821
0
0
0
0
-0.168374
0
0
-0.356186
0
-0.437062
-0.0592211
0
0
0
0
0
0
0
0
0
0
0
0
0
0
0
0
0
0
0
0
0
0
0
0
0
0
0
0
-0.376288
0
0
0
0
0
0
-1.32572
-0.146811
0
-0.0819581
-0.262591
0
-2.16724
-1.91001
-1.4619
-0.230014
0
-0.617765
-1.70177
-1.79789
0
-0.304329
-5.01085
-1.18128
0
0
-1.38607
0
-1.19939
-2.0339
0
-0.335478
0
-6.51314
-0.53902
0
-3.64133
-0.778062
-0.0174692
-3.66484
-0.621157
-7.88657
0
-1.30855
-2.20334
0
-0.520675
-2.26594
0
0
-2.69513
0
-1.2566
0
-4.28002
0
-2.30641
0
-2.92628
0
-0.778365
0
0
-4.34512
0
0
0
-0.650747
-1.8575
-0.907726
-2.65056
0
0
-0.632671
0
-5.75291
-3.94227
-0.64054
0
0
-3.40908
-0.803145
-1.85025
0
0
0
-0.826737
-2.11721
0
-0.0185973
-1.60963
-0.888278
0
-3.0317
-1.96687
-0.444298
0
-3.02358
-0.953144
-0.885932
0
-2.33223
-3.21561
-3.05721
-4.04957
-2.17982
0
-5.50151
0
-0.318198
0
-8.26117
0
-7.66754
-0.361036
-3.9652
0
-2.39549
-2.64309
-3.27433
-2.6252
-2.88436
-2.4429
0
-3.48307
-0.257366
-0.391165
-4.9059
0
-7.13306
-4.54703
0
-4.75737
-2.82277
-0.139029
-0.704408
0
-2.18285
0
-4.93358
-5.21151
-1.18722
0
-3.20103
0
0
-7.9242
0
-5.02966
0
-0.225145
-0.119153
-4.70509
-1.26724
-5.46197
-1.26716
0
-8.03632
0
-4.00214
0
0
-1.99195
0
-0.830777
-0.757814
-0.480764
-0.949238
-0.343495
-0.681534
-1.58729
-0.606731
-0.275652
-0.42394
-3.51904
-1.19654
-1.55458
-5.78
-0.0694644
0
-0.618813
-0.600882
0
-7.50622
0
-7.86022
0
-6.46206
-0.68944
0
-3.41201
-0.915098
-4.43648
0
-6.73234
-1.89579
-4.13733
0
-0.302713
-4.33163
-0.80165
-5.33693
-0.726753
-1.04955
0
-1.76663
-1.88211
-0.142522
-2.92158
0
-9.40576
-0.30139
-1.20364
-3.99853
0
-3.21737
-6.08697
-0.399607
-3.18003
-3.34071
-1.75777
0
-0.967343
0
-1.67215
-0.357149
-2.10011
0
-0.407749
0
0
-1.18714
0
-9.5978
0
-2.66247
0
-0.455594
0
-0.225947
-7.23848
-1.22895
-0.330644
-3.71527
-1.50528
-1.47972
-4.12804
-6.71436
-0.814455
-2.35685
-1.80895
-3.81239
-2.49575
-3.12981
-1.27219
-6.16593
-0.759593
0
0
-2.55545
-1.70305
-2.68754
-1.05949
-7.67541
-3.94979
-1.49655
-2.66709
-5.62213
-6.01947
-1.89491
-0.953791
-8.63596
0
-3.59403
0
-3.41714
-1.33035
0
-2.6228
-5.39169
-1.19041
-5.71782
0
0
0
-0.584265
-0.114004
-2.99414
-5.85866
0
-3.45868
-2.97575
-2.92455
-0.358193
-0.0215332
-0.399936
-2.86937
-5.15413
-4.57925
-7.63539
-0.0111224
-5.24149
-0.0339263
0
-6.29059
0
-5.15133
-0.142671
-4.16846
-0.0586218
-7.36856
-0.905679
-5.83954
-1.69267
-4.3216
-1.22398
-3.87081
0
-10.555
-2.6398
-3.64235
0
0
-1.08306
-2.78245
0
-7.73263
-2.05479
-3.26375
0
0
-4.27571
0
0
-6.36698
-3.6463
-4.72602
-1.46745
0
-7.37807
0
-7.22478
-1.60763
-8.05056
0
-6.29902
0
-2.67061
-3.03213
-0.694892
-5.7234
-2.42772
-0.509266
-6.51392
-1.85201
-2.86
-2.20411
-4.87153
0
-7.71853
0
0
-1.18663
-0.284182
-6.17736
0
-0.656188
-4.83259
-3.03139
-0.940207
0
0
0
-0.76162
-0.301147
-1.86691
-2.93668
-4.84896
-2.68688
-3.24767
-4.27256
-2.44711
-2.83452
0
-13.0134
0
-7.07495
0
-3.62791
-5.46402
-0.0363512
-5.71209
-0.38115
-2.14584
0
-6.36403
0
-12.8462
0
0
0
-0.413495
-2.94243
0
-7.52014
-1.44976
-5.10514
-3.56267
-2.02809
0
-0.323646
-3.54083
-2.67818
-8.5285
0
0
-3.54781
0
-0.181549
-0.404996
0
-0.886116
-3.31698
0
-5.66742
0
-3.7176
-3.75886
0
0
-2.23433
-0.36262
0
-5.0317
0
-1.26959
0
-1.2401
-8.20362
-1.12374
-7.08381
0
-0.166651
-0.223571
-5.04344
-0.718792
-0.412759
-8.62621
0
-8.54456
-0.412035
-5.83292
-2.22479
-5.76139
-2.99888
0
-9.16566
0
0
-1.7883
-2.78443
-0.697996
-5.02778
0
-2.05771
0
-2.30663
-0.352
-2.32573
-9.59657
0
-0.545324
0
-3.40235
0
-8.03928
0
-1.20322
-2.8175
-5.5911
-2.53312
-2.71333
0
0
0
0
0
-0.209583
0
-0.228035
-0.367414
-8.90627
-0.228559
-2.0784
-1.97069
-3.57239
-2.07779
-0.498705
-1.44595
-1.90636
0
-2.11996
-1.89504
-4.07624
-3.39078
-8.00737
0
-2.17909
-7.42952
-2.05577
0
-1.45799
-0.0619841
-4.75539
-0.491302
0
-1.08274
-10.2501
-0.554702
0
-2.24085
-0.372106
0
0
-0.0471518
-1.01614
-1.05575
-6.9833
0
-0.574599
-2.77653
-1.63204
-0.100571
-1.53616
-0.83927
0
-9.53775
-2.19509
-6.25698
0
0
-3.31643
-8.39427
-2.6349
-1.75005
-2.72897
-9.63886
-2.1691
-3.5978
-1.77471
-0.863757
-7.91596
-0.355499
-7.36686
0
0
-3.80991
-0.893179
0
0
0
-3.71583
-4.0505
-7.16289
0
-8.89753
0
-7.70296
0
-2.22123
-3.04344
-1.23688
-2.58877
0
-0.055476
-0.149459
-4.06337
0
-0.687829
-0.138287
-6.85301
0
0
-0.97433
-7.46176
0
0
-1.45202
0
-5.78981
-7.91812
-1.49224
-2.45171
0
-3.44293
0
-1.6524
-5.75009
-3.17305
0
0
-4.09178
-5.15725
0
-0.121864
-0.326818
-4.9488
-2.5857
-1.26009
-0.724558
0
0
-2.08628
-4.48075
0
-0.0970492
0
-1.04115
-4.003
0
-6.80304
0
-0.100457
-1.10776
-2.48389
0
-4.18956
-3.13001
-4.30712
-4.33045
-0.459166
-4.0966
-6.92969
-0.362738
-1.05303
-2.24418
-0.0474163
0
-0.791303
-1.06816
-0.503384
0
-0.0716509
-0.0146502
-0.839166
-2.8668
0
-0.757154
-3.25898
-1.92026
-7.41263
-0.580946
-5.47905
-0.257907
-1.54337
-0.148783
-0.64052
-4.24643
0
-1.70607
-4.75105
0
0
-0.482912
-4.84451
-3.80655
-4.57886
0
-4.78306
0
-1.14754
0
-0.3504
-0.992604
-2.38738
-3.40276
-0.396347
-5.8097
-5.70339
-1.62018
-1.31122
-3.41491
0
-4.27028
0
-1.75678
0
-3.53756
-7.40939
-2.29424
-2.40071
-8.66068
-1.19281
-3.51928
-1.30991
-2.86583
-5.10059
-3.54699
0
-0.119663
-5.50667
-1.39134
-0.850888
0
0
-2.16196
-3.27373
-3.127
-8.37158
-4.02675
-8.49235
0
0
0
0
-5.42999
-2.08536
-4.70943
-1.10504
-2.32959
-1.9435
-1.71145
0
-3.43296
0
-1.61237
-3.98896
0
-6.9091
0
-2.66422
-1.27971
-3.51396
0
-2.29292
-0.762668
-4.14404
-5.06704
-0.342104
0
-0.201788
0
0
-0.211623
-1.52852
0
-0.911041
-0.42995
-2.59756
-0.130703
-2.35905
-1.10892
-2.61953
0
0
-4.23156
-2.81809
-4.01763
-0.974183
-3.97171
-0.376786
-1.81717
-1.4358
-4.55417
-4.66322
-1.98025
0
-9.67012
0
0
-0.139277
0
-0.171138
-3.33843
-5.10529
-1.35091
-2.95547
-2.48355
0
-2.04744
-2.81004
-4.06396
-4.05498
0
-2.06231
-1.22882
-5.29554
-3.84007
-2.64205
0
-3.30844
-4.74484
-1.8066
-5.53557
-7.87573
-1.07416
-8.59866
-3.73302
-5.39264
-0.758194
-0.916901
-1.98438
-3.48604
0
0
-0.582411
-2.04533
-5.67247
-0.873714
-5.4158
-4.00626
-7.09033
-0.140209
-4.65394
-1.90901
-6.06573
-3.87931
-3.7111
0
-2.63993
-4.93796
-0.892733
-3.41625
-2.16484
-4.23098
-2.86928
0
0
-0.446268
-2.11651
-5.25103
0
-2.65638
-6.12773
-2.18501
-9.89669
-1.3638
-0.363971
-0.455535
-4.11352
0
-3.54759
-2.03218
0
-0.808589
-1.6936
0
-0.720375
-0.0996147
-10.0894
0
0
0
-4.71614
-2.80942
-1.88827
-0.404994
-1.12284
-0.889332
-1.23146
-0.538655
-0.459801
0
-1.76003
-1.72986
-2.3665
-1.43966
-1.94439
0
-6.13584
-2.95912
-2.78502
-0.0179293
-6.1159
-2.51896
-0.630052
0
0
-10.6052
-0.252874
-4.8671
-0.810487
-2.55689
-8.81848
0
-0.106394
-2.71221
-1.0035
-0.118556
0
-2.21128
-4.43375
-1.01163
0
-5.66811
-2.4687
-3.39157
-1.70686
-0.660817
-0.594367
0
-2.62145
0
0
0
0
0
0
0
0
0
0
0
0
0
0
0
0
0
0
0
0
0
0
0
0
0
0
0
0
0
0
0
0
0
0
0
0
0
0
0
0
0
0
0
0
0
0
0
0
0
0
0
0
0
0
0
0
0
0
0
0
0
0
0
0
-0.552159
-0.904781
-0.147234
-1.21063
-1.53862
-0.0648962
-0.579489
-0.699719
-0.722605
-0.607405
0
-1.4143
-1.49446
0
-1.37793
-1.31046
0.0671516
-2.13881
-0.153273
-0.728296
-0.764187
-0.143431
-1.54964
-0.981064
0.154708
-1.13425
0
-0.59524
-1.50268
0
-1.04352
-0.776147
-0.250455
-0.414245
0
-1.89137
-0.216355
0
-0.938745
0
-0.923678
-3.29573
0
-0.133402
-2.45551
0
-1.36285
-0.986376
-0.488503
-0.231048
-0.155536
-3.64345
-1.04634
0
-1.1201
0
-0.352343
-1.70548
0
-0.152321
-1.23856
0.0322417
-0.172269
-0.781418
-3.51064
-7.04849
0
-4.91838
-2.99539
0
0
-2.59064
-1.87019
-6.28953
-0.874383
-4.42509
-0.596862
-1.9973
-3.62311
0
0
-2.87019
-1.88319
-4.68391
-4.10695
-2.08643
-4.01382
-0.685222
-3.47479
-5.15813
-0.549124
-3.23
-1.62319
-5.05481
-0.310026
0
-1.86979
-2.28549
0
-0.263755
-2.35669
-1.17668
-2.80895
-0.269889
-5.68276
-2.02544
-1.98837
-5.88236
0
0
-2.74868
0
-0.864614
-3.47908
-1.32815
-2.03407
-2.91752
-2.411
-1.56974
-3.17216
-1.08718
-2.5611
-5.34638
-0.577847
-6.43683
-0.522576
-5.41231
-1.61507
0
-3.79423
0
-6.48003
-0.113503
0
-0.174567
-5.57335
-0.00419109
-4.46863
0
0
-2.72058
-0.0409568
-1.87994
-5.87283
0
-3.42889
-0.821696
-3.20595
-2.33639
-2.15341
-3.35576
-4.63908
0
-3.28036
0
0
0
-3.8647
0
0
-4.53023
-2.1123
0
-5.2567
-1.29483
-1.72062
-1.34547
-3.92373
-2.26442
0
0
-2.79624
-1.3197
-4.94914
-0.327416
-1.79388
-0.430224
-2.60857
0
-5.44676
0
-5.33046
-0.593978
-6.85705
0
-1.91131
-2.63523
-0.185727
-0.107636
-1.85182
-2.59134
-2.28069
0
-1.5498
0
-2.71948
0
-0.90522
0
-4.94472
-0.70595
-0.892485
-0.831176
-2.76788
0
0
-6.50352
0
-10.2341
-0.843165
-5.23112
-1.40405
-0.359207
-3.00238
-3.23395
0
0
-2.65063
-0.725371
-5.15791
-0.328335
0
-3.04776
-0.1735
-3.14308
-3.56292
-1.38647
0
-2.12576
-0.827788
-2.73427
-0.546652
-0.472228
-5.11027
-1.79216
0
-2.27769
-2.73332
-0.667764
-4.41013
-4.3391
0
0
-0.8717
-2.04106
-0.994986
-7.12598
0
-4.23664
0
-0.90403
0
-0.036233
-1.22115
-5.59074
-2.53487
-0.612976
-1.33644
0
0
-1.86221
-0.734008
-0.431206
-1.1666
-2.71988
0
-5.43281
-3.638
-2.42802
-5.98151
0
0
-1.59701
-1.34515
-1.04324
-3.42329
0
0
-0.389957
0
-3.09246
-0.623619
0
-1.43862
-1.50777
-4.20925
-1.22883
0
-2.43269
-7.664
0
0
0
-4.06139
-1.60959
-5.41379
-5.67152
-3.71215
0
0
-1.98422
0
-10.7478
-4.72617
0
0
0
-2.90567
-6.53525
-2.77562
-3.46613
-0.190324
0
-2.46257
-3.37366
-1.83799
-3.86878
-2.30512
0
-6.9263
-2.12995
-0.992524
-0.885062
-1.42726
-3.24908
-1.39865
-3.06802
-5.19958
-2.10847
-1.99891
0
-4.98623
-8.69319
-3.71351
-1.80458
-5.85452
0
-4.37874
-0.321277
-3.67866
-2.17745
-3.58601
-7.44868
-0.368355
-7.74154
0
-0.54967
-2.84072
-3.42369
-2.41532
0
-0.681693
0
0
-1.77263
0
0
-2.19446
-0.217028
-0.704346
-0.996901
-4.87361
-0.568136
-1.70711
0
0
-1.51834
-0.923678
0
-0.742497
-1.02464
-4.2466
-1.72694
-3.42773
-7.16359
-3.05499
-2.47989
-0.955874
-6.36345
-6.52047
-3.73147
-6.8629
0
-6.80744
-0.718531
-0.954024
-3.30124
0
-7.09536
-0.505757
-7.73239
-1.50057
-3.98958
0
0
-3.8642
-3.9454
-7.23858
-2.54982
-1.31181
0
-1.25512
0
-1.50285
-4.89626
-1.03657
-3.14176
-1.96723
-0.224059
-0.638448
-1.73196
-2.80074
0
-2.80704
0
-1.79736
0
-0.406451
0
-10.812
-0.98877
0
-2.63876
0
-10.6525
0
0
-2.47961
-4.34284
0
-1.73428
-2.25941
-3.42683
0
-0.410195
-2.25814
-1.77246
-0.216411
0
-0.699077
-5.09738
-2.06457
0
-6.09413
-2.08244
-3.32165
0
-2.03952
-3.81143
-0.957649
-0.497701
-5.56922
-2.05283
-4.97872
0
-2.95704
-5.22716
-0.562252
-4.25749
-2.08757
-3.81856
-4.76908
-5.80979
-2.38718
-3.06722
-4.1366
-4.99567
-3.66044
-2.56913
-0.501093
-2.81517
-1.82858
-2.52078
0
-3.9514
-0.963136
-4.50731
-4.8248
0
-2.54443
-1.10605
-2.16057
-0.0989373
-1.86945
-2.42624
-2.68088
-5.13376
-2.47601
-5.32636
-3.17458
-1.81372
-2.16235
0
-6.14458
-1.46364
0
-0.34089
-0.31451
-4.11202
0
-2.89998
-5.71434
0
-3.65741
-4.52465
-3.84122
-1.81047
-5.04484
-0.279229
-3.21834
0
-1.06961
-2.24529
-6.49618
-1.0469
-3.60784
-6.27519
0
-2.77078
-3.75265
-0.750629
-4.55257
-0.0607207
-6.98369
-0.719782
-2.4145
0
0
-0.820997
-1.62066
0
-2.3844
0
-0.543643
0
-3.2834
-0.808058
-2.03349
-0.315943
-7.77349
-2.46419
-16.8568
-5.45899
-6.38604
-3.60243
-4.59435
-0.0690341
-4.75647
-2.06259
-1.79237
-3.07448
-7.15747
0
-10.1568
0
0
-0.806398
-2.59112
0
-0.705294
-0.959827
-0.41876
-1.54577
0
0
-8.43308
0
-6.10983
-4.40117
-2.06728
-6.35306
-0.964158
-2.50971
-5.36773
-0.947085
0
-0.200346
-1.19339
-8.51413
-4.14732
-7.30814
-3.18281
-8.89709
-3.09412
-5.09171
-1.37922
-1.51894
-3.38101
-4.83369
0
-9.34719
-0.0177159
-5.01971
-2.27509
-0.0487406
-2.48696
-0.880068
-4.89849
-5.35918
0
-3.4359
-6.85061
-6.0349
-0.992322
-0.67931
-3.53711
-1.27914
-5.79422
0
-4.55215
-2.65789
-1.80552
-3.05341
-8.93925
-2.80831
0
-3.10555
-0.544448
-3.93681
-5.01005
0
0
0
-1.46768
-0.573718
-0.800025
-6.235
-1.97562
-0.0174459
-0.696892
-5.61392
0
-7.28507
0
-3.92605
0
-5.68263
-2.53914
0
-3.31686
-8.02455
-1.01362
-7.71261
-2.44395
-3.07412
-4.90538
0
-2.90949
0
-2.88547
-0.51418
-5.50985
0
-3.16118
-9.39551
0
0
-10.6987
0
-1.99064
0
-9.52532
-3.36139
-1.95884
0
-0.0239249
-1.63926
-2.78878
-2.52207
-6.63377
0
0
-8.21873
-0.551424
-4.35198
0
-3.7928
-0.419577
-0.766162
0
-7.58235
0
-3.67311
0
-5.94253
-2.14699
-3.18255
0
-7.80166
0
0
-1.08083
-6.56471
-0.500202
-1.00921
-5.66342
-4.63559
-2.17564
-6.66602
0
-11.008
0
-8.926
0
-4.15205
-2.46028
-1.41016
0
-1.57767
0
0
-0.676013
-5.57395
-4.23884
-0.690214
-2.91251
-4.98647
0
-0.36226
-0.203288
-6.73791
0
0
-0.334361
-1.17628
-0.36164
-4.63576
-0.0316011
-2.64016
-0.40241
-2.98792
-0.848984
-1.33134
-0.702775
-0.915262
-0.314492
0
-6.37639
0
-9.40997
0
-1.15458
0
-2.52623
0
0
0
-2.42409
-0.445116
-1.29996
-0.0192397
-2.99623
-0.692414
-5.37159
0
0
-5.15739
-0.141692
-1.34831
-0.876714
-2.45396
-8.38181
-2.46716
-0.552781
-3.5382
-2.90835
0
-5.65749
0
0
-6.82018
-0.0285075
-5.86387
0
-2.95757
-0.693937
-2.71501
0
0
-0.451774
-4.81096
-0.635531
-7.42235
0
-4.90373
-3.14388
0
-4.76944
-4.58559
0
0
-3.18402
-2.02227
-2.59565
-0.223233
-5.50154
-2.35986
-0.869421
-5.08573
0
-0.443866
-6.36229
0
-8.56503
0
-11.3956
0
-7.01995
-0.336771
-2.12771
-0.805769
-1.62481
-3.96244
-0.731028
-1.59837
0
-1.87042
-5.83678
-1.8378
-0.0964331
0
0
-2.32805
0
-2.90736
-1.61266
-4.61502
-6.63243
-9.47323
-2.23578
-4.17448
-0.914373
-0.186348
0
-3.6313
-0.743051
-2.22084
0
-0.971732
0
-2.63418
0
-6.20627
0
-4.76414
-2.91756
-1.77465
-4.21537
-2.08074
0
0
-4.30019
-3.56402
0
0
-0.78279
-0.778132
-0.551758
-2.51858
0
-0.496257
-1.32611
-0.895108
-6.16162
0
0
-3.19379
-0.824055
-0.26908
0
-4.18229
-0.316781
-5.69224
0
-1.29205
-0.0219642
-1.2937
-0.195939
-0.722546
-3.72201
-0.335273
-1.57871
-0.122447
0
-5.21725
0
-3.9069
-0.484111
-5.42606
-1.83488
0
-1.30683
-3.45739
-3.99225
-4.45848
-1.70038
0
0
-5.41754
-1.01574
-4.4209
-0.0893882
-1.4292
-5.14238
0
-3.0408
0
0
0
-3.6982
-6.4769
-1.51868
0
-3.14298
-0.115118
-2.24808
-4.13508
-1.208
-6.91511
-3.38116
-1.06292
-5.70582
-0.362365
-1.90655
-1.30978
-5.13361
-1.33721
-5.20202
-2.69335
-0.960884
-2.61316
-1.34524
-0.800113
-4.14835
-3.75467
-5.56675
-2.06064
-0.47017
-7.75077
-2.52601
0
-2.60595
0
-3.01699
-2.81801
-2.27118
-5.29071
-0.998415
-3.833
0
-4.11645
-1.70045
-3.68849
0
-2.64628
-0.628622
-4.30332
-1.2902