<?xml version="1.0"?>
<VTKFile type="RectilinearGrid">
<RectilinearGrid WholeExtent="0 32 0 32 0 32" Origin="0 0 0" Spacing="1 1 1">
<Piece Extent="0 32 0 32 0 32">
<PointData>
</PointData>
<Coordinates>
<DataArray type="Float32" format="ascii">
0 0.524874 1.04975 1.57462 2.0995 2.62437 3.14924 3.67412 4.19899 4.72386 5.24874 5.77361 6.29849 6.82336 7.34823 7.87311 8.39798 8.92285 9.44773 9.9726 10.4975 11.0224 11.5472 12.0721 12.597 13.1218 13.6467 14.1716 14.6965 15.2213 15.7462 16.2711 16.796 
</DataArray>
<DataArray type="Float32" format="ascii">
-5.03879 -3.62163 -2.20447 -0.787311 0.629849 2.04701 3.46417 4.88133 6.29849 7.71565 9.1328 10.55 11.9671 13.3843 14.8014 16.2186 17.6358 19.0529 20.4701 21.8872 23.3044 24.7216 26.1387 27.5559 28.973 30.3902 31.8074 33.2245 34.6417 36.0588 37.476 38.8931 40.3103 
</DataArray>
<DataArray type="Float32" format="ascii">
0 0.524874 1.04975 1.57462 2.0995 2.62437 3.14924 3.67412 4.19899 4.72386 5.24874 5.77361 6.29849 6.82336 7.34823 7.87311 8.39798 8.92285 9.44773 9.9726 10.4975 11.0224 11.5472 12.0721 12.597 13.1218 13.6467 14.1716 14.6965 15.2213 15.7462 16.2711 16.796 
</DataArray>
</Coordinates>
<CellData>
<DataArray type="Float32" Name="Scalar" format="ascii">
0
0
0
0
0
0
0
0
0
0
0
0
0
0
0
0
0
0
0
0
0
0
0
0
0
0
0
0
0
0
0
0
0
0
0
0
0
0
0
0
0
0
0
0
0
0
0
0
0
0
0
0
0
0
0
0
0
0
0
0
0
0
0
0
0.252822
-0.18729
0
-0.252833
-0.788213
0
-0.248967
-0.564424
0.452162
-0.144877
0
-0.295216
-0.0634647
0
-0.654099
-0.562818
0.0134239
-0.28841
0
-0.539267
-0.595895
0
-0.553473
-0.588355
0.347461
-0.0431296
0
-0.440153
0.14329
0
0.0820641
-0.332841
-1.29448
0
0
-1.00945
-0.586993
0
-2.12789
-0.324155
-0.256616
-1.16686
0
-0.0256963
-0.777815
0
-2.55235
-2.86667
-0.138492
-0.335606
-0.140684
-0.922714
-0.102899
0
-0.306046
0
0
-2.00012
0
-0.114701
-2.0737
0
-1.2634
-0.0990442
0
-5.79449
-0.627766
-0.526118
-4.64431
0
-4.80607
-0.93058
-1.45895
-3.95437
-0.921642
-4.58622
-2.14921
-9.6544
-2.75923
-3.60471
-0.914306
-2.50931
-1.53634
0
-2.10911
-9.23627
-1.23854
-1.64744
-2.36567
-1.27807
-0.60084
-1.49609
-2.46113
-5.81158
-4.09378
-1.99563
0
0
-2.78614
-6.85194
-0.4052
-3.60086
-1.20812
-4.378
0
-6.21628
-1.41837
-3.90327
0
-5.63828
-1.55287
-1.16459
-1.88847
0
0
-2.07716
-2.13033
-4.79566
0
-2.54973
0
-6.31135
0
-4.14377
-2.38828
-1.96745
0
-2.67629
-0.905123
-1.81774
-1.6571
-4.87786
-1.69962
-4.8937
-0.0660889
-3.1757
-0.708092
-1.95357
-1.0877
-0.561984
0
-2.6291
-2.70431
0
-1.08977
-3.71864
-3.79909
-0.606065
-2.58275
0
-0.346653
-4.3106
0
-2.33144
0
0
-5.11512
-1.3472
-3.88322
-1.14746
0
-3.61
-4.49202
0
-3.5195
-6.34933
0
-3.27589
-4.92082
-4.65022
-2.46764
-2.03621
-2.77029
-5.40294
-0.337182
-4.10727
0
-6.59428
0
-2.44199
-9.11751
-1.59637
-2.72146
0
-0.0817831
-1.29725
-1.3482
-1.79865
-2.75874
-4.08787
-0.42476
0
-7.68613
-0.0395347
-0.592868
0
-0.278252
-0.242625
-0.454721
-4.66006
-1.97012
-1.99551
-2.52052
-2.57867
-4.91052
-2.61371
-9.35509
0
-10.7775
-0.58639
-9.6197
-6.25526
0
-8.49208
-3.11349
0
0
-0.312736
-1.35993
-2.50157
-3.7658
0
-1.24008
0
0
-9.78963
0
0
-3.06649
-0.0246655
-3.82183
-1.20342
0
-2.71031
0
-6.17793
0
-6.73264
-2.68728
-0.420541
-3.63991
-2.60005
0
-2.19733
0
0
0
-5.72874
-2.63204
0
-4.28539
-3.74916
-2.8374
-0.313612
-2.90906
-3.95941
-4.08894
-1.27047
-5.30689
-2.21199
-0.333856
0
-0.881622
-2.08192
-1.63083
-0.8763
0
-1.68015
-0.850964
-1.71928
0
0
-1.31268
-3.80469
-0.491284
-4.465
-10.1072
-3.16325
-0.844016
-12.3888
0
-11.2283
0
-0.0329066
0
-1.56549
0
-8.5398
0
-3.8854
-5.86446
-1.13308
-4.92375
0
-5.82326
-2.11828
-0.788715
-0.38925
-4.53379
0
0
-5.72873
-3.33692
-3.67972
-3.96532
-0.411841
-1.51419
-6.60542
0
-1.5701
0
0
0
-5.01546
-4.0452
-2.41505
-1.74809
-4.82924
-4.2401
-0.250519
-1.7386
-1.13145
0
-6.28254
0
0
0
-4.95359
0
-4.57612
-0.25847
-0.149511
-1.32194
0
-1.75912
-0.504105
0
-4.06503
0
-2.87243
0
-7.66452
-11.7026
0
-0.348827
-0.746395
-3.11551
-2.61297
0
-0.560294
-1.3265
0
0
-2.88623
-2.44038
-6.33607
-1.68525
-0.934363
-5.91626
-0.183941
-7.99292
-7.96049
0
-0.175929
-0.204724
-4.19799
0
-3.3625
-2.74239
0
-0.946215
0
-3.58635
0
-1.06389
-2.44905
-1.38338
-1.81537
0
-2.69825
-4.86301
-2.37539
-0.814522
-2.81732
-5.46428
-1.21913
-3.38925
0
-0.955273
-10.2371
0
-2.67318
-0.636401
-3.57525
-0.526284
-0.456602
-0.60874
-6.16337
0
-0.989289
0
0
-8.70531
0
0
-4.12814
0
-2.20848
0
0
-1.59674
-2.67592
-1.71968
-1.25433
-5.64364
-0.805199
-2.17368
-3.86527
-4.8983
-7.61107
0
0
-3.85871
-0.13579
-3.31536
-4.89524
-3.10346
-3.64304
-0.1267
-1.5445
-1.40118
-4.07878
-1.6589
-5.13387
0
-4.05989
0
-7.23209
-6.02522
-1.43454
0
-4.5706
0
-0.823231
-2.37743
-0.745762
-1.61405
-4.87002
-7.1449
0
0
-4.51918
-0.507107
-2.28504
0
-0.584699
-6.73916
0
-11.0539
0
-9.1886
-2.87511
-9.64167
0
-9.18232
-1.01673
-0.391979
-2.49838
-8.17871
0
-3.12458
-0.17082
-4.79559
0
-0.535931
-2.82103
-2.28403
-6.8903
-3.72792
-4.6725
-3.2103
-6.11511
-2.37126
0
0
0
-0.82626
-1.50118
-4.4471
0
-5.92606
0
0
0
0
0
-2.4604
-4.75781
-2.44346
-1.89668
-0.137142
-0.296277
-4.07759
0
-2.84431
-2.54356
-2.05569
-1.38259
-1.69127
0
-2.32074
0
-1.36704
-1.00196
-6.74469
0
-4.88479
-4.26595
-3.19054
-3.2615
0
-1.86022
0
-1.75517
0
-2.63165
-1.06489
-2.69741
-3.73146
-0.0463629
0
-0.0444637
-1.68602
-5.71809
-6.23739
-0.322173
-6.67912
0
-3.16904
-4.80459
-5.90457
-3.52714
0
-6.09197
-3.84757
-1.55528
0
-1.49094
-1.57325
-5.56523
-0.169289
-3.5241
-2.84271
-1.1278
-5.81951
-1.08479
-0.450938
-0.768184
0
-2.74654
0
-2.81559
-1.7144
0
-9.67524
-0.0685654
0
0
-4.27078
-0.0190029
-7.01393
-0.50445
-0.505727
-2.38415
-1.08225
-2.35234
0
-5.47041
-0.959633
-7.81845
0
-2.30072
0
-7.71265
-0.595853
-1.30882
-2.23953
-2.19408
-0.0275313
0
0
-0.0024773
-2.42982
-4.00933
-6.93869
-2.54252
-2.19908
-2.42396
-5.16945
-3.67689
0
-4.45557
0
-1.14023
0
0
-4.71907
-1.43098
0
-0.19179
0
-4.36576
-0.691295
-2.7813
-0.0767322
-3.98104
0
-3.09812
0
-5.55789
-0.470493
-2.94332
-3.30314
0
-1.27969
-2.11846
-2.35154
-2.8377
0
0
-0.855582
-3.38751
-0.45831
-2.5311
0
-3.70394
-1.12992
-2.69387
0
-7.01955
-1.95274
-0.897591
-3.92148
-1.01342
0
-3.76995
0
-0.229218
0
-9.76816
0
-1.44762
-0.182475
0
0
-0.95038
-1.26708
0
0
-1.86135
-1.57102
-2.10519
-1.76336
-3.85934
0
-2.40159
-4.02018
0
-1.04387
-2.72717
0
-3.7098
-0.326314
0
-8.03039
-0.815246
-5.17655
-0.478363
-2.5144
0
-1.55645
0
-7.54578
0
-0.40689
-6.79029
0
-3.0433
-0.387693
-3.69597
0
-4.90378
-2.89521
-5.43354
-0.905894
-0.450406
-1.69517
-1.16193
-5.24632
-1.37157
-6.18551
0
-7.46044
-1.82407
-6.91819
0
0
-2.31726
0
-1.14087
0
0
-3.42373
0
0
0
0
-0.957325
-1.60818
-3.32456
0
-2.56449
-2.07411
0
0
-6.42898
0
-1.05618
-0.122656
-3.12781
0
-4.91423
0
-3.10731
-7.91558
0
-3.59409
-0.0485026
-7.09415
-0.0280595
-6.5337
-1.55873
-4.8278
-0.821846
0
-2.25642
0
-2.03297
0
0
-0.233159
-3.19686
-2.43046
-3.93949
0
-4.34494
-0.220744
0
-8.39276
0
-1.82938
-0.771156
-1.81535
0
-7.41025
0
-6.50369
0
-1.93683
-4.42722
-1.46186
-5.81847
-1.38157
-1.71726
-2.47183
-5.0274
-0.377644
-0.811941
-1.23838
-0.711588
-2.67841
-3.66162
-6.92164
0
-5.38392
-4.00454
-1.40913
-2.45821
-0.937037
-6.75761
-0.0218188
0
-1.62869
-0.966042
-3.33547
-1.26268
-0.552415
-1.23033
-2.54989
-4.5932
0
0
0
-0.125237
-8.77479
0
-2.06332
-2.7502
0
-2.75933
-2.62638
-4.88099
0
-7.81751
-2.16891
0
-0.723287
-0.0535135
-0.497888
-4.78239
-0.0202892
-7.47003
0
-1.38399
-5.74296
-2.5684
0
-0.832568
0
-2.86525
-0.234188
-2.7041
0
-4.21857
-1.38653
-0.121554
0
-7.27221
-5.85601
-5.86649
0
-6.2441
0
-2.22671
-0.44756
-1.30257
0
-3.32865
0
-1.40626
-0.981642
-4.46462
-0.737238
-2.01915
-1.72596
-3.66544
0
0
-3.60736
-0.479864
-2.62524
-1.71184
-3.23838
0
-0.995879
-3.53269
-0.236368
-2.48113
-0.831863
-0.456371
0
-3.01938
-0.233966
-3.87748
-0.55925
-4.36337
-0.225887
-6.53875
-0.170649
0
0
-0.029156
0
-4.29024
-0.770351
-1.75373
0
0
-3.00635
0
-1.47945
0
-7.70222
0
-4.93609
0
-1.74597
-4.47901
0
-5.12839
-3.31167
-1.22532
-3.60927
-2.07671
-1.65612
-3.96034
0
-0.0411725
-2.69758
-1.20139
-7.07658
0
-0.326283
-3.67835
-3.3602
-5.07502
0
-4.34309
0
-2.17277
0
0
-6.02967
-0.0316559
-5.21301
0
-6.31057
-0.414164
-3.26526
-2.52247
-3.79671
-1.0778
-1.13513
-2.29072
-2.29765
-2.16707
-0.0421694
-1.10638
0
-9.57322
-0.487512
-3.74181
-0.580414
-0.538175
-2.49105
-3.41593
0
-6.01853
0
-4.65741
0
-3.21755
-3.70056
-5.70175
-1.17686
-1.36427
-2.18007
-2.59964
-3.22528
0
0
0
0
0
0
0
0
0
0
0
0
0
0
0
0
0
0
0
0
0
0
0
0
0
0
0
0
0
0
0
0
0
0
0
0
0
0
0
0
0
0
0
0
0
0
0
0
0
0
0
0
0
0
0
0
0
0
0
0
0
0
0
0
0
-0.560134
-0.985747
0.0461934
-2.13839
-1.7141
0
-1.6031
-1.76752
-0.428863
-0.775181
0
-0.686982
-1.11018
0.0170109
-1.05062
-0.940505
-0.198951
-2.02784
0
-0.823695
-1.42616
-0.708757
-1.5969
-0.58294
-0.58527
-0.476178
0
-1.29167
-2.15169
0
-1.95421
-0.310182
-3.39708
-5.31468
-0.0496325
-0.713505
-1.67525
0
-1.48998
-1.65788
-0.82198
-3.02882
0
-1.45395
0
0
-3.03634
-0.34017
-0.00792491
-2.61942
0
-1.10199
-0.972947
0
-0.352049
-1.17176
-1.37404
-0.237868
-0.124085
-3.12033
-0.0323761
0
-2.42139
-0.565034
-3.25787
-1.06078
-1.31028
-4.17306
-2.61941
0
-2.08847
-1.8422
-3.01814
-1.80023
-0.227616
-3.82865
-3.57926
-2.31479
-6.66293
-2.53185
-3.35929
-6.14137
-2.95893
-5.48107
-2.55577
0
-3.62829
0
-1.44885
-5.17635
-3.83852
0
0
0
-2.26908
-3.11637
-3.36939
-3.81288
-1.28849
0
-0.603886
-2.16425
-1.66178
0
-4.77421
0
-0.13672
-6.80296
-0.972307
-0.845969
0
-5.67465
-1.69012
0
-3.53686
-0.141842
-0.997944
-2.00853
0
-9.33905
-0.796854
-0.281478
0
-6.14156
0
-2.14315
-6.9321
-0.372038
-3.06826
-3.9456
0
0
-3.87514
-0.0417504
-1.38705
-1.29016
0
-4.26589
0
-4.41259
-2.74192
-1.69829
-1.71038
-4.74571
-0.863251
0
-1.41198
0
-0.390893
-4.52673
0
-1.23089
-0.787115
-3.42892
-1.92033
-3.87341
-1.27526
-2.51026
-0.541829
-1.8114
-2.30422
-1.29195
-1.94061
-4.28986
0
-0.22929
-2.4258
-4.52522
0
-2.98321
-4.27044
-2.02488
0
-2.2669
0
-0.180503
-2.52553
0
-5.92376
0
0
0
-4.42754
-0.208809
-12.1327
-2.32155
-6.93796
-3.50323
-3.03755
-0.372141
0
-8.82834
0
-0.887905
-3.37155
-1.67913
-3.58773
-1.35629
-1.34999
-2.03738
-0.0186904
-7.59867
0
-5.09703
-4.32875
-3.83649
-1.43482
-1.26332
0
0
-0.166106
0
-6.10398
0
-0.323728
-5.64669
-0.267233
-7.1727
-5.21806
-1.12422
0
-7.9177
-0.927549
0
-0.178297
0
0
-10.9796
-1.60952
-8.49945
-0.347604
-5.5488
0
-3.08401
-0.13952
-4.83985
0
-1.5538
0
-1.7956
0
0
-1.03424
-1.92434
-1.34395
-2.92822
-1.00264
-0.193733
-2.7931
-3.09463
0
-1.35209
-2.42829
-6.74584
0
-0.476561
-0.737577
-1.64502
0
-1.03455
-6.42697
-1.86686
-3.6098
-2.98926
-2.04908
-6.68118
0
-5.69929
-4.56187
-2.02372
-2.27131
-0.468615
-5.14407
-1.07951
-7.16805
0
-3.17282
-6.95961
-5.54323
0
-4.05537
-0.212083
0
-9.61165
-0.122936
-7.544
0
0
0
-1.57381
0
0
-0.823342
-5.09497
0
-4.70045
-0.321768
0
-1.54227
-1.11738
-9.10275
0
-1.61303
0
0
-4.83759
-1.74029
-0.11916
-2.71207
-1.52595
-0.0306759
-3.49023
0
-0.54957
0
-0.68997
-1.40523
-0.174104
-0.0420745
-6.84323
0
-5.06156
0
0
-1.76722
-6.84642
-0.600054
-0.0848458
-0.0913582
-2.85609
-2.99487
-4.62109
-3.68524
-1.62352
-1.6103
-1.93625
-2.30637
-3.11858
-6.29894
0
-8.49624
0
0
-1.51032
-13.9902
-1.32049
-0.917965
-2.86864
-1.91395
-3.95865
0
-2.30001
0
-1.60235
0
-1.81415
0
-4.41993
-2.11732
-2.82154
0
-6.17379
0
-9.82085
-1.49162
-2.28982
-0.527118
-1.47403
0
0
-3.15098
-5.79878
-3.07391
-4.4074
-2.63036
-5.70953
-4.5592
0
-8.24865
0
-1.74961
-2.88865
0
-1.72968
-0.431739
-6.86192
0
-8.75001
0
-1.32033
-2.33422
0
-0.507612
-2.78062
-0.623457
-5.61779
0
-1.91582
-1.927
-2.3287
-5.78174
-0.232755
-0.624266
-1.96605
-5.41913
-0.695494
-2.78715
-5.2948
-5.01483
-5.51462
-2.23627
-0.361388
-1.71865
-2.6724
0
-6.53766
0
-0.310283
-0.931609
-1.60041
-5.85464
-1.35467
-7.15457
-0.398085
-5.68194
0
-0.0374943
0
-3.91966
-6.14619
-4.1699
-1.25142
0
-0.80029
-1.26498
-3.25373
-0.302943
-0.985694
0
-3.42029
-1.61407
-1.7045
0
-3.10069
0
-1.95431
0
-6.78904
0
-5.85913
-5.0881
-0.0714369
-1.49626
-4.53075
-10.4264
-1.72508
-4.59636
0
-0.38071
-0.602841
-8.33341
-0.281799
-1.51931
-2.54163
0
-0.647123
-8.84473
0
-1.1093
-3.90774
-9.3451
-0.229711
-1.67474
-0.391135
-3.62397
-3.35842
-4.23494
0
0
-0.0546103
-0.626266
0
-1.6645
0
-2.57952
-1.16031
0
-3.13095
-1.43416
0
-0.940759
-2.41648
0
-6.42849
0
-3.27661
0
-0.926283
-0.299244
-1.83838
-0.861174
0
-0.0493573
0
-2.89115
-0.15304
-3.34919
-3.44679
-0.0670528
-0.68908
-1.65787
-5.21187
-0.161983
-1.78991
0
0
-6.65168
-1.90445
-0.374753
0
-4.53215
-2.15571
-2.90536
-2.30937
-4.219
-0.993153
-3.07165
-4.16708
0
-1.25797
-1.29034
-6.27961
0
-2.25726
-2.55723
-0.469939
0
-0.245967
-8.69107
0
0
-2.20268
-0.128385
-2.21504
-0.845827
-0.670787
-2.29609
-0.528175
0
-2.4005
-5.85279
-2.11753
-3.66037
-0.564117
0
0
-1.78311
-3.78134
0
0
-7.53681
-3.29407
-1.76807
-1.09524
-1.44367
-0.669199
-4.60711
-2.96246
-5.70824
-0.0733789
-3.84029
-1.37275
-4.85284
-4.03268
-3.66326
0
0
-3.9739
0
-0.703182
-0.956159
-4.72591
0
0
-5.01958
0
-0.533677
-1.62331
-2.2534
-0.792302
-1.04686
-0.264215
-3.7413
0
-0.876068
0
0
-3.25828
0
-6.67059
-0.598845
-3.46083
0
-3.23095
-3.1806
-1.55374
-0.291016
-2.23335
-0.215471
-0.775571
0
-0.445867
0
-6.17906
0
-5.02558
0
-5.96422
-0.0694466
-0.834007
-1.83627
-0.882872
0
0
-4.12346
0
0
-2.43927
-3.28623
-2.01937
-2.64609
-1.37028
-0.830554
-5.48355
-2.16736
-0.635862
-0.143362
-4.22841
0
0
-3.12383
-2.02082
0
-3.28668
-4.15057
-4.93484
-0.264723
-8.8395
-0.189316
-4.29678
-1.79796
-2.35185
-2.12107
-3.81163
-4.17809
-2.80797
-2.15153
-2.40295
-5.53724
-2.16395
-0.140448
0
-2.88153
0
0
-1.30849
0
-4.87528
-0.351416
-0.477762
-2.7432
-3.71166
-2.00787
-7.77175
0
-0.589592
-2.66173
-1.69823
-1.302
-7.73334
0
-1.81817
-0.889094
0
-4.79456
0
-0.754233
-3.13782
-0.993325
-2.6675
-3.7394
-0.553705
-1.13324
0
-1.14008
-0.398233
-2.50099
0
0
-4.59635
0
-3.22192
-0.974995
-4.82011
0
-3.58595
-2.43513
-3.41212
-2.18928
-0.326727
-2.51456
0
-2.22215
0
-5.74592
-0.981886
-4.77193
-2.04279
-2.41236
0
-1.8671
-3.33645
-1.93236
-8.1829
0
0
0
-8.71186
0
-1.40421
0
-6.31126
0
-1.60447
-1.04274
-1.1956
-0.156284
0
-1.5823
-1.01108
0
0
-2.29675
-5.8884
-1.96271
-0.303876
0
-3.62278
0
-7.90681
-0.403095
-3.06086
0
-2.33384
-2.3142
0
-3.6147
-5.17839
0
0
-3.09506
-6.14943
-0.578418
0
-0.996173
-0.881265
-2.13713
-5.97318
-1.48435
0
-0.872235
0
-6.89845
0
-2.70346
0
-6.3613
-0.576441
-4.31677
-2.12394
-0.925407
0
-0.0164704
-2.40815
-5.54862
-1.41615
-0.0828008
-2.11937
0
0
-2.76571
-4.566
-3.41326
-4.70628
0
-6.66871
-2.2988
-9.86699
0
0
-5.97465
-0.933865
-9.21921
0
-6.73932
0
-5.33119
-3.51687
-4.96234
0
-0.619166
-0.430064
-2.29579
0
-1.65817
-0.692255
-7.37358
-7.25931
-1.84816
-3.00797
-2.44965
0
-0.244581
-11.5465
0
0
-7.7435
-0.822355
-1.65693
-0.613157
-1.63357
0
-5.17301
-1.64486
-7.52515
0
-4.8751
0
0
-0.0211292
-4.02284
-2.21291
-3.41558
0
-2.40875
-4.1514
-7.41901
-2.29217
-8.75228
0
-3.14642
0
-0.147654
-6.04873
-0.143797
0
-6.82159
0
-7.84963
-0.787279
-1.53009
0
0
-6.27888
0
0
-0.568923
-4.88777
0
-6.17674
-0.125305
-3.90691
0
-2.23647
-1.92114
-4.08983
-2.10709
0
0
-6.52867
0
-9.10954
0
0
-4.23354
-3.1308
-5.50986
0
-3.12198
0
-2.26651
-0.380967
0
0
-0.453515
-0.260303
0
0
-2.93797
0
-0.0363325
-1.85308
-2.02356
0
-11.1586
0
-7.87755
-1.2231
-2.04548
0
0
0
-5.09942
-2.08481
-0.789971
0
-0.113077
-1.20122
-1.63039
-2.89776
-4.17702
-4.3875
-1.17974
0
0
-3.87824
-0.080725
-7.0066
-0.784849
-2.54971
-0.354782
-0.139248
-2.49923
-1.69878
-0.0145947
-2.93115
-0.61889
-2.91649
-1.25718
0
-0.76838
-0.659814
0
-3.01562
0
-2.43344
0
-5.20107
-1.12054
0
-3.39954
-1.62533
0
0
-3.28012
-2.08286
-3.49667
-6.75141
-4.28508
-2.52954
0
0
0
0
0
0
0
0
0
0
0
0
0
0
0
0
0
0
0
0
0
0
0
0
0
0
0
0
0
0
0
0
0
0
0
0
0
0
0
0
0
0
0
0
0
0
0
0
0
0
0
0
0
0
0
0
0
0
0
0
0
0
0
0
-0.0429703
0
0
0
-0.0846386
0
0
0
0
-0.175287
0
0
-0.0725992
0
0
-0.0752302
-0.034703
0
0
-0.791869
0
0
-0.0592058
0
0
0
0
0
0
0
0
-0.388576
0
0
0
0
0
0
0
0
0
-0.033971
0
-0.173604
0
0
0
0
0
0
0
0
0
0
0
0
0
0
0
0
0
0
0
0
-5.91107
-1.91581
-4.11201
0
-2.31793
-0.270422
-1.85717
0
0
-2.79529
-0.563686
-1.29548
-1.10435
0
-1.5064
-0.557891
-0.919236
-1.7926
-1.77744
0
-5.04465
0
-1.86881
0
-0.403992
-6.06657
-1.56551
-3.01103
-7.29569
-4.53727
-3.2742
0
-3.78212
-1.60083
-2.03676
-2.59055
-1.10464
-1.24059
0
-2.53202
-0.111119
-9.27919
-0.140302
-0.44165
0
-4.56456
-0.806347
-1.3823
-6.40045
-3.71488
-3.80126
-4.76048
-3.75447
-2.45793
-0.498982
-4.26191
-1.43372
-2.78636
-4.82836
0
-4.27286
-0.371193
-0.655629
-0.11425
0
-0.564427
-0.294508
-5.00658
0
-1.76984
-0.954347
0
-4.55583
-0.979701
-5.14798
0
-7.11046
-2.84209
-9.17913
0
0
-6.65864
-0.543244
-3.6494
-0.809363
-6.97333
-1.51896
-5.55422
0
-4.98944
0
-3.34227
-3.01326
0
-2.18831
0
-1.73772
-2.85732
-2.28534
-1.55547
-2.11876
-4.78081
-1.81763
-2.99276
-2.98996
-3.84342
-0.114477
-1.71852
-0.993316
-3.45712
-1.53778
-2.79057
-1.61092
-0.972213
-2.51885
-3.93299
-8.88654
0
-8.24965
-1.47203
-1.98224
0
-4.6813
-0.545187
-8.34469
-0.315039
-7.96912
0
-0.482223
-6.01213
-0.343256
0
0
-0.732766
-5.64544
-3.30835
-4.29264
0
-2.05775
-0.0553066
-2.66674
0
-2.68938
-1.29092
-2.57888
-3.72587
-1.31127
-2.95945
-0.564914
-0.907504
-0.640185
0
-0.622256
-3.7421
-1.36673
-5.14819
0
0
0
-7.63253
-6.15541
0
-4.31896
-1.71659
-0.884965
-0.602158
-5.83622
0
-4.85368
-2.58223
-1.34409
-1.31599
-1.92152
-0.522933
-1.26951
-2.9309
-0.542261
-5.14508
-1.92769
-2.41893
-5.19641
-0.0793695
0
-5.06579
0
0
-5.59271
-4.09043
-1.44233
-0.133569
-6.84556
-2.29316
-0.659524
-4.84756
-1.84137
-3.36209
0
0
-1.50463
-0.204398
0
0
-4.25072
0
-0.320476
0
-4.01079
-0.664428
-3.58283
-0.555185
0
-2.08961
-2.24109
-0.829218
-1.13196
-4.64051
-4.19186
0
-1.78231
-1.12782
0
0
-0.82914
-7.06243
-0.639423
-6.5736
0
-6.77658
-1.72513
-3.20366
-0.222414
-3.06027
-4.12345
-2.21827
-0.680634
0
0
-5.04435
-0.00853453
-5.31451
-0.569503
-1.92972
0
-4.09212
-1.83047
-2.99838
-0.0770985
-1.11143
0
-1.7598
0
-1.04806
0
-5.15881
-1.19984
0
-5.64004
0
-0.0833118
-0.696286
-5.67064
0
-4.82479
-0.716721
-0.776998
-4.65849
-5.58603
-2.78473
-0.156291
-2.28156
-2.44396
0
-7.02408
0
-0.324388
0
-7.20134
0
-7.04576
0
0
-3.46891
-5.09834
-5.89608
-0.409603
-1.98862
-6.92068
-0.713121
0
-1.84993
-2.83438
-1.37673
-3.49937
-1.62675
-3.52101
-7.99626
-2.86242
-1.45379
0
0
-2.56248
-1.40299
-3.42358
-1.53683
-3.07231
-4.26094
-4.73753
-4.21081
-0.109392
-7.21813
0
-4.16169
-1.4759
-1.7653
-0.99777
0
-4.73112
-0.36259
-0.908476
-0.212159
-7.36881
0
-6.65567
-0.0496953
-3.43454
-1.65318
0
-3.72853
-5.81222
0
-0.35749
-4.63723
0
-0.806257
-4.28254
-1.11395
-0.816973
-0.568474
0
0
-1.81844
0
0
0
-0.405363
-0.528557
-1.82858
-4.4469
-0.261284
-5.29524
-0.274926
-3.23522
-2.28679
-5.10259
-1.70417
-1.87031
-0.110542
0
-2.77305
0
-1.42836
-8.94562
-9.47452
-10.399
-0.433237
-0.819187
0
-1.24292
-7.80936
-5.17624
-1.12118
-0.834373
-0.955009
-0.501388
-4.00229
-0.789402
0
-9.42865
0
-3.90895
0
-6.82737
0
-3.94184
-3.77915
0
-0.50942
-0.524599
-12.2549
-1.7096
0
-8.47168
0
-4.43571
-1.28954
-1.70656
-0.742907
-6.29729
-1.54956
-4.60254
-2.30696
-1.80864
0
-6.21596
-1.50592
0
0
-5.83545
0
-2.15955
-0.75677
-0.0561667
-0.175888
-1.71398
-4.97568
-0.277556
-1.96874
-2.35451
-0.371036
-1.93087
0
0
-0.91814
-4.58863
0
-5.06611
-0.710681
-4.01409
0
0
0
-2.24402
-0.646127
-3.28755
0
-6.46917
0
-6.66074
-1.36107
-6.46626
-1.80593
-4.11396
-1.64356
-0.300346
-2.06122
-5.99724
-1.79414
-1.90795
-1.35715
-1.68272
-7.66129
-5.42178
0
-7.7251
0
-6.75726
0
-0.809117
-2.24074
-0.162661
-2.47729
-5.16674
-0.67559
-3.63639
0
-5.57882
-0.23736
-1.26648
-1.17922
-5.38243
-0.263777
-2.9369
-2.16312
-0.267984
-0.063491
0
-3.54263
-0.557599
-2.31544
0
-5.9653
0
-1.3756
-0.156295
-6.3652
-2.21641
-3.00314
-0.445693
-0.699363
-4.02906
-1.57496
-7.47642
-0.053125
0
-0.665229
-7.52597
-1.91691
0
-3.577
-0.661925
-3.98773
-0.0182491
-0.42112
-1.01076
-0.817119
-6.40881
-1.40139
-1.99483
-1.29294
0
-4.69162
-0.74289
-0.785579
0
-2.48331
-0.751589
-0.0444425
-0.960866
-1.33637
-1.7021
0
-0.420741
-3.59901
-0.240032
-2.96805
0
-1.26674
-0.730339
-0.356461
-3.2336
-1.1581
-1.27579
-0.719047
-2.69327
-0.296269
-0.485172
-2.1454
-1.89816
0
-4.99324
0
0
-4.69114
0
-3.33737
0
-6.5278
-1.39905
-2.66403
-3.19793
0
-4.99411
0
0
-1.20763
-2.6262
-0.425422
-4.04905
-1.19996
-1.10639
-0.00743685
0
-0.391549
-2.48089
-0.868829
-1.13981
-0.577957
-6.62011
-4.52749
0
-4.67432
-1.13311
-3.90257
0
0
-2.6073
-1.41659
0
-2.2834
-0.051836
-2.05105
-0.89764
-6.18563
0
-0.865705
-2.11887
-0.0982767
0
0
0
0
-0.225383
-2.49044
-0.890436
-3.35876
-0.78543
-4.49449
-1.82435
-6.53166
-0.136302
-7.94799
-4.65698
-0.457859
-5.77443
-1.07522
-3.45778
-1.88357
-0.0446195
-2.83878
0
-5.14177
0
0
0
0
-0.224842
0
-2.13258
-0.255943
-1.84507
-1.7397
-3.75344
-2.07299
0
-6.74535
-1.62502
-4.206
-0.992236
-6.87035
-0.537684
0
-4.62636
0
-10.3401
-0.925532
-5.96909
0
-7.60521
-2.08306
-3.63607
0
-0.36214
0
-0.668625
-0.589307
-2.33813
0
-2.36495
-4.01301
-2.16053
-3.26463
-6.27023
-3.36992
0
-4.94311
-0.334687
-4.55656
0
0
0
-2.04287
-6.97927
0
-0.00618025
-2.76748
-0.848477
-1.49417
-2.67493
-0.743481
-4.26968
0
-3.14886
0
-6.84179
-2.57501
-1.19624
-2.17149
-4.64509
-5.87822
-3.64697
-0.481805
-4.15591
-4.17573
-2.61579
-2.22456
0
0
-1.35483
-5.25906
0
-0.585586
-4.43214
0
-1.39604
0
-2.01626
-1.65247
-2.08808
-6.50324
-1.51552
-0.0222592
-7.85459
0
-1.31953
0
-2.03252
-2.80095
-0.827656
0
0
-5.16351
0
-1.23155
0
-0.961355
-0.949076
-0.58421
0
-0.503125
-1.3122
-2.5333
0
-0.78262
-3.20639
0
-2.51089
-1.10534
-0.124385
0
-0.192868
0
-4.59381
-0.809086
-2.89827
-0.26825
-6.70966
-0.762079
-2.7345
-0.671895
-0.570098
-4.39745
-1.28173
0
-6.38347
-0.303833
-3.89196
-1.41044
-6.07552
-3.6952
-0.930633
-0.33906
-2.8837
0
-1.13912
-5.09572
-6.58078
0
-12.1353
-2.90504
-1.1449
-1.46735
-4.23011
0
0
0
-1.39557
-1.56351
-0.590565
-0.807051
-1.90252
-0.353967
-0.688041
-1.91508
-0.406299
-10.3906
-1.85197
-2.57154
-7.31498
-1.60666
-0.106598
0
-1.7411
0
-0.754549
-0.274223
0
-5.23066
-4.58906
-1.3778
-0.89888
-0.775042
-4.35677
0
0
0
-3.5556
-5.70826
-1.90824
-7.54638
0
0
-1.54073
0
0
-3.07824
-1.94917
-8.39578
0
-4.57957
0
0
-3.11271
0
-3.08994
0
-1.91705
-0.733382
0
-1.96101
-3.57596
-4.91317
0
-0.357195
-0.437405
-8.28347
-0.0508433
-2.72698
-3.83044
-2.2539
-7.29096
-0.275996
-3.42224
-3.20637
-2.90585
-2.36164
0
-5.74993
0
-0.925242
0
-1.98757
0
0
-0.495985
-4.40585
-1.04731
-6.00181
-0.684389
-0.941279
0
-5.39661
0
-7.76233
0
-5.40799
0
-0.259084
-5.66647
0
-7.4188
0
-4.13485
-0.804827
-4.36407
-1.64615
-1.0586
-2.25032
-3.44636
-1.16983
-0.936357
-0.315908
-1.37235
-4.07339
0
-3.21503
-0.717412
-1.26586
-12.945
0
-2.66352
-2.80377
-3.85722
-2.52224
-4.26263
-5.23744
-3.73322
-3.70517
-4.14189
-4.6579
-4.68106
-2.81936
0
-1.53391
-3.3057
-2.33218
-1.60707
0
0
0
0
0
0
0
0
0
0
0
0
0
0
0
0
0
0
0
0
0
0
0
0
0
0
0
0
0
0
0
0
0
0
0
0
0
0
0
0
0
0
0
0
0
0
0
0
0
0
0
0
0
0
0
0
0
0
0
0
0
0
0
0
-0.0423186
-0.904405
0
-1.26308
-3.10243
0
-0.9026
-0.971586
-0.689662
-0.808859
0
-0.824826
-0.676087
0
-1.11248
-0.809816
-0.427603
-1.11037
0
-1.15046
-0.420652
-0.0683819
-2.15017
-1.12963
-0.178681
-0.756011
-0.156811
-0.673477
-0.768394
0.0352582
-1.82181
-0.78949
-1.13336
-1.98064
0
-2.03564
-0.464257
0
-1.85492
-0.116587
-0.0218704
-3.25529
0
-3.66362
-2.62547
0
-1.99144
-1.13652
-1.53925
-0.0753166
0
-1.23468
-1.75844
-0.00935653
-1.5358
-0.0298142
-0.174315
-2.5679
-0.0206247
-1.06528
-3.21714
0
0
-1.49173
0
-1.24584
0
-0.316335
-1.14808
-0.11048
-3.21683
-2.74362
-3.52277
-4.24129
0
-3.86092
-3.14367
-1.80582
-6.51035
-1.8042
0
-2.23967
-0.401741
0
-1.97051
0
-6.1686
-1.9825
-3.4147
-0.906708
-0.721481
-2.22942
0
-1.78224
0
-2.0295
0
-1.00555
-4.63343
-2.62817
-4.56859
-4.54751
0
-6.64593
-1.14232
-0.727532
0
-6.47897
0
-1.3383
0
-7.07524
-2.45757
-1.29428
-2.53827
-0.07006
-0.0521181
-1.03878
-1.968
-0.557435
-7.05324
-0.852507
-3.94556
-0.417394
-0.662659
-1.09345
0
-5.85043
-2.73559
-2.91929
0
0
-3.71666
-1.56427
-4.61066
-0.377011
-3.53824
-0.327829
-6.75147
-1.82795
-7.0658
0
0
-9.83981
0
0
0
0
-2.12045
-0.285995
-3.25456
-2.95938
0
-6.34231
-0.171063
-3.28896
-0.943173
-2.26426
-1.0033
-1.91383
-1.31494
0
-5.08231
-3.29484
-3.59348
-2.38426
-1.05569
-3.38771
-0.337825
-3.25028
-0.456755
-1.51372
-0.681478
0
0
-3.62927
0
-5.34793
0
-4.31539
-2.41935
0
0
-1.55922
-0.954625
-0.986092
-3.68363
-2.09723
-5.67174
-0.0884952
-0.28483
-1.06591
-2.43529
-2.07714
-2.12068
-2.89918
-6.82579
-1.25456
0
-0.0734739
-1.34419
0
-4.35201
0
-5.48046
-0.248268
-6.1871
-0.156277
-3.67632
0
-2.8444
-0.0993446
-0.691014
-5.81923
-1.92698
-7.29694
-1.39534
-5.92866
-0.36691
-5.1267
0
-8.23463
-1.56475
-6.20797
-1.32774
-0.228222
-3.29728
0
-3.43789
-0.898786
-6.81383
0
-4.17733
0
-5.60055
0
0
-2.4186
-0.101062
-0.711918
-0.271647
-0.0261281
-0.343852
-3.31133
0
-5.80886
-1.11411
-0.0790799
-7.34428
-2.94096
-0.141949
-0.498608
-1.25549
-1.59108
-0.183853
0
-3.54128
0
-0.420415
-7.75843
-1.26911
-6.45691
-3.48503
-2.61288
-2.89426
-5.55426
-3.83607
0
-4.36422
0
0
-1.19851
-3.16283
-0.0839237
-8.84587
0
-0.695682
-5.39717
-2.50668
-4.07934
-0.414895
-5.27119
-1.4211
-3.89979
-4.54472
-3.40126
-5.84479
0
0
0
0
-0.0153319
-2.21597
-1.50992
-0.587161
-2.64435
0
-0.885204
-3.74553
0
-0.662093
-2.65119
-2.71757
-2.66819
-0.0109936
-5.90213
-2.72978
-3.94464
-2.55276
-2.15599
0
-5.49746
-2.40958
-1.03974
0
-0.0930158
-3.53279
-1.9366
-0.911022
-4.12625
0
0
-7.68344
-0.588578
-0.423494
-1.63196
-1.25736
-4.05818
-1.53689
-1.55672
-1.92016
0
-12.2339
-2.57856
-8.05024
-5.43637
-1.14764
-2.64922
-3.5087
0
-0.55998
0
0
0
-4.1794
-0.947894
-2.07847
0
-1.19715
-5.13801
-1.57472
-1.33486
-0.947075
-1.48896
-2.82144
-0.0153229
-1.56273
-0.933231
-4.05014
-0.77508
-1.5583
-1.59941
-5.56729
-1.06324
0
-0.399497
-4.00773
-0.242853
-5.86846
-0.296305
0
-2.74146
-0.183094
-1.65272
-1.71918
-4.37823
-4.13543
-1.65489
-2.07429
-1.92851
-1.17168
-0.146861
-3.35142
-1.15185
-0.598467
-0.821978
-3.65097
-0.390529
-7.95222
0
-4.32046
-0.160721
-1.5108
-2.41355
-5.42083
0
-8.5344
-0.639502
-4.15834
-0.379605
-2.15293
0
-5.34567
-0.475252
-2.90551
0
0
-7.89669
-0.285626
-3.57518
-0.199852
-4.92842
-0.671799
-9.55107
-4.16295
-0.621041
0
-6.07653
-3.14368
-3.37112
-0.315189
-0.339474
-3.77314
-4.03737
-2.49216
0
0
0
0
-3.63591
-1.44311
-0.376454
-2.00475
-1.34842
-3.17379
0
-2.2964
-1.88412
-0.335183
-0.717656
-1.69766
0
-0.289094
-0.0788553
-4.91636
-1.67726
-7.79743
0
-2.37478
0
-9.74245
-0.362774
-3.5466
-2.24895
-5.0016
-0.924874
-4.72115
-2.02383
-0.722226
-3.50368
-0.977355
-0.954959
0
0
-0.50362
-4.22954
-4.5999
-0.205328
-2.88897
-4.66394
-2.42362
-0.519089
-1.25572
-1.96646
-3.38124
-2.26205
-4.27145
-3.6861
0
0
0
-3.85472
-1.66719
-3.51296
-3.9343
-1.10994
-7.32959
0
-2.38766
0
-7.81544
0
-6.52509
-2.25147
-5.708
-2.40849
-4.64284
-2.16139
-5.61048
-2.14191
-1.85011
0
-0.0876341
-9.10859
0
-4.86743
-0.852624
-2.42034
-2.81855
-0.342737
-1.76159
-1.53547
-4.14333
-1.44879
-0.149999
-1.04568
-4.74843
-1.28532
0
-0.835965
-6.86907
0
-4.27986
-2.53018
-3.72569
-2.86258
-4.40572
-0.675938
-1.99365
-1.27749
-0.61685
-0.386249
0
-6.07133
-4.20227
-2.40213
-4.0897
0
-3.17406
0
-4.1971
-4.90098
-1.39166
-2.5119
-1.69649
-5.45362
0
-2.39574
-1.00039
-2.12366
-2.34198
-1.95849
-4.22979
-2.8
0
-0.933167
-0.758362
-8.80361
0
0
-1.72291
-0.0363801
-8.41905
-7.36479
0
-2.94849
-1.24697
-3.06409
0
-1.88178
-2.55434
0
-2.71605
-1.42839
0
-5.12656
-1.84913
-1.91405
-0.692044
-0.157645
-0.773845
0
-0.366139
-2.4032
-2.80523
0
-4.69787
-4.12007
-4.04152
-4.37191
-0.513441
-6.90582
-0.472223
-0.113129
-0.658442
-1.73698
-1.84621
-0.336878
-3.14931
-4.01283
-0.863472
-1.30584
-0.407617
0
-5.34151
-1.7546
-3.04658
0
0
-6.81424
0
-1.73104
-2.30527
-0.897168
0
-1.48644
-1.25231
-1.4201
-2.16803
-3.52905
-0.594026
-0.880875
-2.65842
-3.1791
-0.57533
-1.37987
-1.54345
0
-2.0767
-2.92079
-2.27752
0
-2.37969
-3.09419
-1.08257
-0.62958
-1.24358
-3.74891
-8.42498
0
-5.11473
-0.189223
0
0
-3.17263
-3.36666
-2.97358
-2.13421
-3.37516
-1.33596
-5.45283
-2.31429
-6.1599
-1.48924
-8.07334
-0.200266
-3.1409
-0.538217
-1.49908
-1.50689
-0.810836
-1.35388
-2.97151
0
0
-7.53698
-0.356885
-1.51348
0
-2.72424
0
-2.17942
-2.65096
0
-2.33292
-0.698612
-7.79598
0
-5.51837
-1.81951
-2.46359
0
-1.02483
-4.33807
-0.133476
0
-0.92583
-3.74614
-3.95745
0
-4.26904
-0.585159
-1.24665
-7.72491
0
-4.19441
-1.57698
-2.38621
-2.18484
-0.731694
-0.405519
0
-4.69309
0
0
-1.56244
-2.31905
-0.879384
-3.75682
0
-3.22785
0
0
-8.11902
0
0
-0.341571
-8.94781
-0.483193
0
-0.251859
-2.91606
-6.88578
-1.78006
-8.46072
0
-4.7863
-0.930717
-1.07608
-0.685922
-0.328583
-0.0932731
0
-1.65655
-0.0979466
0
0
-0.63352
-3.18838
-1.61237
-4.42018
-1.09731
-2.10177
-0.151675
-2.33596
-0.0876677
0
-0.603811
-0.546615
-4.77918
-1.10984
-4.21153
-0.484775
-1.00405
-0.739246
-2.78091
0
-5.78714
-0.135553
-1.4975
-1.05959
-4.598
0
-3.10928
0
-0.0865933
-2.78133
-4.03562
-3.80755
-3.55239
0
-0.178369
-3.42937
-5.70791
0
-7.16858
-1.23094
-5.86787
-3.84544
-2.61676
-0.327082
-6.10362
-0.744649
-5.16165
-2.84916
-7.93025
-3.08942
-4.13721
0
-5.3114
-0.342644
-7.81381
-0.87709
-9.08659
-1.5708
-7.11926
-0.494528
-6.73731
0
-4.92752
-4.13163
-1.06436
-3.20118
-8.23484
-0.371185
-4.73662
-1.50302
-3.73269
-0.66111
-4.92239
0
-5.09485
-3.51911
-3.85693
-7.54054
0
-7.74603
0
0
-1.08794
0
-0.376375
-1.4867
-3.65461
-3.53556
-4.47076
-1.041
-5.79373
-1.52799
-4.18941
-2.78657
-3.6183
-2.17927
-2.24955
-4.20203
-3.0708
-3.98225
-0.892023
-0.260892
-1.39692
-1.48993
-1.01804
-1.19937
-6.73435
0
-4.44645
0
-5.64097
0
-2.53058
-2.18166
-2.77858
-4.05907
-0.205937
-3.59377
-3.39714
0
-1.05236
-6.33325
-1.65575
-4.82675
-0.85113
-0.352091
-4.2733
-2.82303
-2.44251
-5.90183
-0.27186
-5.69005
-1.11236
-4.3277
-1.29209
-2.74665
-1.3668
-5.15266
-3.16333
0
-0.463904
-1.75909
-1.24401
-2.64207
-4.28203
-2.01491
0
-1.48201
-1.05312
-1.09665
0
-0.564378
-2.02156
-2.43082
-2.99671
-0.261495
-1.87909
-1.05428
-3.20437
-1.99621
-3.17204
-1.2513
-5.06273
-3.44692
0
-4.00429
0
-0.229538
-2.31567
-6.14143
0
0
-0.507946
0
0
-2.03508
-1.36182
-0.610277
0
-1.58991
-1.15148
-4.35922
-0.927617
-2.06227
-0.505682
-1.47731