<?xml version="1.0"?>
<VTKFile type="RectilinearGrid">
<RectilinearGrid WholeExtent="0 32 0 32 0 32" Origin="0 0 0" Spacing="1 1 1">
<Piece Extent="0 32 0 32 0 32">
<PointData>
</PointData>
<Coordinates>
<DataArray type="Float32" format="ascii">
0 0.524874 1.04975 1.57462 2.0995 2.62437 3.14924 3.67412 4.19899 4.72386 5.24874 5.77361 6.29849 6.82336 7.34823 7.87311 8.39798 8.92285 9.44773 9.9726 10.4975 11.0224 11.5472 12.0721 12.597 13.1218 13.6467 14.1716 14.6965 15.2213 15.7462 16.2711 16.796 
</DataArray>
<DataArray type="Float32" format="ascii">
-5.03879 -3.62163 -2.20447 -0.787311 0.629849 2.04701 3.46417 4.88133 6.29849 7.71565 9.1328 10.55 11.9671 13.3843 14.8014 16.2186 17.6358 19.0529 20.4701 21.8872 23.3044 24.7216 26.1387 27.5559 28.973 30.3902 31.8074 33.2245 34.6417 36.0588 37.476 38.8931 40.3103 
</DataArray>
<DataArray type="Float32" format="ascii">
0 0.524874 1.04975 1.57462 2.0995 2.62437 3.14924 3.67412 4.19899 4.72386 5.24874 5.77361 6.29849 6.82336 7.34823 7.87311 8.39798 8.92285 9.44773 9.9726 10.4975 11.0224 11.5472 12.0721 12.597 13.1218 13.6467 14.1716 14.6965 15.2213 15.7462 16.2711 16.796 
</DataArray>
</Coordinates>
<CellData>
<DataArray type="Float32" Name="Scalar" format="ascii">
0
0
0
0
0
0
0
0
0
0
0
0
0
0
0
0
0
0
0
0
0
0
0
0
0
0
0
0
0
0
0
0
0
0
0
0
0
0
0
0
0
0
0
0
0
0
0
0
0
0
0
0
0
0
0
0
0
0
0
0
0
0
0
0
-0.00961426
-0.418991
0
-0.479521
-0.926684
0
-0.167146
-0.532797
0.0328662
-1.32367
0
-0.888981
-0.298123
0
-0.935623
-0.834971
-0.126449
-0.289755
0
-0.685961
0.124071
0
-0.439342
-0.582649
-0.183185
0.082854
0
-0.309701
-0.374224
-0.0319671
-1.05225
-0.227285
-0.156302
-0.0850319
-0.050549
-3.21041
-0.118343
0
-0.0070797
0
-0.161887
-1.41062
0
-0.222539
-1.60385
0
-1.11541
-1.39457
-1.60262
-0.546347
0
-2.13469
-1.02322
0
-1.26475
0
-0.016632
-0.760823
-0.401259
-0.148295
-1.02382
0
-1.35217
-1.09505
-3.23624
-2.51993
-4.7582
0
-3.04639
-3.40288
-3.10888
-3.23789
-5.72217
-1.70608
-3.41475
-2.72249
-2.10642
-5.80144
-4.78829
-3.41408
-0.749205
-0.847166
0
0
-4.61597
-2.45733
-1.22503
-1.32997
0
-3.98163
-0.358918
-2.44496
-3.61899
-0.728105
-3.49392
0
-1.93381
-3.547
-0.385255
0
-0.130117
-1.20431
-0.13651
-1.06183
0
0
-4.80892
0
0
-3.70683
-4.36245
0
-1.11284
-4.03933
-2.67965
0
-0.325171
-0.976527
-6.15353
-0.913616
-0.48237
-1.15449
-3.04163
-1.82088
-1.93401
-2.25759
-1.8274
0
-3.81864
-0.104248
-4.77731
0
0
-1.43354
-0.924874
-3.91414
-4.29858
-3.29299
0
-0.632136
-3.80062
-0.604744
-0.0911243
-0.651192
0
-2.29066
-5.43318
-1.42491
-11.1347
-1.232
0
0
0
-0.721015
-9.12363
0
-5.74652
-4.59488
-0.381729
0
0
-3.146
-1.91055
-0.150284
-1.19522
-3.53301
-0.962325
-7.37808
-3.66387
-3.29287
-5.41345
0
-0.491856
0
-0.569502
-2.82492
-0.903458
-9.53782
0
-5.68551
0
-9.02899
-0.00636852
0
-5.0721
-3.20554
-5.75653
-2.26521
-4.51128
-1.40412
-0.791527
-0.0118653
-4.4143
0
-0.32757
-2.89007
-3.04663
-0.286155
-2.01858
-0.502158
-4.91215
-2.46464
-0.677011
-0.0360478
-5.14186
-6.18128
-1.23489
-4.51102
0
0
-7.2842
0
-4.41474
-6.17908
-1.79814
-0.771174
-7.2095
-1.56392
-2.76073
-2.14798
0
-1.49246
-6.16242
-0.581715
-5.02784
-4.04479
-0.270447
-0.353538
-3.84481
0
0
-0.855498
-0.0363698
-7.58896
0
-2.19097
0
-0.444643
0
-1.35993
0
-6.17148
0
-6.17091
-0.406858
-0.297946
-4.65274
-1.04422
0
-4.60456
-0.651099
-1.58233
-0.726976
-0.603184
-4.1293
0
-0.843571
-0.852988
-1.34531
-6.72392
-4.76046
-3.75465
-3.38438
-5.51478
-4.06911
-3.88904
-5.89708
-0.670628
0
-2.84607
-3.28862
-0.861452
-4.29291
0
-2.91471
-0.174112
-3.34611
-1.04762
-2.80129
-2.813
-0.422261
-6.48003
0
-5.02512
0
-7.1682
-0.797936
-1.48199
0
-1.87753
-2.80625
0
-2.00524
-0.813968
-2.69523
-4.48182
0
-0.689381
0
-1.8747
0
-0.988299
-1.99477
-4.32156
0
-1.94422
-2.8791
-0.457398
-2.46559
-1.09809
0
-1.11022
-7.87643
0
0
-2.553
-5.04947
0
-7.96208
-2.17123
0
-2.00952
-1.39676
-11.5974
-4.1345
-6.55722
0
-3.77857
0
-0.858432
0
-2.99356
0
-4.67543
-0.244674
-5.26747
0
0
-3.84335
-0.498617
0
-1.76195
-4.91612
-1.18919
-2.58743
-2.5861
0
-0.0846777
-1.16348
-3.48296
-0.157725
0
0
0
-3.13912
-1.11654
-2.30476
-0.181556
-2.88324
-3.13575
-3.47708
-2.2336
-0.0547829
-1.01069
-9.67792
0
-0.461888
0
-3.04102
0
-3.37571
0
-2.29952
0
-2.58829
-1.42849
0
-3.99171
0
0
-2.5601
-5.71982
0
-5.20647
-1.26347
-1.15602
-4.76717
0
-3.63158
-11.4092
0
-4.1267
0
-7.6589
0
-6.68362
-6.15857
0
-7.64214
-6.32696
-7.35715
0
0
0
-4.93412
-1.43851
0
0
-6.01673
-0.683478
-7.29707
-0.770857
-0.779158
-0.671488
0
-2.30506
-1.5911
-0.185343
-1.30167
-0.187911
-4.36487
-0.553404
-0.339524
-1.95332
-0.275725
-6.74556
-1.95361
-5.71591
-3.98716
-0.848966
-0.8134
-4.60128
-1.64239
-4.35471
0
-6.27969
0
-1.56775
-0.594046
-4.50537
-0.405081
-3.6178
-3.00999
-4.38502
-8.51044
0
-6.36926
-0.762328
-3.84186
-1.59735
-2.95451
-4.17012
-2.05287
-3.10363
-0.865588
-0.896694
-0.0434223
-1.661
-3.1371
-0.495027
-0.840236
-0.546931
-1.0733
-0.628144
-3.13046
-0.343625
-1.92991
0
0
0
-6.14485
-0.848346
0
-2.91744
-3.42177
0
-4.80488
-0.877594
-1.78366
-2.65156
-2.65849
-2.96853
-6.56507
0
0
0
0
-1.51202
-0.281041
-3.85843
-0.190411
0
-4.53166
-0.696775
-1.38824
0
-3.66441
0
-3.60566
-1.0248
-3.31285
0
-2.23721
-1.22055
-0.0320985
0
-5.22119
-1.83544
-2.51431
-5.14419
-1.23291
-0.520026
-4.87518
0
-1.94848
-3.30192
-0.608092
0
0
-0.326875
-5.45741
-0.453654
-4.0182
0
-4.1368
-2.54836
-3.54434
-1.56172
-4.79309
0
-5.66956
-1.85475
-3.34926
-2.92308
-0.203825
-1.07743
-1.2195
-4.57196
-0.687723
-6.12176
0
-0.541911
-1.03043
0
-3.77446
-4.2727
0
0
-0.568407
-0.174034
-4.68047
-1.56247
-10.2317
-0.0163859
-3.96906
0
0
-1.59655
-1.41405
0
-3.00737
-3.32353
-3.94486
-0.945594
-0.0680977
-4.07358
-8.17588
-2.65429
-5.70992
-0.0481224
0
0
-2.18352
0
-8.30654
0
-3.73291
0
-6.91441
0
-8.02355
-2.16358
-3.06382
-4.79324
-3.64403
-3.05884
-2.23732
-5.18683
0
-0.400854
0
-0.966257
-4.65707
-0.900095
-6.2332
-3.64653
-1.24391
-0.148768
-1.08372
-5.70369
0
-0.200666
-5.88729
0
-6.58552
-0.313127
-6.32502
-1.83243
-0.451654
0
0
-0.579113
-4.59213
-1.22159
-2.4037
-1.33663
-3.82268
0
0
-3.46345
-4.28977
-0.179149
-1.44331
-0.450026
-2.29011
0
0
0
-3.39953
0
-7.68847
0
-0.608554
0
-1.62725
0
-2.41132
-5.3299
0
-6.97906
-1.0385
-1.40729
-7.31794
0
-3.61746
0
-5.38391
-3.68338
0
-2.13287
-4.02955
-7.46378
-3.17165
-0.437499
0
-1.71525
0
-8.50807
-0.292899
-9.80299
0
0
-7.23447
0
-7.13853
0
-6.38091
-0.131761
-3.24951
0
-7.94306
-2.07833
-4.42891
-6.50943
0
-5.18646
-0.731316
-6.9543
0
0
-1.26533
-3.2748
-1.14687
-0.53868
0
-3.36358
-2.60347
-5.19108
0
-9.80354
-0.790239
-6.69568
0
0
-6.45881
0
-6.53993
0
-8.39035
-0.0736208
-5.13785
-1.71134
-5.19114
-4.20713
-3.78731
-0.803161
-0.6456
-6.39256
-1.1705
-2.91853
0
-1.23895
-3.61572
-3.77675
-0.108765
0
0
0
0
0
-1.67015
-0.171366
-4.51294
-1.47206
-2.38991
-5.30485
0
0
-1.16051
-2.09647
0
-11.4483
0
-7.14222
0
-5.44906
-0.492862
-4.03592
-0.0647471
-4.36638
-2.29556
-0.334669
-0.172664
-1.31132
0
-5.63417
-2.20733
-4.93619
-5.04941
-2.04594
-0.548893
-9.93831
-2.38351
-7.63416
-1.92304
0
-3.32973
-3.96382
-3.1107
-2.98336
-6.97568
0
-4.68002
-3.6715
0
-1.46066
-2.6773
0
-1.83523
-7.11023
-1.86255
-5.084
-3.41329
-8.36064
0
0
-1.18854
-6.86956
-0.305595
-4.80645
0
-6.46408
-1.73787
0
-0.68519
-6.7394
-0.0102709
-0.020871
0
-5.53904
-2.71895
-8.34739
-1.65151
-2.01741
-2.32723
-2.12913
0
0
-3.57658
-3.58034
-1.44308
-3.2806
-1.70862
-4.07877
-1.67414
-2.61323
0
-0.556077
-1.35029
-7.13396
-1.52793
-3.25592
-0.350335
-1.55433
0
-0.113062
-0.289424
0
0
-2.11967
-0.684873
-2.11219
0
-5.52554
0
-6.57904
0
-3.88017
-0.772795
-6.63447
0
0
-5.66168
-1.49927
-0.907833
0
-2.41023
-0.647355
-0.356966
-5.82027
-2.64039
-6.68723
-1.34941
-2.38757
-2.18308
-1.63188
-0.348808
0
-4.44039
0
0
-6.01747
0
-1.1265
0
-1.4702
-3.28411
-0.835761
-8.32694
0
-0.351036
-6.35057
0
0
-4.78007
-5.66536
-2.57575
0
-2.74852
-7.75043
-6.11135
-1.7846
-1.66902
-1.25054
-2.12884
-2.61209
-0.030821
-0.276522
-0.807806
0
-1.51869
-0.930739
-0.78301
-6.64084
-0.596438
0
-1.6777
-2.8544
-5.84295
-3.1256
-2.43229
-3.47709
-2.08501
-2.04018
-3.34458
0
-1.58271
0
-1.19521
-1.43012
0
-4.72361
-0.694894
-2.74918
-1.42577
0
0
0
-1.09805
0
-3.71374
-0.856458
-1.46831
0
-3.57592
-0.689295
0
0
0
-5.01322
-1.37222
-5.97385
-6.465
-1.2427
-10.361
0
-2.61798
0
-2.16076
-3.09112
-6.77214
-3.01381
-5.57106
-0.230924
-2.13098
-0.11658
0
-0.380918
-1.71013
-1.88554
0
-8.4495
-1.04309
-0.859262
0
-4.0862
0
-5.65246
-5.03734
-2.95618
-2.56985
-1.57876
-7.91818
-5.47736
-3.91751
0
-0.974284
-3.69746
0
-0.657359
0
0
0
0
0
0
0
0
0
0
0
0
0
0
0
0
0
0
0
0
0
0
0
0
0
0
0
0
0
0
0
0
0
0
0
0
0
0
0
0
0
0
0
0
0
0
0
0
0
0
0
0
0
0
0
0
0
0
0
0
0
0
0
0
-0.671232
-1.34682
0
-2.59038
-1.71371
0
-1.278
-1.14433
-0.281142
-1.3057
0
-1.09155
-0.834648
0
-1.06243
-0.950754
-0.436131
-1.43789
0
-1.51783
-2.32818
-0.136372
-1.34771
-0.34999
-0.120682
-0.657374
0
-0.741526
-1.3857
-0.39323
-0.82812
-0.870692
-0.0199508
-1.99137
0
-0.0957352
-2.35453
0
-1.19139
-2.23948
-1.4845
-1.31359
0
-2.4568
-0.142132
-0.514022
-2.35679
-0.353369
-0.0310583
-1.01347
0
-0.144224
-1.35943
0
-1.30014
-2.39538
-0.564598
-3.76815
-0.328682
-3.49411
-0.768625
0
-2.22156
-1.24353
-2.78551
-1.72229
-0.206549
-6.80644
0
-0.724344
-3.94865
0
0
-5.30667
-0.262888
-1.7914
-3.57083
-0.996975
0
-3.56169
-3.17265
0
-3.35601
-2.11789
-2.36918
-2.60294
-4.0818
-4.48596
-1.16096
-1.12057
-0.0788505
0
-0.515439
0
0
-4.88424
-2.8567
-0.591458
-6.98424
0
-4.01994
0
-6.16621
0
-2.44889
0
-0.598222
-2.63273
-2.73188
-1.06923
0
-7.32508
-0.118879
-0.294158
0
-6.5845
-3.39564
-1.77497
-0.661823
-5.86605
-5.45749
-0.915014
-4.14343
-3.23815
-3.45206
0
-6.1415
0
-3.45577
0
-1.63508
-3.15698
-7.09348
0
-5.08871
-2.79434
0
-4.92737
-4.09494
-4.40629
-3.37008
-4.17726
-5.95455
-0.822469
-2.93853
-0.605593
-2.82648
0
-3.78383
-0.0975843
-8.52104
-1.82052
-8.76223
-4.48602
0
0
-0.0657677
0
-4.94391
0
-6.37314
-0.0442781
-2.5462
-4.47098
-1.54645
-2.65365
-5.61239
-0.487361
-2.8186
0
-2.8335
0
-3.63453
-2.87592
-4.87796
-4.15268
-2.68307
-1.5062
0
-2.84623
0
0
-3.05065
-2.46243
-2.02445
0
-0.394055
-2.1291
-4.94886
-3.5628
-4.47102
-1.38833
-0.976212
-2.43856
-4.22404
-0.0128093
-0.515619
-0.756918
-3.97812
-0.756464
-0.635564
0
-10.655
-3.06679
-0.499919
-0.185616
0
-0.243845
-7.61108
0
-5.36734
-0.549056
-9.87944
-3.05625
-5.35292
0
-2.32694
0
-3.19388
0
-0.772229
-0.283972
-0.256834
0
-0.967972
-3.37682
-0.345222
-0.696619
0
-6.47737
-0.792531
-9.42229
0
-0.183936
-3.72633
-0.274046
-3.15689
-1.68749
-2.41299
-1.5871
-3.33592
-3.80908
-3.48998
-0.0698598
-2.32934
-3.17512
-0.327552
-1.71998
-4.63548
0
-2.81274
-3.71902
-0.927847
-5.89805
-0.389364
-2.69641
-1.67675
-2.41966
-5.10074
0
0
-2.34045
-2.34073
-2.18631
-0.306645
-1.37211
0
0
-3.02417
-1.96337
-0.0990771
0
-2.93523
-0.751171
-1.97865
-2.78574
0
0
-3.01343
-4.17262
-4.52143
-1.61043
-0.213613
-2.78355
-0.979691
0
0
-10.0692
-10.417
0
-8.46645
-0.224033
-3.35344
0
-1.76289
0
-5.9231
-0.207938
-6.81848
-6.6104
-2.56038
-4.7631
-0.744923
-1.81921
-3.73689
-3.93529
0
-6.37017
-3.53349
-4.50303
-1.00272
-1.65971
-2.71866
-0.464522
-6.02775
0
-13.5247
0
0
0
-4.36233
-11.484
-1.73559
0
-1.51039
-0.663952
-4.669
0
-3.45084
-1.6048
-4.91593
-4.49706
-0.566535
-0.916737
-1.8225
-3.55273
-1.00069
-6.32528
-0.934345
-5.64511
-0.610768
0
-0.859678
-2.59719
-0.94183
-1.0799
-1.6094
-0.0633331
-3.11163
0
-9.4869
0
-5.24611
-3.26033
0
-2.34617
-2.63357
-1.84393
-1.33216
-1.75173
-1.97207
-3.22625
-6.08978
-3.49178
-1.43309
-8.34351
0
-0.758586
-1.62963
0
-1.13166
-0.607816
-1.15227
0
-9.4673
-4.09124
-1.63281
0
0
-1.27438
-3.41414
0
-5.15845
-1.15912
0
-5.67982
-1.9769
-6.87266
-0.106794
0
-3.24282
-1.55297
-5.55997
-2.12126
-2.22878
-0.948871
-0.0752466
-3.73083
0
0
0
-10.6056
0
-5.90181
0
-4.70466
0
-7.15146
-2.90473
-2.5492
-0.802114
-0.441437
-2.38843
-3.51562
-0.0369873
-0.793625
-2.1727
-1.96948
-4.4063
-0.732497
0
0
-4.89964
-4.48001
-0.201554
-2.89552
-1.86909
-1.95267
0
-4.2552
-1.9595
-2.56961
-0.540261
-2.58154
0
-7.33847
0
-7.45006
0
-5.00241
0
-6.2161
-1.90197
-4.44898
0
0
-3.40363
-0.332331
0
-0.914105
-1.72533
-1.71062
0
-7.82592
0
-2.84849
-0.906003
-5.94044
0
-1.73291
-0.782257
-3.28561
-0.658753
0
-0.780637
-0.50088
-2.36461
0
-5.56254
-0.329242
-1.80462
0
-1.341
-3.86141
0
-4.86411
0
-0.478827
-1.42605
-6.28249
-1.90242
-0.973985
-0.176954
-2.46384
-1.36369
-1.67594
0
-2.32074
-0.106111
-1.32806
0
-4.84892
0
0
-6.16358
0
-1.13178
-0.482151
-3.23285
-0.627053
-4.81729
-0.875825
-0.0270618
0
-8.22841
-0.0544207
0
-0.1287
0
-1.31751
-2.51107
-0.997524
0
-5.06873
-3.53956
-8.81419
-1.06499
-1.06643
-4.74088
0
-0.366048
-3.06202
-2.428
-6.05067
-0.27652
0
-0.825716
0
-3.40789
-6.44989
0
0
-1.71522
0
-7.63785
0
-0.855128
0
0
-2.00496
0
0
-3.11438
0
-0.863117
-1.57948
-1.55734
-3.83976
-0.393085
-7.36851
-1.30097
-5.03173
-0.927653
-1.16991
0
-0.0608366
-5.35328
0
-1.72587
-1.76926
0
-0.665086
-2.60893
-0.712482
-2.70751
-0.726997
0
0
-0.964961
-1.71135
-7.28493
-1.22753
-3.44629
-1.41328
-1.52749
-0.611914
-3.74994
0
0
0
0
-3.46519
0
0
-2.4753
-1.08043
-1.97552
0
-7.39771
-1.48361
-8.21086
-2.4228
-5.1176
-1.03621
-4.03223
-0.361757
-1.91262
-7.44042
0
0
-13.4681
-0.758369
-0.450677
-2.28426
-1.85795
-0.550013
-0.133047
-0.945059
0
-4.70342
-2.24846
-3.16467
-0.824091
-2.07224
-3.35922
0
0
-2.00056
-2.32409
-0.0661638
-0.0754583
-5.02557
-4.25694
0
-1.58601
-3.43923
-0.0694043
-5.77488
0
0
0
-4.33655
-1.55919
-8.47202
-1.75076
0
-0.459848
-1.1716
-1.65414
-1.70649
-7.13049
-0.766394
-3.37521
-0.422879
-1.05813
-2.00836
-0.632838
-5.71213
-0.819268
-2.40331
-1.3356
-0.613504
0
-5.3718
0
-6.44388
0
0
-4.49725
0
-6.83473
-1.72231
-2.99452
0
-2.73007
0
-3.79316
-0.22319
-10.9276
0
0
-0.455185
0
-0.879444
-1.64413
-1.82727
-1.03774
0
-2.92171
-1.28392
-4.94355
-1.36415
-6.32985
-1.57285
-1.69448
-1.73353
0
-1.58513
-1.83344
0
-1.35021
-1.05507
-5.154
-1.41345
-0.723121
0
-3.97176
-0.700146
-5.69718
-1.16831
-2.12548
-5.26854
-1.32675
0
-0.159725
-3.94585
-2.57141
0
-1.80535
-5.5512
0
-7.90781
-0.374772
0
-5.62867
-1.49692
-6.03737
-1.28132
-4.44415
-0.999189
-4.21905
-1.45579
-0.736797
-1.44036
-0.846437
0
-5.69581
-6.19044
-0.246653
-2.7033
-1.81317
-0.685361
0
0
0
-0.706638
-0.5581
-3.67958
-2.76695
-2.6763
-1.03661
-0.538838
-6.28769
-2.32259
-4.34415
0
-3.51943
-2.41482
0
-7.88131
0
0
0
-0.248802
0
-5.74635
-4.94271
-1.44063
0
-0.536948
0
-7.04347
0
-0.401095
-0.346633
-0.385435
0
-3.76487
0
0
0
-0.374947
0
-0.0330586
-1.55583
0
-1.97585
0
0
-0.588668
-0.314318
-1.39714
-1.63316
-11.2753
0
-4.10888
0
-6.74991
0
-1.33133
0
-3.3322
-4.00838
-4.5637
0
-2.63325
-1.41321
-5.33169
0
-0.0431368
-2.96725
-1.04606
0
0
-3.2463
-1.83859
-3.45789
-2.68014
-2.66134
0
-1.04536
0
-1.24565
-2.9526
-1.9199
-2.3262
0
-0.90318
0
-3.21976
0
0
-1.50321
0
-1.14245
0
-3.44813
0
-1.49698
-1.13101
-2.19012
-4.43631
-0.218887
0
-5.91162
-1.99994
-5.02215
0
-7.05747
0
-1.39216
0
-0.938447
0
0
0
-5.62213
-2.6962
0
-7.80725
-1.87451
0
-7.11872
-3.63661
-4.81407
-1.94581
-3.63099
-1.64681
0
-8.9623
-4.53683
0
-0.981469
-9.09128
-0.303017
-2.51885
-8.76805
-1.5875
-1.53959
0
-0.661503
-5.01005
-1.4288
-5.55387
0
-2.6236
0
-6.90581
-0.465849
-1.32713
-2.16732
-0.185672
-8.35228
0
0
-0.0408529
-1.46219
-1.47605
0
0
-5.94619
0
-1.2673
0
-2.33447
-5.21009
-1.88871
-2.87241
0
-5.12491
0
0
0
-0.917214
0
0
-8.62719
0
-5.23281
0
0
-3.09081
-3.92836
-1.73782
-0.533252
-0.17363
-8.14975
-0.662205
-9.06748
-3.15154
0
-6.07471
0
-4.00223
0
-1.61083
-6.9383
-1.59515
-9.52864
0
-7.14524
0
-0.854303
-0.18961
-1.62757
0
-4.63598
-1.0945
-1.97019
-3.06013
0
-4.12455
-0.420065
-3.05234
-1.70631
-0.456382
-2.04237
0
0
-1.84174
-5.63973
-4.44635
0
0
-2.01872
-5.10869
-2.08348
-1.67143
-2.01076
-2.68202
0
0
0
0
0
0
0
0
0
0
0
0
0
0
0
0
0
0
0
0
0
0
0
0
0
0
0
0
0
0
0
0
0
0
0
0
0
0
0
0
0
0
0
0
0
0
0
0
0
0
0
0
0
0
0
0
0
0
0
0
0
0
0
0
-0.307211
0
0
-0.17949
0
0
-0.195489
0
-0.965054
0
0
-0.0200385
0
0
0
-0.00515165
-0.0407979
0
0
0
-0.0919774
0.00367307
0
0
-0.0190763
-0.357632
0
-0.259406
0
0
-0.039603
-0.268934
0
0
0
0
0
0
0
-0.644764
-0.620856
-0.171363
0
-0.279597
0
0
0
0
0
0
0
0
0
0
0
0
0
0
0
0
0
0
0
0
0
-5.83463
-1.47817
-1.34233
0
-5.00227
0
-4.51499
-1.38941
-1.12522
-2.22179
-0.548286
-1.55281
-3.06814
-1.3977
-1.02308
-1.07652
-4.19368
-0.714144
-0.089124
-4.15177
-0.36276
-0.819928
-1.17052
-3.8418
-3.46525
-2.19879
-2.82649
-3.08692
0
0
0
-1.30766
-4.70217
0
-0.823346
-2.76469
0
0
0
0
-0.676537
-1.74537
0
0
-4.07971
0
-1.75255
0
-1.43549
-2.86562
0
0
-0.167331
-4.98288
-0.292385
-0.52756
-0.820405
-5.50677
0
-5.17862
0
-4.5981
-2.68707
-2.41191
0
-6.88037
0
0
0
-4.05873
-1.67808
-4.35144
-0.240916
-4.33888
-0.393412
-2.22958
0
-3.15343
-3.3136
-5.36782
-0.297488
-7.75359
0
-3.74495
0
-0.30224
0
-0.29107
-1.72527
-4.72602
0
-2.25906
-2.40684
-3.38744
0
-0.98773
-3.98693
0
-0.0205558
-3.76165
-1.77133
0
0
-0.952958
0
-2.95173
0
-4.62727
0
-6.02108
-0.818368
-4.32276
-2.13835
-3.66833
-0.521722
-3.8928
-0.0206971
-2.53738
-2.15109
-12.1385
0
-8.76727
0
-6.63574
-0.648664
-3.23568
0
-2.2545
-0.666314
-0.669221
-2.97734
-3.60755
-1.58662
-0.892196
-1.02917
0
-8.86008
0
-1.89639
-4.22022
0
-4.07887
0
0
-1.92658
-5.08047
-4.01523
-1.34892
-3.32085
-2.73055
-0.863154
-4.47118
-1.20019
-1.27782
-0.273069
-2.72195
-1.17362
-5.25436
-4.53701
-0.171291
-3.24771
-2.57534
-10.4683
-3.39964
-5.77639
0
0
-6.69992
-1.59675
-3.18668
-1.24445
-1.94894
0
0
-1.06689
0
-2.08866
-0.920242
-2.2118
0
-3.09498
-0.0360125
-6.0039
-0.048478
-3.16193
-4.36953
-5.00503
0
-1.54233
-0.626492
-4.77493
0
-3.96484
-0.425308
-3.6881
-4.14814
0
-3.98303
-0.901542
-1.84605
-2.8281
0
-5.83966
-0.670486
-0.831174
-1.0107
-6.3511
0
-5.31853
0
-0.0386695
-3.53924
-4.27672
-3.15382
-1.03652
-1.67599
-2.1237
-10.2606
0
-3.89586
0
0
0
-0.127696
0
-0.113135
0
-3.97298
-2.60566
-7.2067
-0.780292
0
-2.6639
-3.85768
-0.398097
0
0
-3.64604
-0.0588902
-0.113275
-1.96976
-1.5346
0
-7.30274
0
0
-4.44095
-0.0260893
-1.22805
-0.821117
0
-2.25184
0
-6.56211
-1.92046
-4.8929
0
-0.461329
-2.79519
0
-1.95833
-2.23717
-1.14277
-2.26722
0
-2.24613
-0.266088
-5.09309
-1.24607
0
-4.55727
-0.748438
-0.39534
-3.43725
0
-0.0333064
-6.98975
-0.328762
-2.1079
-0.644734
-7.5467
-1.70339
-5.83402
0
-7.28221
0
-0.329454
-2.20338
-0.964073
0
-4.74936
-0.289441
0
-3.04938
-3.46976
-7.36883
-1.49656
-2.88234
-0.976151
-5.55461
0
-0.132422
-1.83993
0
-3.66796
0
-5.68348
-0.31723
-6.06933
0
-0.803869
-2.60586
-0.200018
-6.37737
-0.615923
-2.35473
-1.10437
-5.15881
0
-5.0381
-0.11565
-1.92704
0
-3.05461
-2.013
-1.49997
0
-0.690759
-0.254927
0
-0.542594
-0.50829
-1.01928
-2.97586
-3.17605
-0.316372
0
-1.13667
-2.90985
-6.86919
-0.835168
-1.84919
0
-1.21298
-3.43074
0
-5.38243
-2.86704
-0.555667
-1.87954
0
0
0
-0.23666
-2.45932
-5.66863
-2.63528
-5.15103
0
-6.61205
0
-4.93495
-2.60658
-1.44128
-1.23827
-0.407786
-2.81347
-1.07159
-0.782548
-6.10028
-0.331977
-0.509762
0
0
-1.67279
0
-0.426474
-3.46029
-2.52039
-2.12174
-4.29818
-1.37837
-2.104
-2.92471
-6.9035
-0.130134
-4.84535
0
-1.43012
-0.734354
-1.42847
0
-3.16547
0
-2.99322
-1.81285
-1.32145
0
-7.57038
0
-1.43
0
0
-0.602634
-0.207323
-0.397332
-4.57739
-2.00865
-2.19158
-0.442004
-1.26513
-1.51725
-2.3686
-0.673953
0
-5.11515
-0.853336
0
-0.742756
-0.219745
0
-0.272528
-5.55065
0
-5.04757
-0.578293
-5.14685
-4.78969
-1.53905
-1.47256
-3.31977
-1.39385
-6.38346
-2.15568
-6.71837
-0.218673
-3.92432
0
-5.64832
0
-0.430807
0
-5.62492
-1.50533
-7.54794
-0.977074
-3.66743
-2.97864
0
0
0
-0.166862
-3.11783
0
-2.73073
-2.54599
-0.944384
-0.47132
0
0
-3.98714
0
-5.42037
0
-2.41996
0
-3.09701
-1.76503
-6.42634
-0.289712
0
-2.37035
-0.284654
-4.4477
0
-6.61833
-0.0472305
0
-3.7381
-0.0846059
0
0
-0.719361
0
-3.52849
0
-1.2556
0
0
-5.7328
0
0
-6.80049
0
-2.66179
-0.186779
-0.109882
-0.546432
-5.46525
-3.12186
-1.69309
-0.836529
-2.75918
-1.21809
-1.63198
-1.09639
0
-3.03705
0
-2.81224
-5.28166
-3.00479
-7.21439
0
-7.48836
-1.02031
-5.20285
-0.63346
-6.73812
-3.71726
-0.229605
-11.6519
0
-2.88487
0
0
0
-1.80012
-0.353415
-6.03331
-0.151825
-1.31927
0
-5.06187
-2.44976
-2.22161
0
-5.7725
-0.397825
-3.66349
-0.352352
-5.94986
-1.95584
-0.948355
0
0
-3.06745
-0.282269
-1.71634
-0.333005
-2.53275
-0.612096
0
-0.458383
-2.14995
-2.9187
-1.51944
-1.32129
-2.86729
-2.14326
0
-0.555218
-0.71351
0
-5.17188
0
-0.453609
-3.04362
-0.128343
-2.03472
-2.95681
-1.05022
-1.83615
-5.54424
-5.34407
-3.33493
0
-3.48605
-1.78933
0
-5.29172
0
0
0
-2.06105
0
-2.25356
-0.661728
-0.871601
-2.04955
0
-1.77313
-4.92353
-1.88445
-5.77274
-0.342355
0
-7.13825
-2.4161
-3.47994
-3.23987
-3.71324
-4.42421
-1.74045
-1.17
-1.50059
0
-3.32836
0
-2.99689
-2.21781
-1.13802
0
-1.56375
-0.924388
-2.52885
-2.11572
-2.41817
-2.38394
-8.31547
-6.34491
-1.70118
-6.25986
0
0
-5.46809
0
0
-0.961384
-4.08031
0
-1.66223
-0.215782
-0.317903
-1.12862
-1.00018
-0.173589
-3.30925
-0.444156
-3.61352
-1.65246
-0.757973
-4.61858
-3.16569
0
0
0
-4.12124
0
-5.82663
-0.475545
0
0
-2.15515
0
-1.34548
0
-8.225
-1.25909
-0.232986
-4.7037
0
0
-5.19486
-0.748604
-2.30627
-1.64297
-0.489311
-0.0791832
-5.51748
-4.38729
-0.518512
0
-0.557783
-0.696911
-2.55249
0
-4.03152
-1.11855
-1.59206
0
-1.78975
0
-7.49397
0
-3.63748
0
-4.4422
0
-0.652279
-0.571153
-0.631485
-2.019
0
-5.47895
0
-2.80034
0
-1.52512
-5.23759
-3.71286
-2.22532
-5.70709
-0.865604
-2.66424
-0.801246
-4.24134
-1.42863
-3.54854
-3.70705
-2.52181
-0.550412
-0.707808
-3.27341
-0.998565
-10.8377
-0.914293
-2.67466
0
-2.35596
-4.19031
-0.57502
0
0
-5.03163
-4.54632
-2.20265
-0.592832
0
-5.75529
0
0
0
0
-3.23145
0
-7.60096
0
-7.10278
-1.84859
-4.00227
0
-3.16939
0
-12.0112
-0.539511
-5.49725
0
0
-0.596568
-3.77224
0
-5.99633
-0.36036
-1.54396
-1.42453
-1.911
-2.08183
0
-6.31924
0
-2.04291
0
-1.63047
-0.732621
0
0
-3.57508
-3.39412
-1.14028
-0.366942
0
-2.44763
-0.770111
-0.250446
-5.68808
0
-6.96736
0
-9.01928
-0.396689
-1.48462
-0.843914
-7.02428
-1.11108
0
-3.17173
-2.19788
0
-1.15544
-5.2325
0
-6.63497
0
-0.395439
-0.0818143
-9.16025
-1.87273
0
-6.5867
-0.116135
-0.635419
-4.07952
-0.0416858
-7.32539
-1.8078
0
-1.33518
0
-6.25113
-2.47876
0
0
-1.09778
-3.77586
-3.91183
0
-6.53383
0
-7.30988
0
-4.56872
-1.14242
-5.68521
-1.90019
-0.415337
0
-6.41993
0
-0.0566065
0
-1.22686
-0.600422
-1.5367
0
-3.13563
-3.25528
-6.92415
-0.584802
-6.47438
-0.514995
0
0
-2.4438
-1.83115
-2.34606
-1.61361
-0.102787
0
-1.65416
-1.34356
-5.43909
0
0
-0.0404904
-1.45092
-0.169776
0
-3.67422
-7.30204
-2.15717
0
-5.66974
-4.2491
0
-3.89607
-5.66549
-4.29876
-3.10884
-4.12346
0
0
0
-6.8904
-1.82545
-0.840394
-1.58536
-6.76951
0
-8.33907
0
-8.44855
-1.07127
-4.1951
0
-0.762309
-0.186099
-1.17366
-4.46631
0
-2.37385
-1.51319
0
-6.66084
-0.231542
0
0
0
0
0
0
0
0
0
0
0
0
0
0
0
0
0
0
0
0
0
0
0
0
0
0
0
0
0
0
0
0
0
0
0
0
0
0
0
0
0
0
0
0
0
0
0
0
0
0
0
0
0
0
0
0
0
0
0
0
0
0
0
0
-0.497732
-1.1934
-0.0284582
-1.14793
-0.928543
0.0172149
-0.828003
-1.0774
-0.23682
-1.17421
0.00364753
-1.46681
-2.39954
0
-2.13489
-0.779117
-0.469676
-1.43817
0
-0.776275
-2.17503
0.0252196
-1.29998
-1.0749
-1.17637
-1.18835
0
-1.56761
-0.692094
0
-1.14036
-0.703281
-1.44179
-0.577518
0
-1.55945
-0.385371
0
-2.46352
-0.924385
-0.658886
-2.42842
0
-0.0687345
-1.61734
0.0928183
0
-1.91926
-0.667189
-0.407767
0
-1.31838
-1.55628
0
-2.4732
-0.366014
0
-3.22076
0
-0.0638666
-1.91389
0
-1.1697
-1.07182
-1.42606
-1.5052
0
-8.94592
-0.877973
-0.63345
0
-1.03864
-2.71893
-0.144455
-1.09642
-1.08611
-1.06362
-1.89275
-3.81211
-2.71975
-0.2639
-2.77348
-7.33633
-1.03836
-5.63546
-1.0263
-8.63145
-0.721811
-1.06581
-4.69641
-0.793007
-3.46225
0
-5.23946
-6.63229
-4.69038
0
-4.98875
0
-6.38467
0
-10.9486
-3.44781
-4.59975
-1.30799
-10.6685
-1.61113
-9.43463
-0.54733
-2.35966
0
0
-4.76024
0
0
0
-1.76395
-2.66747
-1.65078
-0.914417
-2.39056
-2.62658
-0.641151
-0.455563
-4.1138
-0.624885
-7.64435
-0.495634
-0.0840061
-1.47335
0
0
-6.06163
-1.59584
-1.79566
-2.22233
-3.24431
0
0
-1.6761
-10.066
-3.98681
-1.34993
0
-0.264132
0
0
-1.13184
0
-2.68977
-3.95993
0
-2.75048
0
-0.782707
-3.26174
0
-3.65862
-3.22661
-4.25162
-0.75614
-2.72484
0
-13.9356
0
-1.37911
-3.69437
0
-3.23463
-0.73518
-0.651985
0
-0.447503
0
-3.55363
0
0
-0.729676
-0.0529032
-6.1084
0
0
-6.10538
-0.875663
-1.0297
0
-1.91943
-3.60842
-4.46213
0
0
-6.38415
-2.78903
-3.90492
-4.51563
-0.967065
-1.51585
-4.04347
-1.6957
-13.2003
-0.832369
-0.378188
-0.718822
0
-2.68651
-1.29565
0
-0.465138
-5.52966
-2.05499
0
-2.02085
0
0
0
-1.01539
-1.12057
-1.07727
0
-4.95328
0
0
-3.56011
0
-9.4475
0
-2.49201
0
-4.82542
0
-5.59378
-0.11492
-0.567295
-2.20851
-3.88676
-3.70026
-1.29162
-3.34687
-1.4066
-4.58911
-3.50594
-6.18005
0
-2.53056
-0.928849
-2.22825
-1.16835
-0.0641918
-2.77486
-2.92899
0
-3.38969
-3.24655
0
-8.48724
0
0
0
-5.63396
0
-1.79179
-2.31782
0
-2.22067
-0.630341
-0.725187
-2.37891
0
-3.56279
-4.46222
-0.938983
-0.050453
0
-0.798709
-3.3182
-2.37067
-2.35274
-3.00585
0
-10.7378
0
-2.29948
-0.278672
0
-0.596103
-4.92771
-3.47008
-6.33692
-4.17278
-5.06222
-5.25505
0
-4.28907
-0.208474
-1.94362
0
-7.78041
-5.1359
0
-7.14063
-5.29979
-0.250039
-2.36624
0
-3.34627
0
-4.26749
0
-0.507833
0
-6.80145
-0.255156
-0.347387
-4.69338
-1.28087
-1.18303
-7.06528
-3.32625
-1.46282
0
-0.608547
-0.763901
-0.867002
-1.84544
-1.42725
-1.88485
-0.0442368
-3.03618
-1.10406
-0.752
-0.0433877
-0.980362
-3.19421
-5.46487
0
-3.45412
-0.583824
-0.910507
-2.92183
-2.18866
-3.41774
0
0
-3.67742
-1.48482
-2.87414
0
-6.75581
-0.644819
0
-2.9268
-4.39991
-3.6644
-3.64747
-2.40936
0
-3.54787
0
-2.35907
0
0
0
-7.3879
-0.850324
-1.71707
-0.582502
-4.496
-0.616569
0
0
0
0
0
0
-2.12023
-3.24296
-2.12881
-4.16653
0
-0.234003
-1.14728
0
0
-5.49577
-1.08722
-0.0704966
-2.8797
-4.46285
-6.72038
-1.27674
-7.09854
-0.834643
-7.11641
0
-0.680844
-2.53186
-0.927738
-4.22081
0
-0.580575
-2.48156
-5.13133
-5.42086
-5.76253
-6.02751
0
-1.46662
0
-5.8574
0
-6.29208
-2.71321
-3.81469
-1.50985
-6.02765
-2.90213
-2.04716
-9.59332
-0.450762
-4.76008
0
0
-11.1422
0
-1.10218
-5.29216
-2.5001
-1.79308
-1.72777
0
-2.11233
-0.995459
-3.19648
-3.85785
-0.743773
0
-8.67747
-5.09333
-4.26553
-4.39635
-7.42511
-1.3237
-2.04949
0
-0.958795
-1.5563
-0.306967
-9.30341
-0.99665
-1.54808
0
0
-1.73727
-1.4031
-3.10237
-0.674949
-3.94951
-1.19389
-6.86606
0
-6.13536
-3.00515
-3.69504
0
-4.19567
-1.24631
-3.226
-1.12223
-5.22199
-1.16052
-4.05621
0
-0.257973
-2.49971
-1.55209
-3.85511
-1.9005
-0.721255
-1.92189
-3.72046
-2.11437
0
-7.58552
-0.787373
-10.7997
-6.01887
-0.521101
-2.37112
0
-1.32204
-3.01066
-2.11415
-2.31367
0
-2.16703
-3.14107
-0.0343054
0
-1.72112
-2.041
-3.32272
-2.58974
-0.993192
-0.541653
0
-6.27694
0
0
-0.608746
0
-0.90683
-2.22728
-1.75424
0
-1.93983
-1.44265
-0.162851
-0.557525
0
-2.88649
-1.13542
-4.59946
-1.15713
-5.95163
-1.04226
0
0
-0.0598604
0
-4.13809
0
0
-1.17223
-0.075259
-7.67817
-2.94203
-6.52604
0
-1.92264
-0.165061
-0.551511
-2.14036
-5.92644
0
-0.0703886
-3.18188
0
-2.6849
0
-0.845823
-2.40103
-1.56855
-4.39709
-7.73889
0
0
-2.85118
-1.89056
-4.71543
0
-0.57799
-6.18734
-0.0903998
-1.92897
-0.622494
-1.94461
0
-2.13575
-2.91401
-1.49073
-1.74696
-4.79626
-0.222714
-4.00425
-5.68693
-0.954945
-0.238499
-3.47156
-0.58184
-0.44207
0
-1.88384
-0.484089
-6.16036
0
0
-2.47132
0
-7.52834
0
-7.74995
-0.844929
-5.10088
0
-8.65754
0
-3.67586
0
-3.85297
0
-1.47657
-0.878267
-0.176824
-6.58663
-1.22771
-2.38646
-0.987092
-0.0902883
0
-1.0357
0
-1.80807
-4.21707
-6.84099
0
0
-0.182861
-2.08311
-3.88442
0
0
-2.41373
-2.31891
-0.114899
-6.23373
-0.158252
-5.30345
-0.934119
-6.10491
0
0
-4.12603
0
-2.21343
-1.26899
-1.39084
-6.62044
-0.0367065
-2.27329
0
0
-2.88424
0
-1.4389
-0.991466
-4.10467
-0.303445
-4.31776
-0.296296
-4.13365
-4.76342
0
0
-2.13044
-2.38721
-1.54603
-2.59986
0
-1.49118
-2.49491
-2.1151
-0.772171
-0.610803
-6.69864
-3.51191
-1.63916
-4.0097
-1.13365
-1.75111
-2.43743
0
-5.69676
0
-1.12019
-7.8161
0
-8.62506
-1.73252
-3.50511
-3.88011
-2.88492
-0.678921
-2.36298
0
-4.29784
0
-1.92075
-0.0674629
-0.140894
-5.88389
0
-5.39954
-1.76598
-1.22493
-1.79374
-1.85453
-5.39103
0
-0.0124361
-3.26244
-0.726999
-0.553534
0
-0.250366
-3.21177
0
0
0
-1.92585
-1.19926
-5.09759
-0.460663
-0.695738
-5.6588
0
-2.43333
0
-4.87383
-3.41355
-0.346574
-7.96619
-0.817507
-0.502653
-0.716768
-6.08456
0
-8.23818
0
0
-0.978067
-3.69167
-1.76131
-0.668902
0
-0.130411
0
-5.2673
-2.94327
-5.80057
0
-0.782255
-2.58797
-1.66876
-7.78063
-0.722591
-10.7281
0
0
0
-1.48804
-0.432486
0
0
0
-4.79768
-1.40874
-3.16424
-0.432519
-6.32668
0
-3.4156
-2.2367
-4.33371
-6.25224
-0.405861
-1.46038
-4.0766
0
-0.939833
-1.28607
0
0
-3.645
-4.55574
-0.835629
-2.91271
-1.64271
-0.891843
-0.917403
-1.64508
-0.434571
0
-8.84476
0
-3.17298
-3.16919
-3.37566
-0.0992377
-2.90825
-2.4281
-7.5061
-0.378611
-3.88281
-1.04822
-2.12056
0
-7.76843
-0.992252
-2.8667
-1.5488
-5.8664
-0.676532
-4.9205
-1.24438
0
-3.93863
-5.49813
-3.94134
-0.551605
0
0
-1.25909
0
-8.87728
-1.88959
-2.35361
0
-2.33166
-3.15744
-2.14288
-2.61031
-0.223072
-0.311319
-1.49841
0
-4.71862
-3.20777
-7.34162
-3.65045
-0.752305
-5.07746
-1.16212
-3.21014
0
-1.42067
-1.6955
-1.86101
-0.272297
-0.92645
-0.20466
-0.0771484
-0.50789
0
-1.56178
0
0
-2.7059
-0.792254
0
-9.79783
-2.06919
-5.47581
-3.36598
-8.15551
-3.98619
0
-8.08646
-0.13097
-4.65529
-2.53555
-3.04655
-0.542923
0
-6.32605
0
-0.320318
-1.50635
-1.51987
-2.23178
-0.965057
-1.85904
-0.803434
-3.95841
-2.74939
-2.94411
0
0
-5.09197
-4.47126
-5.96461
-4.8177
-0.576357
-0.502943
0
-0.200945
-1.48239
-1.44535
0
0
-0.232004
-2.48886
-1.54899
-0.841729
-3.56094
-3.4741
0
-4.36466
0
-1.33668
-5.87058
-1.02367
-0.442185
-1.25895
0
-0.474767
-0.140643
-0.146973
-2.87344
0
-5.04114
0
-1.1838
0
-6.66063
-2.01117
-0.630372
0
-2.37
-1.10001
-3.32039
-0.816796
0
-3.79113
0
-2.52768
0
-3.56818
-0.248281
-0.0453855
-7.77307
-1.83436
-0.712862
-0.0989946
-0.812603
-3.91018
-1.58424
-11.1413
-1.03459
-3.90668
-0.79762
-5.32719
0
-1.59553
-2.66567
-0.453001
-2.23585
-2.81764
-1.82018
-3.0506
-1.03101
-2.55502
-5.72228
-3.13567
0
-7.91927
-1.72421
-0.619328
-0.932595
-4.51754
0
0
0
0
0
0
0
0
0
0
0
0
0
0
0
0
0
0
0
0
0
0
0
0
0
0
0
0
0
0
0
0
0
0
0
0
0
0
0
0
0
0
0
0
0
0
0
0
0
0
0
0
0