<?xml version="1.0"?>
<VTKFile type="RectilinearGrid">
<RectilinearGrid WholeExtent="0 32 0 32 0 32" Origin="0 0 0" Spacing="1 1 1">
<Piece Extent="0 32 0 32 0 32">
<PointData>
</PointData>
<Coordinates>
<DataArray type="Float32" format="ascii">
0 0.524874 1.04975 1.57462 2.0995 2.62437 3.14924 3.67412 4.19899 4.72386 5.24874 5.77361 6.29849 6.82336 7.34823 7.87311 8.39798 8.92285 9.44773 9.9726 10.4975 11.0224 11.5472 12.0721 12.597 13.1218 13.6467 14.1716 14.6965 15.2213 15.7462 16.2711 16.796 
</DataArray>
<DataArray type="Float32" format="ascii">
-5.03879 -3.62163 -2.20447 -0.787311 0.629849 2.04701 3.46417 4.88133 6.29849 7.71565 9.1328 10.55 11.9671 13.3843 14.8014 16.2186 17.6358 19.0529 20.4701 21.8872 23.3044 24.7216 26.1387 27.5559 28.973 30.3902 31.8074 33.2245 34.6417 36.0588 37.476 38.8931 40.3103 
</DataArray>
<DataArray type="Float32" format="ascii">
0 0.524874 1.04975 1.57462 2.0995 2.62437 3.14924 3.67412 4.19899 4.72386 5.24874 5.77361 6.29849 6.82336 7.34823 7.87311 8.39798 8.92285 9.44773 9.9726 10.4975 11.0224 11.5472 12.0721 12.597 13.1218 13.6467 14.1716 14.6965 15.2213 15.7462 16.2711 16.796 
</DataArray>
</Coordinates>
<CellData>
<DataArray type="Float32" Name="Scalar" format="ascii">
0
0
0
0
0
0
0
0
0
0
0
0
0
0
0
0
0
0
0
0
0
0
0
0
0
0
0
0
0
0
0
0
0
0
0
0
0
0
0
0
0
0
0
0
0
0
0
0
0
0
0
0
0
0
0
0
0
0
0
0
0
0
0
0
-0.118904
-0.812305
0.032131
-0.0622998
-0.30884
-0.0917855
-0.203875
-0.600872
-0.336628
-0.808582
0
0.197159
-0.322963
0
-0.438225
-0.815281
-0.0436036
-0.0343141
0
-0.116038
-0.646593
-0.037082
0.0684491
-0.116521
-0.0251845
-0.848198
0
0.312327
-0.141921
-0.119513
-0.952358
-0.844971
-0.760429
-0.523962
0
-0.533504
-0.0235799
0
-0.0463391
0
0
-0.428003
0
-0.0126957
-1.59302
0
-0.115458
-0.615496
0.278202
-0.0182966
0
-1.04357
-0.0248464
0
-0.769588
-0.162057
-0.187592
-0.498363
0
-0.329136
-1.05974
0
-0.462044
-0.715077
-3.03564
-2.85556
-2.54317
0
-8.99119
0
-7.24487
-0.794785
-1.33627
-1.59986
-1.79474
-1.58206
-3.61916
0
-5.11784
-1.82646
-6.24907
-5.68821
-0.0293466
-7.06947
-1.72573
-0.983607
-1.01391
-0.818521
-1.57998
-4.62488
0
-5.84087
-3.61176
-0.151031
-1.8061
-1.90646
-1.422
-1.51091
0
-2.35704
-5.12784
0
-4.02192
0
-5.23906
0
-2.62639
-0.371635
-1.10398
-0.258129
-0.304909
0
0
-2.47362
0
-4.77432
-0.380784
0
-3.59446
-2.01056
-3.8351
-4.61385
-1.67574
-4.66631
-2.6545
-1.96386
0
-4.40475
-1.7515
-2.39798
-2.24534
-5.81632
-2.45976
-0.0720908
-6.88157
0
-6.47771
-0.123627
-3.36085
0
-1.81361
-2.68651
-4.21405
0
0
-0.500333
-6.12173
-2.68365
0
-6.98113
0
-5.49078
0
-0.122559
-0.385225
-1.76127
0
-3.66223
-3.17985
0
-0.427426
-4.4354
0
-1.45567
-2.75101
-1.10925
0
-8.87732
0
-4.23803
-2.57577
-6.60483
-2.06474
-9.05173
-7.19821
-3.64715
-3.38826
0
-3.81955
-0.434422
0
-8.04008
0
-4.32107
0
-1.17584
-0.12997
-1.31192
-0.434746
0
-2.28101
0
-3.24347
0
0
-2.8566
-4.92091
-1.94509
0
0
0
0
-1.03087
0
0
-0.129789
-2.68289
-6.66826
0
-5.07547
-0.0454885
-4.67748
-2.22377
0
-8.46255
-1.85415
-2.0431
-1.04153
-4.11483
-2.02879
-2.18967
-2.13584
-0.191696
-1.58401
0
-4.59885
0
-2.5445
-3.4179
-5.6962
-8.41857
-0.41955
-3.85812
0
-1.07687
0
0
-7.2941
0
-6.25356
-2.98589
-2.77389
-1.32995
0
-6.71889
0
-0.638037
-1.26596
-0.782898
-2.21164
-0.0114614
-6.7549
-1.85025
-3.13318
0
-1.85387
-1.48939
-5.46031
-8.0035
-2.57631
-0.250359
0
-1.08759
-0.786637
0
-4.10971
-5.65729
0
-1.67784
-5.17521
0
0
0
-0.51022
-2.60286
0
-4.60502
0
-3.11147
-1.68225
-0.335157
-3.69015
-4.38224
0
-6.72178
0
-1.20336
-2.00313
-6.4225
-0.683838
-4.93917
-0.0173838
-2.04683
-1.03702
0
-1.75754
-0.10453
0
-2.69971
-4.53859
-6.30252
0
0
-2.69575
-3.12391
-0.799606
-0.193863
-2.55066
-1.25283
-7.80566
-3.64297
0
-0.300739
-2.54114
-2.3852
-1.95052
0
-0.368741
-5.08299
-1.12594
0
-0.0892051
-2.19646
-3.40641
-1.46445
-5.58083
-2.7744
-5.89661
-3.49249
-3.41687
0
0
-1.00407
-4.71576
-1.97756
-1.74483
0
-4.41965
0
-1.66027
0
-1.27548
-1.33628
0
0
-2.22962
0
-4.96862
-3.52162
0
-0.605624
-1.0945
-2.16004
-2.22467
0
0
-9.45269
0
-5.28055
0
-3.11141
-0.599118
-2.48479
-1.40828
-4.13814
-2.1057
-4.35389
-0.982584
-2.44986
0
-1.79233
0
-0.116215
-0.479927
-5.26651
0
0
-1.8901
0
0
-3.60241
-3.97291
-0.64929
-7.83328
0
-3.96596
0
0
-0.353738
-0.0620297
-0.645159
-4.22725
-1.05484
-3.01774
0
-2.63112
0
-0.392155
-0.538691
-0.288268
-4.36304
-2.07652
-4.04423
-2.61702
-3.84077
0
-0.297949
0
0
-3.00449
0
0
-0.762548
-0.837673
-1.94802
-1.72793
-3.97424
-6.3617
-2.31039
-2.3671
-3.23456
0
0
-3.76715
-1.03843
-1.25989
-0.833203
0
-9.89858
-4.83798
-3.57916
-3.01176
-1.47128
-0.713729
0
-6.53891
-0.869606
-5.59013
-0.330873
0
-3.72349
-2.9619
-1.36917
0
0
-0.154645
-0.466912
-1.41532
0
-2.09452
-1.37421
-2.36238
-6.6192
0
-3.52364
-4.19853
0
-1.00063
0
-2.38713
-4.20016
-0.94631
-3.13684
0
-2.04559
0
0
-1.48676
-2.49427
0
-1.72527
-0.740001
-1.25849
0
-3.48307
-1.86419
-6.35935
-4.49354
0
-11.2975
-0.0433161
-0.399813
-1.11954
0
-1.04246
-0.332181
0
-3.53221
-0.430027
0
-2.89551
0
0
0
-1.70975
-1.59715
0
-3.55009
-6.12217
-0.588766
-0.115711
-0.561228
-9.52858
-1.07744
-0.0677106
-2.2633
0
-5.08801
0
-1.05406
0
-1.06899
-3.28512
-1.38438
-4.0409
-1.14857
-3.36325
0
-1.91016
-3.61641
-1.92126
-3.62669
0
-0.684332
-4.05403
0
-5.37798
-3.93008
-3.00646
-2.6703
0
0
-6.54998
-0.453296
-0.398105
-4.02423
-1.3131
-8.82557
-1.03397
-3.09359
0
-1.41869
0
-2.92098
-1.7283
-0.393515
-1.85074
-2.975
-1.66161
-2.48095
-1.60316
-3.19429
-3.54184
-1.20506
-2.66979
-0.951766
-0.893434
-0.153458
-1.83664
-0.0596191
-3.14232
-4.42461
-2.14514
-0.414424
0
0
0
-1.96246
-1.22008
-0.56522
-2.10595
0
0
0
-5.51302
0
-0.295264
0
-1.31061
-0.0536068
-1.88351
-2.0679
-1.69986
-6.97983
0
-6.58184
-0.375765
-6.41742
-2.63786
-0.0920966
-5.03877
0
-1.74279
-1.47281
-4.47253
-2.83901
-0.016762
0
-0.835842
-4.37367
-0.11694
-1.62698
-5.42761
-0.801469
0
-2.79892
-2.53778
0
-4.65417
0
-6.22927
-1.18289
0
0
0
-3.22304
-1.32346
-2.59336
-0.710843
-2.74446
-6.22332
-1.25333
-3.61843
-2.2265
-3.87186
-2.91356
-3.43215
-2.76677
-1.26854
-0.320555
-3.77119
-0.257803
-2.2301
0
-0.993476
-9.8879
-0.291311
-6.36229
-5.05538
-0.479368
0
-4.76074
-1.12166
-0.672916
-4.7638
-1.36844
0
-0.0515298
-1.21634
-0.587949
0
-2.56698
-9.79886
-3.67133
-5.70339
0
-3.77127
-3.07576
-5.6053
-4.44929
-3.02197
0
-6.75985
-1.93716
-2.89546
-2.53652
-1.20434
-2.82202
-3.1067
-6.24782
0
-8.79507
-0.917251
-0.616735
-3.96019
-1.08425
0
-1.41654
-0.779784
-4.60132
-0.788193
-2.20803
0
-6.18877
0
-1.33812
-3.9906
0
-4.38457
-0.194088
-3.91603
0
0
0
-3.60205
0
-0.286919
0
-3.18907
0
-3.41258
-1.96429
-2.7656
-1.54187
-3.03928
-0.738791
-7.4488
-1.66634
-0.305739
-2.8667
-0.603688
-1.98651
-0.846963
-0.827018
-1.28006
-1.38326
-4.93235
-0.591357
-2.79498
-4.93191
0
-4.00453
-2.2702
-4.64729
0
-0.839446
-0.0769748
-4.04389
-1.57012
0
-0.546372
-1.60324
-3.44005
-1.63784
-6.30028
-1.13348
-0.854813
-5.49087
0
-0.687824
-5.19666
-0.200096
-0.471887
0
-2.38824
-2.05994
-3.01726
-0.165203
-0.360845
-3.88637
-0.945322
-4.78877
0
0
-0.590302
-3.38551
0
-4.67498
0
-1.21606
-2.00309
-5.29975
-4.88192
-3.14742
-3.50162
-0.845672
0
-0.710497
0
-2.33977
-3.83364
-1.78999
-1.99142
0
-4.27469
-0.712847
-0.0625567
-0.665118
-0.146469
-5.61029
-1.35648
-4.65527
-0.975414
-3.72117
-2.83864
-3.07347
-0.667128
-0.115865
-0.722845
-0.864072
-3.36148
0
-0.160424
-0.797392
-0.782779
0
-1.1895
-2.50314
0
0
-3.17445
-0.107448
-3.8595
-4.48932
0
-2.99835
0
0
0
-2.18378
0
-5.65394
-3.36582
-0.534593
-1.24672
0
0
-5.00787
0
-4.75413
-2.12308
-6.17679
0
-2.50352
-4.25823
-3.53544
-0.943546
-4.05207
0
0
-1.12373
-6.31325
-5.0568
-2.02348
-1.13533
-1.29573
-6.02468
-1.31838
-0.974435
0
-3.92966
0
-4.32619
0
-2.38016
-1.43946
-1.71496
0
-2.76867
-2.93997
-3.80362
-6.98502
-1.69551
-2.83552
-0.354685
-1.26551
-3.71421
-2.78549
-0.17162
-2.85198
0
0
0
0
-2.60042
0
-1.28026
-0.686917
-5.16337
0
-1.76293
0
-3.87982
-2.53146
-5.7136
-0.655662
-3.49864
-0.229806
-7.04361
0
-2.12123
0
-7.1171
0
-3.23528
0
0
-0.388069
-2.47721
-3.14454
-7.62759
-0.330897
-5.97426
-2.15223
0
0
0
0
-3.40132
-0.845983
0
-2.55864
-6.88713
-2.72297
-5.53088
-0.731818
-3.88314
-1.7022
0
0
-6.06206
0
-1.05987
-1.38483
0
-5.13403
0
-2.6438
-0.364892
-4.7457
0
0
-0.402004
-1.34789
-2.63431
-1.1956
-2.86621
-0.768625
-0.478051
-2.84577
-4.22482
-2.86728
-2.54838
-0.00420405
-2.69936
-4.27499
-0.543116
0
-2.32492
-1.86674
-0.943369
-0.184505
-6.73784
-9.06891
-7.27527
-1.02777
0
0
-0.995615
0
-4.47405
-0.0182962
-7.00248
0
-7.12587
-1.01112
-2.37181
-3.09788
-6.45744
-0.161725
0
0
0
0
0
0
0
0
0
0
0
0
0
0
0
0
0
0
0
0
0
0
0
0
0
0
0
0
0
0
0
0
0
0
0
0
0
0
0
0
0
0
0
0
0
0
0
0
0
0
0
0
0
0
0
0
0
0
0
0
0
0
0
0
-0.98598
-2.11676
-0.933575
-1.34255
-1.13213
0
-1.0799
-0.648257
0.113422
-1.22795
0
-1.18754
-1.03055
0
-1.73609
-1.45033
-0.292536
-1.11505
0
-1.3485
-1.3517
0
-1.95258
-1.28804
-0.647103
-0.762984
0
-0.83543
-0.873597
-0.282523
-1.83027
-1.83172
0
-4.05685
-1.75507
-3.73055
-2.59654
0
-0.153546
-1.29063
-0.620763
-0.669646
0
-1.01177
-0.292633
0
-4.69373
-0.386158
-0.365491
-2.15208
0
-1.74869
-4.16671
0
-0.399294
-1.99225
-1.5787
-0.965263
0
-2.40016
-1.85861
0
-3.78318
0
-2.82771
-0.285969
-5.92993
-2.02235
-0.637063
-2.86906
-4.9858
-0.262624
-0.92067
0
-1.94902
0
-2.19961
-1.83803
-5.83345
-2.82148
-2.42887
0
-5.98016
-3.58647
-0.925775
-3.03762
-7.55014
-4.1136
-0.813153
-9.19065
0
-7.10838
-4.28466
-0.515638
-6.1677
-0.948303
-0.721588
-1.8774
-4.60228
0
0
0
-0.444908
-2.29546
-5.07675
-4.67197
-3.80072
-4.93048
-2.21391
-7.40938
-0.208697
-2.86643
-5.20318
0
-2.82694
-1.36923
-0.376337
-2.34517
-5.24153
0
-1.47337
-1.58782
-0.883154
0
-7.69911
-5.46615
-0.164457
-1.58174
-1.20929
-4.67935
0
0
-2.18569
0
-0.245745
-0.0473853
-4.02861
0
-1.4958
-1.90961
-1.94858
-1.92527
-1.01651
-11.2432
-1.30753
-4.20032
-0.97941
-2.67926
0
0
0
-7.48772
-1.14433
-7.373
-0.905614
-3.49328
-2.04361
-0.321212
-3.03178
-7.83434
0
-0.09804
-0.447891
-0.677809
-0.176521
0
-6.24827
-0.945568
0
-1.11781
0
-5.08767
-0.588039
-3.32276
0
0
-8.00157
-4.45402
0
-3.18733
-4.52214
-1.57163
-2.53701
-1.54052
-2.29355
-1.65151
-3.53842
0
-9.99026
0
-4.09431
-1.85615
-0.300358
-3.05655
-2.3402
0
0
-2.95713
-4.21863
-3.79519
-3.11198
-12.4676
-2.26676
-7.21029
-6.96324
-0.760942
-2.11679
-0.486857
-8.50705
-0.0130863
-0.608875
-7.1522
0
-1.80706
-1.33401
-5.02099
-2.61489
0
0
-1.70731
0
-4.09067
-0.27178
-1.85906
0
-1.51225
0
-4.56914
0
-1.12138
0
-4.08128
0
0
0
-1.11302
-2.09204
0
-1.51169
0
0
-3.25737
0
0
0
-4.38302
-7.05224
-3.10426
-5.75379
-0.241636
-8.90869
0
-0.167242
-2.0292
0
-3.20185
-3.63206
-2.21077
-0.730478
-4.4459
-1.55783
-9.12503
-1.88617
-5.60617
-0.301953
-1.16073
0
0
-1.52828
0
-0.382406
-2.36933
-2.31696
-4.32363
-2.25229
-0.895229
-0.102637
-0.0762051
-1.88791
-1.98137
-4.83873
0
-0.0283931
0
-0.720885
-4.32455
-2.32993
-3.38768
-0.549497
0
-0.527893
0
-7.10959
0
-4.19196
-3.077
0
-3.13058
-0.900873
0
-1.96456
-0.378598
-2.49049
-3.51051
0
-1.4338
-7.62733
-1.21881
-1.43612
-4.1746
-2.09887
-9.1754
-4.17452
-7.14109
-5.48725
-1.94071
-1.57774
-3.10185
-4.11965
0
-3.61534
-3.52481
-5.80336
-5.4816
-2.2998
-1.25949
-1.87894
-0.452569
0
-2.86576
-0.172546
-4.07886
-0.252856
0
0
-2.26923
0
-4.61032
-0.165312
-9.95991
0
-4.33411
0
-5.92444
-1.32486
-5.15185
-0.836302
-1.15639
-2.25912
-1.48825
-4.19722
-3.11539
-0.697271
-1.18358
-9.2778
0
-2.34416
-0.819311
0
0
0
-1.18236
-0.194856
-5.32453
-2.3936
-0.693626
-5.07781
-0.265716
0
0
-4.05159
-3.08479
-3.05539
-0.806719
-1.04289
-5.05726
-2.39821
-0.807129
-0.692963
-1.83673
-0.038561
-0.767852
-0.345943
-0.261553
0
0
-0.0652526
-0.310305
-0.703013
-0.795006
-7.46655
0
-4.86927
-0.846435
0
-1.57243
-1.60461
0
-5.90383
0
-0.084469
-1.10926
-0.462481
0
-0.607916
-1.43726
-4.06047
-0.40628
-4.10607
0
-1.93769
-6.21846
-2.34427
-1.68097
-2.90198
-6.46493
-0.129229
-1.64755
-0.178194
-7.80485
-2.23021
-0.286571
0
-0.585532
-0.939572
-0.0613683
-4.08001
0
0
0
-3.58718
-0.707021
0
-0.122484
-5.328
-0.57028
0
0
-1.48385
-1.20475
-1.11201
-3.63453
-2.68955
-4.10085
-2.0419
-1.02745
-1.92198
0
-0.35553
-2.54719
-1.50853
-0.171968
0
-6.51527
-5.07472
-5.55507
-6.10193
-3.3685
-0.463869
-5.66922
0
-0.244475
0
-3.43943
-2.09497
-7.0297
-4.29443
-2.41384
-1.40548
-1.3541
-7.86124
-0.583415
-2.77996
-0.444783
-0.77143
-2.78657
-1.37015
-3.82174
-2.21234
0
-0.478776
-3.02724
-5.60074
-2.292
-3.0183
-3.0084
-1.69211
0
-4.34419
0
-0.384769
-2.13025
-4.05444
-0.780264
-1.65195
0
-3.01816
-1.41368
0
-0.823551
-7.43443
-3.91289
0
-1.85518
-5.65009
-4.34778
-4.37328
-0.122292
-0.855247
-3.49698
-4.18197
-3.69446
-0.715875
-0.706671
0
-2.70023
-0.164035
-8.1476
-2.40787
-0.66742
-0.499077
0
-7.05358
-0.948361
-2.73744
-2.11632
-5.55434
-4.09698
-1.2235
-2.03421
-1.10765
-2.98307
0
-1.52302
-4.26397
-1.59437
0
-2.15904
-2.29241
-3.41358
-2.61055
-2.59777
-1.03683
-0.964843
-4.1125
-1.4988
-4.70742
0
0
0
-0.7919
-1.078
-1.85811
-0.877087
-7.45988
-0.57967
-10.2958
0
-4.76277
-0.589312
-3.12375
-0.608791
0
-4.75058
-4.01462
-5.44065
-4.51771
-0.513961
0
-0.179611
-0.133436
-1.15574
-3.05157
0
-0.122242
0
-4.79286
-3.72214
-3.66667
-3.36356
-0.918119
-7.19739
-1.15231
0
-12.2174
0
-2.4005
-0.310682
-0.858781
-0.609243
0
-2.56313
-4.34428
0
-1.7242
0
-5.3153
0
-3.78397
-1.46224
-5.43922
-1.03617
0
0
-6.69803
0
0
-4.6213
0
-0.254679
-0.275751
-3.09772
0
-7.26126
-0.161463
-6.31721
-5.10022
-1.25127
-2.83796
0
0
0
-0.0855651
-1.30899
0
-0.530446
0
-2.41741
-0.2213
-0.856723
-0.450719
-0.771235
-3.08924
-0.857207
-5.45608
0
0
-0.380267
0
-0.713467
-0.916889
0
-3.80478
-1.86397
0
-5.28389
0
-6.75342
-0.357474
-0.576799
-0.126073
-3.83452
-0.848512
0
0
-5.11934
-1.51635
-0.0434479
-4.28251
-0.360395
-2.70926
0
-0.799453
-0.857137
0
0
0
0
-0.197039
-1.19937
-1.68292
-0.530036
0
-3.09788
0
-2.02505
0
-1.26717
-1.01369
-2.78755
-4.70182
0
-6.04789
0
0
-2.15725
0
0
-0.144767
-6.06669
-0.473775
-1.83636
-2.91485
-11.523
0
-6.80264
-4.68195
-2.67166
-5.17056
-3.9379
-1.83982
-0.236316
-0.729045
-4.45086
-4.77377
0
-0.619032
-0.779948
-3.59614
0
0
-3.05495
0
-4.99535
-1.373
-1.20799
0
-1.11537
0
-6.31753
-0.643704
-2.32504
-0.0496904
0
-4.78843
-0.640227
-2.43136
-2.90135
-3.12465
-6.71938
-2.22718
-2.80596
-2.60701
-3.23771
-1.66644
-1.5954
0
-2.9783
-0.914005
-0.972413
-0.80162
-0.99205
-2.8826
-2.28937
-1.06454
0
-6.46497
-0.287971
-0.236853
-3.08252
0
0
-0.451932
-5.0686
0
-2.51348
-1.50848
-0.350087
-3.49594
-1.16598
-4.86415
0
0
0
-0.581179
0
-2.37928
-5.71093
-6.97915
0
-0.23809
-1.74766
-1.59535
-4.1593
-1.30787
0
-1.44014
-4.90052
-0.646902
-1.00488
-3.05728
-2.91101
-3.08125
-2.51605
0
-4.57299
-1.10844
-1.11483
-1.13045
-0.370764
-0.892054
0
0
-2.91065
-0.981408
-4.93602
0
-6.88363
-2.1808
0
-0.625528
-3.55101
-3.50806
-2.82828
0
-6.1938
0
-11.4636
-1.11931
-4.24258
0
-1.12099
-1.04255
-3.95133
0
-6.01571
-0.412331
-0.2452
0
-1.38495
-0.337718
-3.61216
-6.93686
-0.519761
-2.335
-2.7347
-7.62775
-1.68343
-0.798393
-4.81459
-0.182196
0
0
0
0
-1.45451
-6.29363
0
-6.0929
-2.13217
0
0
-0.63094
-4.77435
-4.72353
-1.09176
-2.36002
-2.45162
-3.00446
-5.16736
0
-1.15188
0
-2.62227
0
-3.87474
-0.639603
-2.13567
0
-4.491
0
0
-3.79381
0
-5.62076
0
-1.79752
-1.83078
-2.63518
-1.90417
-1.41322
-2.39213
-0.570633
-5.43616
-0.402584
-3.19144
-2.69027
-1.57987
0
0
-5.93656
-1.25716
-0.632937
0
-3.44311
-0.901653
-3.73595
0
-0.551152
-0.438745
-2.60004
0
-1.13757
0
-5.41805
-2.54063
-3.5969
0
-2.65133
-0.515248
-5.0958
-3.29596
-1.10263
-1.22573
-0.313613
-2.27672
-2.14165
0
0
-4.75803
0
0
0
-7.27032
-1.63898
-4.59896
0
-8.14202
-1.26867
-2.45108
-8.44744
-1.28413
-1.468
-0.149463
0
-4.05587
-2.55161
-4.81655
-1.07104
-0.138576
0
-4.16828
0
-4.76847
-1.27515
0
-6.6127
-4.49788
-2.6473
-2.67562
-3.67429
0
-2.94871
0
0
-0.330079
-8.63
0
-7.23412
-3.60954
-2.96476
0
-4.31097
0
-4.92948
-8.8326
-4.54963
-5.66738
0
-9.76483
0
0
0
0
0
0
0
0
0
0
0
0
0
0
0
0
0
0
0
0
0
0
0
0
0
0
0
0
0
0
0
0
0
0
0
0
0
0
0
0
0
0
0
0
0
0
0
0
0
0
0
0
0
0
0
0
0
0
0
0
0
0
0
0
0
0
0
0
-0.0971344
0
0
0
0
-0.0230603
0
-0.0542194
-0.0131676
0
-0.486417
0
0
-0.0342923
0
-0.393735
0
0
-0.185421
0
0
-0.233921
0
0
0
0
-0.909739
0
0
0
0
0
0
0
0
0
0
0
0
-0.0557699
-0.915227
0
-0.483614
-0.493876
0
-0.0125427
0
0
0
0
0
0
0
0
0
0
0
0
0
0
-0.60722
-3.7795
-0.0549155
-3.2552
-2.21422
0
-4.35354
-6.42218
-0.495763
-13.4053
-2.34807
-11.8458
0
0
0
0
-4.79941
-1.22789
-1.41808
-0.493154
-4.91499
0
-0.0490492
-2.35156
0
-2.08407
0
0
0
-1.0534
0
-2.06035
-2.4059
0
0
-3.88518
-0.502057
-8.614
0
-3.63315
-1.19976
-0.653168
0
-0.983786
-6.43404
-2.22474
-5.70915
-2.18388
0
0
-1.46791
-3.71048
-5.8641
-2.69802
-3.31125
-2.58716
-3.07007
-2.48131
-1.74244
-4.13759
0
-0.165368
-0.0835713
-2.57478
0
-4.04629
-2.40168
-3.96391
0
-0.924762
-4.72212
-1.73608
0
-1.71601
-2.52737
-3.78406
-0.607774
-4.57584
-1.92202
-2.80432
-2.89747
-0.541676
-4.49716
-2.0054
0
-4.94289
0
-3.04607
-0.611334
0
0
-1.52998
-3.06638
-5.19546
-3.34904
0
-5.8056
0
-1.45669
-4.00617
-7.14508
-1.35091
0
-2.76477
0
-3.80774
0
-0.17063
0
-3.80926
-3.63985
-0.854872
-1.12598
0
-0.159995
-1.13981
0
-1.64622
-3.92986
0
-0.319706
0
-7.72517
-0.89679
0
-1.22655
0
0
-5.15836
-0.0223411
-4.4974
-3.56967
-2.05759
0
-0.522383
-4.57686
0
0
-1.23429
0
-1.87712
-1.84431
-2.92398
-0.234146
0
-1.78267
-7.65858
-6.83443
0
-9.55437
-1.59221
-0.864343
-0.102627
-4.6806
-2.70664
-4.03381
-2.89243
-1.2812
-0.263775
0
-1.07075
-3.3939
0
-2.56119
-3.82549
-8.71074
-1.18208
-3.95
0
-4.72712
0
-3.61218
0
-3.81741
-1.16752
-1.18481
-5.9818
0
-4.73556
-4.00243
-7.92191
-0.758133
-0.972228
-0.0669144
-0.786572
-0.754416
-1.35677
-2.51217
-3.25592
-3.41247
-1.47751
-1.02217
-2.19045
0
-10.4492
0
-8.6778
0
0
-2.06444
0
-9.20729
-3.00278
-2.95426
-2.81282
0
-4.9104
0
-0.312342
-1.16114
0
-1.88726
-2.59126
-1.98833
-4.60644
-2.3672
0
-1.11581
-0.194565
-6.80004
0
-6.51142
-0.951545
0
-5.26464
-0.0418414
-3.75642
0
0
-8.49505
0
0
-0.202615
-1.99897
-3.52962
0
-6.65413
0
-4.60451
0
-7.01898
-0.666574
0
-3.8743
-0.847152
-0.657343
0
0
-3.07373
-2.13425
0
-7.43445
-1.58036
-1.51341
-1.02215
-5.83896
0
-1.52802
-1.81711
-1.98527
-1.92382
-0.922521
-3.08445
-6.78475
-2.56626
-3.11734
-0.642002
-0.227335
-0.598289
-6.30252
0
-5.54517
-1.29427
-5.79944
-2.92045
0
-2.21455
-2.6
-7.93134
0
0
-1.93433
0
-4.35391
0
-5.23703
0
-0.361548
-1.26687
-8.19516
0
-2.04371
-3.94758
0
-6.02149
-1.71917
-3.1248
-1.32853
-1.116
-2.61754
-0.245159
-1.10637
-0.729031
0
-7.2783
-5.53322
0
-4.12747
-1.14797
0
-5.66685
0
-1.4626
-10.3361
-2.53408
-1.50192
-3.45122
-5.02857
-0.661226
-4.93369
-7.4138
0
-6.73532
-5.20031
-4.49501
-2.19344
-0.445687
0
-5.52634
-0.863307
-5.21679
0
-6.59432
-0.566052
-2.16997
-3.04016
-4.93342
-1.82408
-4.13209
0
-7.85683
-1.09582
0
-0.0354378
0
-1.70321
-3.25639
-0.309982
-4.28699
-2.7843
0
0
-0.47992
-6.18936
0
-0.533693
0
-6.43727
0
-3.21029
-4.84267
-1.17018
0
-2.45254
-1.74684
0
-1.24555
-6.75969
-6.9162
-5.04864
0
-1.7184
-1.49756
-4.47166
0
0
-3.13608
-0.355367
0
0
-0.485997
-1.90655
-2.21361
-4.07895
-0.690786
-3.15118
0
-2.01997
-0.921115
-0.783089
-1.33853
-2.06211
0
-2.27819
-5.52227
-0.389123
-8.89322
-3.70744
-1.25547
-0.863983
-0.225011
-2.60354
0
-8.05136
0
-1.68224
0
-3.6329
0
-2.61837
0
-0.458347
-1.93248
-0.311964
0
-3.9154
-3.49118
-1.56366
0
-5.75141
-2.00745
0
-4.07579
0
-7.34871
-0.627391
-8.18003
0
0
0
-7.84709
-4.03207
0
-3.45293
-0.782656
-6.17964
0
-0.400186
0
-0.257249
-0.793014
-2.06972
-2.87669
-2.874
-4.88827
-0.651618
-0.218635
-2.49583
-1.88231
-5.52857
0
-5.87447
0
-1.85122
-1.04041
-6.11621
0
-2.17737
-0.283052
-2.06882
0
0
-2.67322
0
-2.32731
-4.34867
0
-2.21521
0
-1.05499
0
-5.4375
-0.702196
-1.96264
0
-0.873434
-3.52731
-6.5567
-4.04736
0
-1.07412
0
-2.88313
-1.4077
-6.48426
-0.745217
-4.83134
-1.22715
-0.55662
-4.23787
-0.191651
0
-1.99401
-2.282
-6.88721
-2.68281
-1.48656
-3.09954
-2.61603
-1.8105
-1.64511
0
0
-0.299663
-3.11628
-2.4219
-4.57872
0
-4.40502
-1.31468
-5.00156
-2.17917
0
0
0
-3.53471
0
-4.91564
-0.477701
-7.5728
-1.19876
0
-6.48563
0
-4.96675
-2.92461
0
0
-4.24662
-1.10401
-3.38346
-3.59801
-0.872954
-0.142271
-2.7122
0
-0.822092
0
-5.02007
0
-0.321091
0
-5.83693
0
0
-4.08507
0
0
0
-0.477955
-1.247
-1.51189
-1.90281
-2.80908
0
-9.8046
0
-11.4322
-1.11322
-8.13049
-3.64221
-5.92883
-0.139509
-7.39076
-7.91465
-2.33914
-10.7291
0
-5.39931
-0.210359
-2.66231
-0.310595
0
-2.8698
-0.290946
-0.284271
-3.0109
-5.25385
-2.08609
-5.6078
-2.09608
-2.15009
0
0
-0.0285672
0
-5.1019
-1.3229
-1.37947
-2.84445
-0.526185
0
0
-1.48482
-0.404043
-3.29838
-2.84572
-2.96143
-0.686077
-0.66757
-2.09187
-1.23252
-5.42514
-4.65012
-1.12569
-2.97035
0
-4.5082
-7.56059
-3.15026
-2.11471
0
0
-3.77385
-0.225761
-2.26436
-1.74394
-1.34966
-0.898248
0
-8.58494
-1.04202
-2.69104
-1.01705
-0.982569
-0.367839
-1.76568
-6.22183
-0.351379
-2.21318
-5.12664
-2.70124
0
-0.548028
-0.455991
-3.46022
0
-5.10081
0
-1.76456
-1.04186
-2.17202
-0.783221
-6.52136
-2.933
-7.75168
-0.692846
-5.47161
-1.74111
-2.28345
0
-6.26694
0
-4.368
0
-2.09852
-1.65368
0
-2.32705
-1.45275
0
-5.25145
0
-2.10284
-4.90322
-1.51521
-2.64031
-2.45836
-5.28758
-0.503086
-6.45832
0
0
-3.46501
-0.0316841
-3.8614
-0.576295
-3.74235
-1.26926
-3.30249
-4.88157
-2.57335
0
0
0
-0.999603
-2.57048
-3.12336
-2.94356
-0.245014
-1.08897
-0.997888
-0.462848
-1.15747
-2.22791
0
-0.0511088
-0.241467
-5.07835
0
-3.17054
-0.285211
-0.52347
-0.607581
-0.264872
-1.89348
-6.27802
0
-4.13065
-3.22405
0
-1.63501
-2.45149
-0.841944
-4.88536
-1.02748
-3.25663
0
-3.71544
-0.0271747
-4.6555
-0.292069
-1.53293
-6.09277
0
-2.57482
0
-5.61581
-0.077044
0
-0.485884
0
-2.89507
-0.961019
-8.07228
0
-2.33097
-1.18119
-1.87947
-2.94995
-1.07726
0
-2.52954
0
0
-0.483362
0
-2.19642
-0.977244
-0.949437
0
0
-3.49994
-2.25994
-4.44456
0
-4.50913
0
0
-1.57512
-3.68172
-2.13246
0
-3.46722
-3.19795
0
-2.58607
-0.716181
-2.59336
-8.36608
-2.20062
-3.62641
-0.930947
-1.63845
-2.39867
-4.06376
-1.00544
-7.45054
0
-3.07584
0
-1.35237
-2.69916
-6.1209
-0.924963
-0.008757
-1.45106
-2.75997
-1.04513
0
0
-3.08104
0
0
-4.79201
-0.782911
-3.15221
-3.91785
0
0
-3.91433
-2.29358
-3.97369
0
-1.36065
-3.70762
-0.666609
-1.3321
0
-1.25491
0
-3.24285
0
0
-2.69216
-1.87761
0
0
-4.44481
-2.95688
-0.783788
0
-0.590137
-0.815344
-2.32052
-2.16052
-0.834189
0
-5.18471
0
-2.16179
-0.925963
0
-2.60529
-4.58251
0
-2.67664
0
-2.82888
-5.31351
-1.49664
-3.21549
-1.72859
-2.00689
-0.13798
-5.27269
0
-4.53746
0
0
-0.0527555
-0.795021
-0.0777589
-0.769187
-7.2989
0
-0.885675
-3.51741
-5.45516
-2.69258
-6.2489
0
-1.14722
-0.500749
-4.00757
-9.31234
-9.50339
-6.39903
-6.09154
0
-0.928782
-6.50155
0
-1.97316
-7.70408
-4.65306
-1.69866
-7.64526
-2.83673
-5.21173
-2.01621
-0.252634
-0.916945
-0.242528
0
-5.32311
0
-6.87503
-2.96548
-1.68676
-4.56518
-0.585521
0
0
-5.78786
-1.851
0
0
0
0
0
0
0
0
0
0
0
0
0
0
0
0
0
0
0
0
0
0
0
0
0
0
0
0
0
0
0
0
0
0
0
0
0
0
0
0
0
0
0
0
0
0
0
0
0
0
0
0
0
0
0
0
0
0
0
0
0
0
0
0
-0.619221
-1.90055
-0.0462155
-2.48667
-1.54075
0
-0.681897
-1.1025
-0.782015
-1.37971
-0.102647
-1.4608
-0.549316
-0.0106666
-2.45645
-1.40971
-0.129616
-0.937389
0
-0.508231
-1.70058
-0.168443
-0.836218
-0.499065
-1.02346
-1.0383
0
-0.755734
-1.05119
0
-2.06247
-0.803357
-0.825043
0
0
-2.55283
-2.35571
-0.529621
-5.15157
-3.59849
-0.382897
-2.98119
0
-0.614505
-3.36071
0
-1.18398
-2.69128
-2.55124
-0.89869
0
-3.42876
-1.41595
0
-1.54123
-0.777772
-0.351724
-3.21208
-0.136647
-0.398824
-3.25451
0
-3.62469
-1.81393
0
-4.19349
0
0
-6.23365
-0.717992
0
-1.466
-1.57769
-0.698173
-1.84752
-3.83841
-4.8484
-3.42093
-4.63251
0
-0.338308
-7.01951
-1.80291
-3.76293
-1.72751
0
-1.07831
-2.58726
-5.00715
-4.61337
0
-5.6156
-0.380201
-1.62177
-2.10255
-5.37857
-0.77132
-2.01488
-2.15711
-1.53333
0
-1.45734
-2.00862
-1.83066
-3.91607
-2.65073
-3.09789
-3.84722
0
0
-2.48966
-1.93269
-5.25823
-8.34877
-2.6819
0
-0.233431
-0.707542
-0.433519
-0.465144
-0.25959
-4.85716
-1.19633
-5.12568
-2.98894
-5.36926
-3.33949
0
-5.46227
-2.82469
0
-2.00613
-2.72534
-2.53301
-0.938953
0
-6.85497
-2.43754
-4.7436
-1.56956
-8.7797
-1.55881
-8.46426
0
-2.33674
0
-2.07492
-2.79154
0
0
-6.96243
-1.04641
-1.31709
-4.02222
-2.915
-3.28378
-0.18732
0
-0.743725
-3.06499
0
-3.91742
0
-3.89517
0
-1.2957
-0.265466
-2.65328
-1.23568
-7.46179
-0.0505853
-7.67844
0
-1.83807
0
-2.52034
-3.03921
-2.18156
-4.16704
-6.59007
-0.754592
-8.91055
0
-0.337836
-4.42245
-4.60846
-1.24093
-4.20017
-1.94252
-3.05147
-5.15796
-2.66442
-3.8934
-0.384697
-3.75644
0
0
-4.61415
-0.384596
-0.443853
-7.02773
-2.56812
-3.00817
-2.05613
-0.728427
-2.52102
-2.68205
-4.42848
-5.7551
0
0
-4.08905
0
-2.25374
0
-7.27575
-3.22452
-0.503192
0
0
-3.30699
-1.51257
-2.2598
0
-2.06175
-0.0720503
-2.78153
-0.498727
-1.81298
0
-5.48574
-2.10594
-0.797603
-3.86087
0
-4.22949
-8.60631
-3.47101
-6.98099
-4.15224
-1.08624
-2.20784
-0.733949
-1.78992
0
0
-2.48502
-0.729993
-0.80881
-4.12259
0
-1.03004
0
0
-3.92632
-2.00143
-4.77787
0
-4.15689
0
-2.14016
0
-6.17994
-3.88868
-5.1008
0
0
-9.74528
0
0
0
0
-8.13942
0
-5.94477
-0.0207024
-3.79755
0
0
-7.43677
-1.62613
-8.64314
-0.651191
-0.498149
0
-4.49557
-0.451386
-5.03733
-0.213042
-2.49938
-1.08828
0
-4.15363
0
-6.58401
-2.3681
-4.978
0
-1.56216
-8.4204
-2.66815
-0.0519783
-3.85018
-0.898058
-0.261385
0
-4.6115
-3.00184
0
-6.73144
-1.20928
-3.6325
0
-2.91491
-2.09693
-2.10487
-0.820472
-0.742216
-1.14281
-3.00729
-0.0172969
-3.62218
0
-3.37563
-1.61214
-4.40118
-0.874906
-0.998301
-0.910649
-3.69063
-5.39038
-0.760674
0
-4.37135
-1.20851
-2.10643
0
0
-1.03411
-9.09149
-0.763231
0
0
0
-2.12798
-2.63604
-2.73709
-0.0861486
-2.05412
-0.792748
-7.3534
-5.22934
-2.24841
-3.34915
-2.23119
0
-0.109927
-0.845328
-0.911197
-1.37793
-0.676941
-5.60758
-4.00153
-6.36889
-1.9433
-5.79044
-2.56775
-1.796
-3.06241
0
-7.40785
-1.57356
-5.77549
-0.431104
-6.14059
-2.318
-6.62712
0
-0.779048
0
-2.81831
0
-0.89949
0
-0.860479
-5.55917
-0.463656
-1.35467
-0.270303
0
-3.36446
-6.20845
-0.668218
-0.888894
0
0
-3.26205
-0.417651
-0.0764599
-0.633368
0
0
-0.336413
-6.04088
0
0
-5.09785
0
-1.6951
0
-2.3969
-3.44147
0
-1.85059
-2.56615
-1.76359
0
-0.208855
0
-10.8317
-0.473381
0
-3.69736
-0.961429
0
-2.57794
-6.37421
-0.480219
-0.862868
-4.24294
-2.8012
-0.992174
0
0
-2.4002
-2.2448
-2.80376
-4.19517
-0.528997
-6.16375
-2.51266
-3.6259
-2.91015
-2.57017
-4.3558
-1.48899
-3.08601
-2.52353
0
-8.80415
-0.16869
-1.52091
0
-8.93142
-2.48608
-2.80087
-5.77969
-4.24571
-2.82366
-8.60151
-2.32593
0
-5.04881
-1.997
-1.24329
-3.04537
-2.07456
0
0
-6.42688
0
-1.57429
-0.80244
-2.19653
-0.687187
0
-3.63835
-3.23676
0
-4.71804
-0.993072
-6.28257
-8.11651
-2.90611
-5.83884
-4.32626
-1.60956
-0.205867
-0.268855
0
-0.427419
0
-3.7796
0
0
-2.00922
-4.73623
0
-0.919258
0
-3.86227
-1.31968
-1.68558
-0.866009
-4.92564
-3.27715
-0.351457
-2.88633
-3.42524
-0.459676
-3.90613
-2.25624
-1.29961
0
-1.11644
0
-5.94703
-3.17972
-5.70181
-2.74124
-0.336125
-4.16672
-3.38371
-2.68405
-6.90674
-0.545564
-6.66695
0
-0.752428
-6.51676
-4.96896
-0.346443
-5.45046
-0.423761
0
-5.12702
0
-0.512314
-4.88426
-1.12803
-4.52882
-0.928107
-2.43465
-8.55827
-6.82997
-7.15317
-4.92096
0
-2.27059
0
0
-6.46275
-0.540725
-1.18252
-0.970031
-5.1029
0
-4.54902
0
-5.29275
0
-0.203621
-0.186866
-3.99292
0
-5.64289
0
-0.6479
0
0
-1.68144
-2.18829
-3.67794
0
0
-1.47055
0
-5.23464
-3.51213
-2.43015
0
-5.56926
0
0
-4.67463
-1.4425
-3.52621
0
-5.7906
0
-0.37918
-3.9887
0
-0.80295
-0.219146
-1.06478
-3.95421
0
-6.3347
0
-1.34591
-4.90129
-0.679398
0
-6.48123
0
-0.1045
0
-1.30753
0
-1.259
-2.45115
-3.53832
0
-3.76769
-5.30284
-0.42114
-1.82852
-3.50345
-4.16314
0
0
-2.31448
-2.675
-0.328169
-4.0984
-0.508573
-3.67123
-3.48904
-1.13725
-3.8727
0
0
-0.300498
0
-6.44274
0
-1.24826
-1.18148
-4.9715
0
-0.956096
-1.88708
-0.929406
-5.64429
-6.03381
-6.57967
0
-8.2532
0
-0.627758
0
-2.36568
0
-3.20923
-0.885167
-2.89841
-1.12799
-1.56821
-0.637697
-0.0357118
0
-3.66777
-0.255867
-9.93335
-0.325498
-5.80131
0
-0.999444
-7.80173
0
-0.300918
-0.904123
-5.92918
0
-6.40294
0
-0.979611
-0.916648
-4.42362
0
-2.44219
-2.60929
0
0
-0.117908
-9.10701
-1.41839
-1.15624
-2.57438
0
-0.0282837
-1.76424
-3.69102
-5.07753
0
-5.92512
-0.268999
-5.84142
-1.33511
-1.87243
0
-3.00501
-3.42548
-5.83453
0
-8.03506
-0.349045
-3.70964
0
0
-2.80709
0
-4.81041
-1.73264
-4.6569
-1.83298
-0.972091
-6.11175
-0.146246
-1.26524
-2.34997
-1.07689
-3.56792
-0.461005
-1.36263
-0.00672418
-5.38733
0
0
-6.62739
-1.60583
-5.86226
-1.77964
-1.70174
0
0
-7.15359
-0.307247
-0.577472
-0.513749
-1.81287
0
-7.45043
-1.36882
-1.36479
-0.686423
-5.09904
-3.02063
-5.89452
0
0
0
-5.32961
0
-3.23193
-0.471024
-1.89232
-0.215609
-3.33032
0
0
0
-2.56338
-1.11195
-4.72138
-7.331
-7.53123
-7.98636
-0.818312
-1.54878
-2.22116
-2.21677
-2.45783
-1.70315
0
-0.774564
-1.99633
0
-4.36466
0
0
-1.48056
0
-4.00983
-3.92212
-2.09896
0
0
-3.23374
0
-1.02497
-1.53623
-4.47778
-1.54193
-2.41661
-2.57415
0
-0.864002
-0.776765
-0.167982
-1.96472
-1.11897
-2.73212
-3.70764
0
-2.1719
-3.16181
-6.85377
-0.810773
-6.53326
-0.70922
0
-4.50141
-4.92683
-1.38128
-1.25838
0
-2.20082
0
-1.35472
-2.55723
-5.1426
-1.20266
-0.224883
-3.69726
-0.597329
-1.99654
-1.9521
-4.38145
-0.917911
-4.00342
0
0
-3.35141
-1.30894
-2.7644
-6.77188
-0.15555
-1.78828
0
-0.436784
-1.36321
-6.32962
-1.7775
-2.53559
0
-2.38893
-3.35803
-1.7243
-4.69477
-3.00126
-4.21318
-1.09256
-8.54538
0
-1.93035
-2.29852
-0.59006
-0.730583
-0.378831
-4.16755
-2.83814
-7.01205
-0.604865
0
0
-4.7637
-0.839719
-1.19213
-2.91809
-2.35741
-3.07807
-2.22261
-0.580552
0
-5.10246
0
0
-0.555269
0
-5.07759
-0.699691
0
-4.60878
-1.29934
-3.42127
0
-0.453609
0
-0.399909
-1.20849
-0.168739
-1.44412
-1.24028
0
-8.22975
-1.35434
0
-6.7379
0
-8.0339
-0.281671
0
-2.29138
0
0
-1.49775
-0.951394
-1.16684
-2.3616
-0.0278396
-0.543081
-1.37898
-4.72005
0
-7.62742
-0.976874
-0.686189
-0.934829
-2.89124
-0.517626
-1.84746
0
-1.55439
0
-9.49256
-0.0700108
-5.27469
0
-0.090591
0
-1.09765
-8.67436
-2.93724
-0.82799
-5.27348
-5.07592
-0.800927
-1.93807
-2.03238
-1.24179
-0.394741
-0.63252
-1.43097
-8.39632
-0.706238
-7.93461
-2.45693
-2.03589
-1.57797
-0.608424
-1.92372
-2.85886
0
-2.46229
-4.54841
-5.99426
-4.32179
0
0
0
0