<?xml version="1.0"?>
<VTKFile type="RectilinearGrid">
<RectilinearGrid WholeExtent="0 32 0 32 0 32" Origin="0 0 0" Spacing="1 1 1">
<Piece Extent="0 32 0 32 0 32">
<PointData>
</PointData>
<Coordinates>
<DataArray type="Float32" format="ascii">
0 0.524874 1.04975 1.57462 2.0995 2.62437 3.14924 3.67412 4.19899 4.72386 5.24874 5.77361 6.29849 6.82336 7.34823 7.87311 8.39798 8.92285 9.44773 9.9726 10.4975 11.0224 11.5472 12.0721 12.597 13.1218 13.6467 14.1716 14.6965 15.2213 15.7462 16.2711 16.796 
</DataArray>
<DataArray type="Float32" format="ascii">
-5.03879 -3.62163 -2.20447 -0.787311 0.629849 2.04701 3.46417 4.88133 6.29849 7.71565 9.1328 10.55 11.9671 13.3843 14.8014 16.2186 17.6358 19.0529 20.4701 21.8872 23.3044 24.7216 26.1387 27.5559 28.973 30.3902 31.8074 33.2245 34.6417 36.0588 37.476 38.8931 40.3103 
</DataArray>
<DataArray type="Float32" format="ascii">
0 0.524874 1.04975 1.57462 2.0995 2.62437 3.14924 3.67412 4.19899 4.72386 5.24874 5.77361 6.29849 6.82336 7.34823 7.87311 8.39798 8.92285 9.44773 9.9726 10.4975 11.0224 11.5472 12.0721 12.597 13.1218 13.6467 14.1716 14.6965 15.2213 15.7462 16.2711 16.796 
</DataArray>
</Coordinates>
<CellData>
<DataArray type="Float32" Name="Scalar" format="ascii">
0
0
0
0
0
0
0
0
0
0
0
0
0
0
0
0
0
0
0
0
0
0
0
0
0
0
0
0
0
0
0
0
0
0
0
0
0
0
0
0
0
0
0
0
0
0
0
0
0
0
0
0
0
0
0
0
0
0
0
0
0
0
0
0
-0.128784
-1.42011
0
-0.454344
0.319354
-0.101975
0.419704
-0.408674
0.00164662
-1.14858
0
-1.30294
-1.19646
0
-0.360254
-0.396571
0.306078
0.142015
0
-0.549664
-0.0124304
0
-0.110745
-0.316766
0.258686
-0.913103
0
-0.466519
-0.663405
0
-0.478239
-0.0573712
-0.158748
-1.26596
0
-0.648426
-0.376825
0
-1.00889
0
-0.151035
-0.344379
0
-0.103063
-0.72614
-0.146288
-0.646648
-0.299811
-0.100274
-0.286607
0
-0.766387
-0.659694
0
-0.232358
-0.456899
-0.825792
-0.181296
0
-0.29407
-1.07702
0
-0.0602784
-0.570046
0
-3.24752
0
-3.8963
-0.543748
-9.82214
0
-3.39065
-8.35477
-1.07119
-2.22947
-5.30775
0
-0.671442
-3.09088
0
-4.84108
-3.55139
0
0
-6.5202
-2.29326
0
-1.59068
-1.41474
-1.63374
-1.21324
-3.42667
0
0
-1.64017
-1.45
-3.84693
-4.36527
-0.836705
0
-5.06932
-0.458281
-4.56903
-3.42615
-4.46183
0
-3.76305
-1.35063
-1.24223
0
-0.092272
0
-6.15908
-0.430257
-4.71896
0
0
-0.336045
-0.149719
-1.12234
-3.62476
-0.0358835
-4.71346
-0.689199
-7.73696
0
-3.80951
0
-1.40427
0
-2.14241
0
-1.30338
0
-8.88265
0
0
-0.532081
-0.206438
-0.693133
0
-1.69014
0
-4.3674
-2.14523
-0.0138632
-1.85
-1.98909
0
-1.53893
-4.15643
-4.05337
-1.90132
-0.278843
0
-5.599
-0.932356
-0.18859
-3.2221
0
-2.14413
0
-3.3059
-2.77234
-0.691051
0
-4.94535
-3.5897
-1.84659
-1.25821
0
-5.27978
-2.80141
-4.32758
-0.838196
0
-5.70559
0
-3.55712
-1.88012
-0.629272
-8.40605
0
-0.0540776
0
-8.49638
-5.91768
0
-5.56883
0
-9.14464
0
-0.452738
-0.108659
0
0
0
-2.93668
0
-0.55176
0
-4.12808
-1.69489
-0.847731
-1.23419
-4.44492
0
-2.6702
0
-3.65406
-0.868413
0
-0.428907
-5.24229
-2.24617
-1.54087
-0.862311
-2.09248
0
-2.89355
-2.75894
0
-0.653253
-1.55311
-0.0383807
-5.19567
-0.941702
0
-3.48796
0
0
-1.53525
-2.77637
0
0
-0.901546
-0.129808
-1.22092
-0.128555
-0.295807
-5.6104
0
-3.4712
-7.48479
-0.278566
0
-1.01413
-11.2957
0
0
-1.87284
-0.262325
-0.0126175
-0.44567
0
-5.20004
-4.7105
0
-1.18432
-4.15486
-0.616391
-4.72639
-0.719721
-2.49683
0
-2.44267
-3.0182
0
-0.770776
-0.285462
0
-0.534103
-2.68229
0
0
-6.14281
-7.3137
0
-1.66093
-5.00734
0
-3.19269
-2.22736
-0.14248
0
0
-3.82922
-1.75786
-1.70109
-0.842093
0
-3.53591
-0.145701
-5.87059
0
-2.31939
-6.038
-1.59553
-2.29547
-2.24593
0
-0.760324
-0.731879
-0.122947
-1.29838
0
0
-5.08424
-1.20843
0
0
-1.30231
0
0
0
-4.23877
-5.42465
0
0
-0.500235
0
-3.16723
-2.19459
0
-0.387928
-4.73426
0
-0.0779637
0
-5.01536
0
-5.12799
-0.797658
0
-5.14251
0
0
0
-3.43018
-0.836548
0
0
-5.09246
-0.552367
-0.175541
-5.24095
-3.44505
0
-2.85627
0
-0.863922
-0.252012
0
-0.653065
0
0
-0.316799
0
-8.2099
-2.67385
-3.05009
0
-5.67476
-7.34
-2.59382
-3.40328
0
-1.26698
0
-4.53337
-1.39945
-1.30453
-0.0912682
0
-1.46519
-0.503739
-1.49405
0
0
-3.23719
0
-7.34701
0
-11.1538
0
0
-6.82676
-1.49803
-5.22249
0
-5.64571
0
-0.222498
-1.9693
0
-6.48123
-6.31742
-1.99692
-0.861676
-0.456316
-6.69375
0
-0.620729
0
-0.425063
0
-4.51327
0
-5.30292
-0.397104
0
0
0
0
-2.31914
-2.36661
-3.79519
-3.26983
-3.62013
-2.37631
-1.03224
-3.43908
0
-9.88615
-5.93306
-7.36993
-3.28065
-1.81399
-2.14771
0
-3.05832
-6.98853
0
-8.4621
-1.2118
0
-5.00293
-0.834387
-0.198212
-0.818658
0
-4.94257
-1.71103
-2.33224
-3.86354
-3.28888
-0.484994
0
-3.29343
-1.55705
-2.38857
0
-5.30938
-0.78147
-0.844745
-0.840889
0
-1.20468
-0.806698
-1.89063
-3.83053
-0.492799
-2.92917
-1.40283
-1.29111
0
0
-2.60284
-0.763886
-2.24049
-9.21761
-2.264
-8.73111
-4.22313
-2.0199
-2.24278
-3.36867
0
-1.67341
-0.650331
-1.60566
-0.484943
-1.6787
-0.46925
0
-0.0795826
-3.37381
-1.97105
-5.87227
-0.297838
-6.17893
-2.92243
-2.90668
-2.03066
-3.53747
0
-6.26278
-1.22423
-0.466645
-1.94053
0
-3.90312
-0.357548
-7.91977
0
-2.84634
-1.8312
-1.14273
0
-4.38839
-1.3465
-8.00627
0
0
-7.37809
-0.243606
-4.01543
0
0
-0.436389
-4.89828
-4.68903
-5.7157
-0.476133
-7.24271
-0.993265
-5.16286
0
0
-3.38108
-2.14068
-3.43397
0
-0.404527
0
-6.21115
-5.36636
0
-2.58519
-1.90062
-1.9705
-1.53847
-1.54167
-3.76461
-1.57016
-0.0132661
-6.57355
0
-1.62711
-5.78939
-0.199282
-5.53031
-1.29212
-0.144146
-4.44204
-1.43372
-5.59954
0
-4.64788
0
-7.26949
0
-1.64394
-4.82883
0
-2.86867
0
-5.3769
-0.341397
0
-1.94508
-2.50517
-3.72283
-2.78255
-1.34493
-1.91751
0
-0.0525213
-0.56003
-0.929834
0
0
-3.61377
0
0
-0.238128
-3.94236
-0.0596561
-3.10608
-1.41908
-4.64901
0
-0.770042
-4.09849
0
-0.809522
-5.72386
-3.14334
-1.10636
-2.52766
0
-1.79155
0
-0.515983
0
-1.92695
0
-1.30394
0
-1.80735
-1.46275
-3.58744
0
-1.15179
-1.37442
-2.20742
-3.13098
0
-4.63568
-2.35244
0
-2.64041
-0.854958
-1.32502
-4.62829
-4.63706
0
-0.64675
-1.89996
-5.02581
-3.52076
-2.49067
-0.816942
-0.22835
-0.61135
-6.01675
-1.52612
-0.882785
-5.81946
-5.13196
0
0
0
-3.2454
-0.979996
-2.32494
0
-2.44491
-3.36775
-0.296543
0
-0.332047
-0.597684
-0.936267
-1.95433
-0.638072
0
0
-4.45058
-3.96005
-0.511418
0
-9.55551
0
-1.32023
-1.91162
0
-2.59582
-3.94031
-2.46768
0
-4.46041
-2.38358
-6.41111
-2.21045
-2.28306
-0.932685
-6.75447
-2.63467
-4.1175
-0.183898
-2.76661
-0.49797
-3.80421
-1.14907
-4.79317
-3.62383
0
0
-6.79448
-1.67889
-4.92219
-1.66463
-3.4506
-2.92834
-4.13754
-2.86393
0
-3.59763
-1.22412
-3.05014
-4.04456
-1.93286
-5.54814
-1.1347
-1.83135
-5.97837
-1.0371
-4.35546
-1.23997
-5.51144
-4.91039
0
-3.26503
0
-5.88816
-1.95666
-2.19017
-1.8828
-0.150403
-0.0298515
-4.31618
-0.439716
-9.57006
0
-0.782609
-0.574424
-3.42149
-0.231462
0
-1.61304
0
-5.81334
-0.886323
-0.240628
0
-2.28301
-0.568662
-2.34274
-1.31622
-1.32779
-2.53609
0
-4.06983
-0.366546
-6.99595
0
-6.48336
-1.96654
-0.565237
0
-4.20365
-1.88477
-4.28061
0
-0.391245
0
-3.50274
-0.463054
-2.91979
-1.12066
-4.0929
-9.17805
0
-7.38964
-0.242589
0
0
-0.0395461
0
-0.09903
0
-1.19964
0
-6.37169
-6.80748
-1.1471
-5.06774
-2.35186
-1.92379
-3.43568
-1.16376
-4.67698
0
-8.91448
0
-3.889
-2.83792
0
-1.50407
-1.27585
-0.329117
-4.11631
-0.656781
-4.81353
-0.730883
-0.0922141
-0.124277
0
-0.407391
0
-7.03629
-8.06181
-10.9101
0
-4.9733
-3.91449
-5.80454
0
-7.34858
-0.886481
-1.46312
-0.0576179
-7.76868
-0.0202434
-2.72342
-4.68017
-2.98958
-1.37118
-0.645578
0
0
0
0
-3.55841
0
-2.69463
-3.10059
-0.353087
-4.14315
0
-8.16007
-6.05177
-2.00728
-3.729
-2.71529
0
-5.64187
0
-6.84796
-0.332021
-2.46706
0
-1.76331
0
-5.16958
0
-8.20254
0
-5.79132
-1.09415
-0.475054
-3.95015
-0.786721
-0.0889431
-5.42789
0
0
-1.65586
-0.318719
-0.329387
-1.87486
-8.06963
0
-2.57113
-0.219406
-0.799035
0
-1.83035
-3.50158
0
-1.31184
0
-1.06089
-4.40808
-4.68561
-0.0669568
0
-3.50393
-4.41524
0
-3.30202
0
-8.19968
-3.3801
-7.98874
0
-11.7303
0
-10.9728
-3.42843
-0.980681
-4.67802
0
0
-0.0179228
0
-1.10086
0
-0.750714
-6.41482
-1.26621
-2.73129
-2.63635
-2.98315
-0.925151
-0.297244
-0.985634
-5.16994
-3.35572
-0.526222
-3.25449
-0.969982
-0.479104
-4.02379
-0.645278
0
-1.54605
-5.06881
0
-1.61692
0
-2.00295
0
-0.106737
-1.24991
-7.17027
-1.53016
-4.11072
-5.06773
0
-2.89941
-3.49114
-0.00392418
-3.43441
-5.33822
-1.26224
-1.13573
-0.282011
-0.53174
0
-0.941482
-6.68131
-2.39963
-0.424414
-12.1668
-0.700948
-1.6206
-6.05152
0
-5.5861
-1.5375
-7.23953
-4.19143
-0.716543
-5.18895
0
-0.133747
-5.8446
-6.39679
0
0
0
0
0
0
0
0
0
0
0
0
0
0
0
0
0
0
0
0
0
0
0
0
0
0
0
0
0
0
0
0
0
0
0
0
0
0
0
0
0
0
0
0
0
0
0
0
0
0
0
0
0
0
0
0
0
0
0
0
0
0
0
0
-0.847864
-1.51658
0
-1.83377
-0.958683
0.0300781
-0.471336
-0.664385
-1.21599
-1.86636
-0.848314
-2.6219
-1.26896
0
-2.55918
-0.295748
-0.603596
-1.05256
0
-1.01771
-1.41361
-0.200236
-2.26566
-1.00191
-0.24818
-2.15355
-0.00872811
-1.88451
-1.44112
0
-0.902083
-0.472332
-3.48307
-3.86725
0
-1.78535
-2.65889
0
-0.913484
-1.11264
-1.03697
-0.810683
0
-0.973428
-0.391508
0
-1.41092
-0.00464808
0.000541475
-1.76725
0
-1.09596
-4.1939
-0.225033
-1.32043
-0.707434
-0.47024
-0.0823609
0
-2.06418
-2.26142
-0.192973
-3.82943
-0.404762
-0.848479
-0.180941
-4.43815
-3.60461
-0.644331
-4.61751
0
0
0
-0.583794
-4.23644
-0.251972
-4.55794
-0.728713
-0.53127
-0.583555
-4.71125
-2.8298
-1.74949
-4.53966
0
0
-5.21917
-4.77488
-1.15327
-2.96478
-0.00638602
-1.07605
-5.07358
-6.58319
0
-6.89442
-6.22046
0
-3.23375
-3.22294
-2.72901
0
-1.73144
0
-0.451041
-2.88417
0
-1.53395
-2.22699
-0.187547
-5.0587
0
-0.807136
0
-1.87101
-0.532467
-5.90445
-3.01687
-1.01839
0
-1.99136
0
-3.42956
-0.727143
0
0
-5.70248
-2.65422
0
0
-4.06227
0
-6.68018
0
-0.354799
0
-6.85102
-1.67731
-3.93495
-0.302901
-2.89507
0
-1.21404
0
-3.0473
-3.28847
-1.94343
-0.30933
0
-2.92368
0
-4.46627
0
-5.45338
0
-1.64498
0
-3.13805
0
-4.67574
0
-5.12046
-0.00818091
0
-2.7681
-3.88381
-0.873154
-0.376197
0
0
-5.01569
0
-0.204745
-3.11113
-4.83053
0
0
-1.82515
-0.154352
0
-0.152027
-1.10423
-3.87054
-3.05309
-2.80701
-1.99455
0
-1.77212
-0.153473
-1.36577
-2.14613
-3.08873
-0.937961
-0.488856
-0.508994
-1.05247
-3.67772
-0.444435
-3.26814
-0.943008
0
-1.83709
-1.32068
-2.3681
-1.17078
-2.65866
0
-2.65052
-3.45767
-3.04769
0
-5.53308
-1.86948
0
0
-5.73854
-0.825045
-0.370302
-7.91425
0
-3.99637
-1.61554
-1.91914
0
-1.83238
-0.242386
-2.20916
-4.54765
-0.545142
-3.0942
-2.60608
0
-4.45339
-1.96647
-6.20073
0
-7.73593
-0.166592
-4.37214
-0.0955443
0
-6.75209
0
-0.772788
-1.38332
-5.66885
0
-0.0410008
-7.97186
-1.12093
-3.81193
0
-3.798
-0.038512
-1.29001
-3.89343
0
-0.156649
-2.18723
-0.212117
-0.618064
-0.412262
-3.36846
-2.65027
-4.90665
-0.890467
-10.39
-1.7051
-2.46038
-1.19801
-6.11911
-1.66657
-3.3167
-2.88424
-6.97313
0
0
-9.10087
0
-5.67086
-2.94437
-2.98684
-0.113521
-8.47258
0
-9.54499
-0.231636
-2.15191
0
-3.04771
0
-2.57811
0
0
-0.385555
-5.55487
0
-1.0259
0
-4.63827
-2.39126
-4.27869
-4.02033
-4.19065
-2.42212
-0.163079
-4.03973
0
-2.64085
-5.26431
0
-4.24721
0
-5.26931
-1.07939
-4.6494
-3.22808
-5.03565
0
-10.235
-6.95844
-0.00975667
-1.41379
0
-5.1013
-0.0653828
-0.864316
-2.33245
0
-4.82918
-0.652962
-0.722071
-1.92439
-7.04352
0
-1.427
-1.12648
-5.34512
-1.10809
-5.05483
-0.62373
-3.57788
0
-2.14848
-4.36796
0
-3.25371
0
-1.17102
-0.276759
0
-2.46636
-1.71804
-5.45701
-4.09531
-5.16831
-5.33703
-3.66463
-4.51907
0
-2.92652
-0.142918
-3.0181
-1.42004
-0.376412
-4.74005
-0.231773
-2.56221
-0.518183
-4.07716
-0.763648
0
-6.89877
-1.99023
-2.2101
-2.74931
-4.91938
-4.71669
0
0
-6.74545
-0.758628
-3.26718
0
-2.80197
0
-3.09815
0
-0.671544
-1.1459
0
-4.02892
0
-3.23694
0
-0.305169
-0.664681
0
-3.46368
-1.21509
-2.10401
0
-8.32691
0
-6.6349
0
-0.672913
-4.70673
0
-0.0155623
-6.42853
0
-3.79708
-1.25875
-3.69705
0
0
-3.8331
-2.97145
-2.36017
-0.0378057
-4.68893
-6.37622
-0.876033
-1.912
-1.15387
-4.71218
0
-2.90025
-1.26631
0
-3.55711
-0.0750007
0
-1.9034
-3.76906
0
-1.40468
-3.17702
-4.25621
-0.0917424
-0.0166199
-0.907319
-5.72952
0
0
-1.98001
-4.24487
-1.00086
-4.24613
0
-4.46992
-3.42227
-1.35137
-6.94113
-1.6858
-4.95684
-2.75398
-3.21187
-2.18823
0
-8.09649
-3.09075
-4.73819
-4.64519
-3.85549
-3.80878
0
-5.79016
-1.83831
0
-1.15567
0
-5.05923
0
-2.3434
-4.5197
-2.2975
-1.72776
-6.54444
-1.04446
-3.339
-3.6099
-2.67642
-4.10638
-2.51166
-2.03129
-2.94471
0
-5.57787
0
0
-5.44505
-1.26571
-8.35983
-3.17183
-4.19635
-1.91966
-4.4894
0
-0.933151
0
0
0
-3.48238
-4.97963
-1.42344
-3.72333
-1.91871
-1.1965
-4.2167
0
-9.48948
-4.91583
-0.108106
-1.11577
-0.0986609
-3.79847
-5.44119
-0.208493
-1.27652
0
-3.31696
0
0
0
-0.498296
-3.69898
0
0
-2.87018
0
-10.1219
-4.15712
-3.49022
0
0
-0.605345
-2.55415
-0.935753
0
-6.05325
0
0
-7.03115
0
-3.01851
0
-11.6118
-1.31745
-6.2521
-0.110133
-10.4574
-0.369113
-1.47093
0
-3.29368
0
-3.24148
0
-1.41608
-4.72515
-2.60945
0
0
-1.93221
0
-1.42549
-1.03242
-7.09812
0
-5.87312
0
-3.40906
-2.18574
-0.976342
-3.60553
-1.13842
-4.95065
0
-7.47033
-0.616127
0
-3.0013
-1.62516
-0.873707
-0.875387
-2.52424
-2.98335
-3.3997
0
-7.7302
-0.0817359
-2.64826
-0.274687
-4.40338
0
-0.752352
0
-4.76628
0
-5.05869
0
-4.42699
-3.04845
-1.25702
-0.530818
-5.21169
-0.947126
-3.33365
-0.408349
0
-2.47098
-0.619192
-2.55661
-2.47049
-1.15856
-4.56822
-0.0408692
-5.05939
-2.26077
-1.81057
-1.56216
-2.31919
-0.00997904
0
-3.75886
-3.82037
-0.0386955
0
-0.228041
-3.44662
-0.652702
-4.90134
0
0
-0.346537
0
0
-1.62692
-3.19904
-8.38583
-4.59852
-4.82183
-0.715083
-1.75515
-3.42438
-0.577249
0
0
-0.16044
-3.85482
0
-1.22819
-1.36547
-1.43386
-4.17991
0
0
0
-7.55903
0
-0.847484
-3.02306
-5.27567
-1.52698
-1.86552
0
-1.9637
-2.41814
-4.65
-1.13025
-0.34674
-0.332721
-0.127452
-4.66033
-0.683369
-0.0604694
-0.0698473
-5.01226
-4.28137
-3.68568
-9.88119
-3.19543
-1.7848
-7.10279
0
-14.4565
-1.32127
0
-5.91848
-2.94447
-1.56118
0
-4.23788
-0.792473
-3.91912
-1.14663
-2.22509
-3.92918
-0.263282
-1.6657
0
0
-7.77832
0
-2.37799
-1.13877
-3.69878
0
0
-0.0822419
-3.61448
0
-2.32561
-0.331183
0
-2.99433
0
-7.15045
-2.55149
-6.81803
-2.74888
-0.667199
-5.82594
0
-2.89191
-3.67746
-3.06838
-6.25001
-0.216865
-2.53846
-0.176596
-0.081238
-5.24297
-2.20336
-1.61311
-5.32959
0
-8.16804
-1.79646
-6.24047
-2.59409
-6.29802
-1.9369
0
-1.58583
-1.1298
-2.44984
-2.94591
-4.1796
-3.07969
0
-0.608672
0
-5.10335
0
-2.71136
-1.57577
-2.14695
-3.50362
-0.963754
-4.46042
-3.05089
-0.846564
-1.96316
-4.30145
-2.42952
-0.688345
-5.19926
-1.18821
-0.802464
-6.70018
-1.85648
-1.92257
-2.50687
-1.67587
0
0
-1.21822
-2.85693
0
-3.97751
0
0
-10.4855
-0.520224
-3.58949
-5.89376
-1.79448
-3.23689
-2.81667
-0.978387
-2.68636
0
-1.67832
-4.16379
0
-1.13545
-3.15011
-1.04904
-6.97039
-0.541218
0
-0.793183
-3.52194
0
-0.405493
-3.29828
-1.20426
-0.411701
-1.0965
-4.18759
0
-6.54289
0
0
-0.712978
0
-0.274144
-0.191683
-0.357075
-3.47111
-0.816206
-1.39085
-1.05096
-2.49423
-0.179553
0
-7.01792
-1.81731
-3.56398
-0.358882
0
0
0
-1.76059
0
-1.62943
0
-3.29398
-0.652006
-3.56258
-1.71318
0
0
0
-1.14237
-3.35406
0
-2.66302
-5.66368
-0.582252
-6.29929
0
-6.63475
-0.138493
-3.51369
-1.51143
-4.3886
-4.21646
-3.46045
-0.28846
-2.57885
-6.44421
-1.88405
-5.05439
-1.67643
-5.42937
-1.40708
0
-0.840653
0
-3.84234
0
0
-5.03714
-2.06413
-2.51543
0
-1.99276
-4.78061
-1.78122
0
-4.62655
-0.3138
-0.484528
0
-1.59279
0
-2.38179
0
-8.85901
0
-6.29165
-1.18624
-3.77655
0
-3.70193
-1.05852
-1.53767
-2.36675
-2.54997
-0.498594
-3.56231
-0.53824
-3.5091
-0.734787
0
0
-3.93246
-0.876009
-1.84283
-2.6064
-0.0367577
0
-0.336698
0
-5.36947
-3.56512
0
0
-6.2345
0
-11.724
0
-0.430892
-1.34561
-5.08489
0
-7.98019
-2.23183
-1.8814
-3.97827
-4.23958
-4.08657
-6.58148
-1.68444
-9.06854
-1.38133
-10.4902
-8.0897
-2.71555
-2.74603
-2.13616
-0.652778
-5.63554
0
-8.82869
-0.176316
-1.54922
-1.81769
0
-2.4415
-4.90446
-1.81428
0
-7.92184
0
0
0
0
0
0
0
0
0
0
0
0
0
0
0
0
0
0
0
0
0
0
0
0
0
0
0
0
0
0
0
0
0
0
0
0
0
0
0
0
0
0
0
0
0
0
0
0
0
0
0
0
0
0
0
0
0
0
0
0
0
0
0
0
0
0
-0.153428
-0.510648
0
-0.156599
-0.104535
0
0
0
0
-0.213146
0
-0.0435823
-0.404264
0
-0.193506
0
0
0
0
-0.314957
-0.399592
0
0
-0.00248322
-0.0360972
0
0
-0.695299
-0.172337
0
-0.0417619
-0.43103
0
0
0
0
0
0
0
0
0
0
0
0
0
0
0
-0.229301
-0.110558
0
0
0
0
0
0
0
0
0
0
-0.447706
0
0
0
0
-2.68353
-2.34163
-2.56116
-1.96778
-1.11752
-0.14631
-2.05036
-3.42985
-3.37684
-3.64589
-0.478736
-2.19749
-0.0620821
-0.50931
-4.8476
-0.930557
0
-0.155478
0
-1.64723
0
-4.12537
-1.46813
-0.413909
0
-1.70244
-3.22596
-1.15464
0
0
-2.72165
0
-1.53404
0
0
0
-0.752284
0
-1.90697
-1.57669
-0.961838
-2.6092
-2.50921
-1.34339
-1.12893
-1.61282
0
-0.704406
-7.78037
-1.47573
-2.98696
-1.28565
-1.32728
0
-3.21194
-0.14662
-4.45221
-1.21837
-0.929639
0
-2.36422
0
-3.69621
0
0
-5.34597
-3.8091
-6.38856
0
-8.16423
-2.9865
-2.10932
-2.39929
-0.568418
-4.7191
0
0
-1.62156
-2.10613
-2.01514
-4.16452
0
-0.914984
-4.77311
0
-6.57133
-2.0939
-2.70997
-0.446446
-1.10546
-0.246336
-5.86849
-2.49268
-0.792798
-1.07605
0
-4.20948
0
0
-3.3706
-1.24201
-1.53327
-3.18575
-1.4391
-1.60248
-1.12896
0
-0.248625
-4.9003
0
-0.922553
-5.79725
0
-1.91672
-4.74792
-2.8563
-5.53923
0
0
0
0
-6.21159
-1.56098
-4.22271
-2.49117
-3.8776
-0.466828
0
-7.5929
0
-2.03235
-2.52685
-0.641514
-0.41745
-0.387193
-0.419171
0
-6.18583
0
-7.0761
0
-4.45528
0
-6.17868
0
-3.27468
-0.0231054
-2.68124
-1.00465
-4.61799
0
0
-5.2973
-1.75772
0
-1.38275
-4.46092
0
-3.84776
0
-2.15536
-4.28338
0
-1.1757
-0.351382
-6.1258
0
-6.3034
-1.39325
0
-0.00163523
-2.1995
-3.91562
-3.98652
-2.75379
-1.02379
-1.96895
0
0
-5.87244
0
-2.62237
0
-11.5072
-1.72388
0
-6.42147
-0.448664
0
-2.07484
-1.96757
-1.74335
-0.885548
-4.20765
-3.53625
0
-6.94937
-2.87598
-6.35281
-2.00645
-2.20174
-0.150598
0
-4.11974
-0.787747
-2.97997
0
0
-3.99353
0
0
0
-6.93827
0
0
-3.49481
0
-1.76966
-5.07625
-1.86668
-0.780861
0
-0.167597
-4.26396
0
-3.37412
-2.53453
0
-7.34812
-1.74502
-6.04745
-6.15367
0
-6.60278
0
-1.98803
0
0
0
-0.216865
0
-0.227307
-0.123546
-0.519674
-1.45329
-3.46262
-2.76818
-3.57115
0
-2.03805
-2.48831
-1.37843
0
-0.712336
-1.46329
-1.53039
-2.63816
0
-8.27544
0
-2.5301
-3.17205
-1.15354
-2.24015
-8.91954
0
-0.228646
-7.82514
-1.88292
-2.15797
0
-9.15511
0
-1.37058
-0.769933
0
-1.30817
-0.470089
-6.18935
-0.546261
-2.21857
-5.64391
0
-7.03642
-0.0524669
-9.0406
-2.87825
0
-6.75449
-1.94046
-2.89248
-1.93849
-1.78613
-6.35342
-0.145798
-1.25365
-2.22898
-2.83058
0
-2.89322
-0.615117
-0.513808
-5.5461
-4.04806
-2.97093
0
-1.45015
0
0
0
-2.85653
-2.01224
0
0
-0.486099
0
-2.75481
0
-1.31206
0
-2.38237
-0.126387
-1.14562
0
-0.828944
-1.20973
0
0
-4.84134
0
-7.9426
-1.14879
-2.54174
-5.04818
-0.0330436
-0.739893
-0.535211
-3.74996
0
0
-1.91221
-1.19279
-1.16633
-2.7366
-6.51668
-5.4798
0
0
-3.52522
0
-5.12703
0
-0.955333
-0.474275
0
-4.88625
0
0
-3.13714
-3.72351
0
0
-0.67226
-0.880843
-2.88418
-1.76295
-1.48482
-5.48603
-0.0695624
-2.09572
0
-0.180203
0
-7.82691
0
-1.19357
0
0
-6.29521
-0.443271
-5.08508
-3.12008
0
0
0
0
0
-0.623322
-1.28259
-6.80554
0
0
-0.80907
-0.51787
-0.46282
-1.30959
-0.892387
-0.867015
0
0
-4.1057
0
-1.32443
-7.56237
0
-2.5863
0
-2.04141
0
-0.571956
-6.70832
0
-0.0974404
-3.12725
-1.16587
-1.15776
-0.93078
0
-2.71017
-0.394014
-0.967365
0
0
-0.659669
-0.0899484
-1.82236
-0.520564
-8.33531
-1.66813
-1.63766
-0.654934
0
-1.73466
-2.33701
-8.67789
0
-7.72219
0
-5.95021
0
-1.81934
0
-5.50628
-0.715072
-0.442789
-6.32536
-0.8734
-4.88657
0
0
-0.361008
-1.32733
-7.19428
0
-0.900141
-8.23646
-1.38102
-2.30652
0
-6.22313
0
-2.76911
0
-0.340511
0
-0.478796
-3.42489
0
0
-1.03231
-5.75355
-0.735892
-3.09068
-1.44618
-0.0910685
-2.83123
-3.76508
0
-4.40997
-2.51479
0
-2.5783
-3.797
-0.542408
-1.44235
-3.87199
-6.42844
0
-1.11238
-0.38434
-3.55427
0
-4.67066
0
-2.411
-0.251356
-3.39609
-1.15656
-2.51933
-2.48869
-6.87104
-0.422104
-2.08041
-2.38566
0
-0.437615
0
-3.28208
0
-1.92332
-3.07135
-5.32121
0
-2.91803
-1.87399
-5.53665
0
-4.78823
0
-6.70883
-0.886404
-4.69808
-0.273921
-4.27167
0
-3.02116
0
-0.228185
0
-4.09381
-0.943126
-1.68332
-0.535466
-3.61769
-1.12148
0
-1.73517
-0.0529513
-0.234284
-1.51974
-2.02714
-2.33311
-4.31144
0
-3.61303
0
0
-5.70756
-0.32677
-5.38337
-2.34781
0
-1.87745
0
-1.75653
-0.397527
0
-0.562507
-1.85707
-3.15277
0
-1.52367
0
0
-8.7561
0
-7.8276
0
-2.27383
-2.95721
-6.4501
-1.13933
-0.866294
-1.37576
-5.86316
-0.855711
0
0
0
-4.30132
-4.46632
0
0
-3.60354
-0.583869
-7.71311
0
0
0
-2.84133
-2.02505
0
0
-7.42735
-5.5966
0
0
-0.47377
-6.71312
0
0
-1.90249
-4.28017
-2.68721
-5.98851
-1.88651
0
-7.05302
-2.67652
-5.79607
-4.33032
0
-2.65699
-1.96424
-1.84766
-3.72522
0
-2.67903
-0.319231
0
-2.28412
-0.286846
-3.70773
0
-7.92301
0
-3.30216
0
-8.391
-1.34911
-3.39726
0
-0.504501
-5.3789
0
0
-0.706112
-0.521224
-2.37849
0
-1.69003
0
-0.572798
-1.1182
-1.71421
-4.25492
-8.24758
-0.550279
-7.43805
-1.14636
-6.39371
0
-2.78971
-1.28785
-4.88627
-1.47939
0
0
-0.416008
-5.05455
0
-2.42219
-2.83568
0
0
-1.2014
0
-3.20023
0
-4.83285
-0.789302
-1.35859
-1.49771
-3.30074
-4.12231
-1.07384
-1.63105
-0.354682
0
-1.26573
-1.39946
0
-3.5816
-1.04529
-3.05904
-2.23821
0
-0.501035
-4.3684
-4.66532
-0.971546
0
-6.35651
0
-1.49064
-0.26969
-4.94753
-4.92419
-0.93843
-1.82881
-1.86088
-5.47305
0
-6.15162
-0.14569
0
0
-5.49057
0
-1.01024
-0.0707556
-0.789104
-1.18387
-3.64529
-1.67961
-1.24884
0
-2.67225
-1.12769
-2.07579
-2.91512
-1.00181
-1.1732
0
-4.6859
0
-5.28798
-1.60324
0
-1.86449
-0.247495
-3.40927
-0.590248
-9.03634
0
0
-0.0500632
0
-8.76521
-5.96704
-0.282617
-2.39902
-9.7266
-0.114929
-6.47471
-0.363028
-6.91618
-5.46993
-4.19487
-2.72132
-0.200405
-3.7139
-2.71833
-3.68932
-1.55722
-2.13896
0
-0.332299
0
-3.19958
-0.0484804
-4.12967
-0.394383
-2.08167
-2.28938
0
0
-5.19577
-7.73453
-1.00551
-4.22012
-0.32455
-6.79782
0
-4.8995
-4.77957
-0.761582
-4.61176
-0.0407701
-0.104379
-6.82118
-0.957277
-8.87482
-1.20955
-3.58903
0
0
-4.30434
0
-2.16424
-0.977788
-1.91665
-1.46198
-3.81123
-0.0416564
0
-2.37602
0
-6.16561
-0.121354
-2.19096
-0.617645
-0.904832
-1.03728
0
-5.58811
-0.791362
-0.673531
-0.392722
-2.11738
-0.780395
-2.7373
-0.670883
0
-1.99636
-2.12861
-2.34203
-0.0650799
-2.85554
-0.917404
-0.310347
0
-5.51043
-0.437193
-3.56621
-0.123294
-4.69554
-5.31555
-1.25635
-0.215346
-2.46073
0
0
-1.02836
0
-3.05169
-0.388416
-0.750524
-3.35663
-5.0663
-1.49203
0
-7.34234
0
-6.79228
0
-2.6892
0
0
0
-2.60937
-5.14461
-1.68629
-8.0695
0
0
-7.9524
-3.78259
-8.39473
0
0
-1.36667
-7.47564
-1.21422
-5.18653
-0.0617303
-2.28915
-2.69324
-6.59925
-3.9806
-4.14956
0
-0.558689
-4.46771
-2.76854
-7.62247
-2.10363
-0.579622
-4.20149
0
-4.28158
-1.42436
-2.89033
-0.359046
0
0
-8.83522
-3.57025
-7.41907
-1.9172
-1.68308
-1.40826
-5.61076
-1.68533
-2.66966
-3.27631
0
0
0
0
0
0
0
0
0
0
0
0
0
0
0
0
0
0
0
0
0
0
0
0
0
0
0
0
0
0
0
0
0
0
0
0
0
0
0
0
0
0
0
0
0
0
0
0
0
0
0
0
0
0
0
0
0
0
0
0
0
0
0
0
0.0142811
-0.551241
0
-1.17475
-1.22996
0
0.0139581
-0.548147
-0.469982
-0.657658
0
-0.463275
-2.17194
-0.302987
-0.970153
-0.48752
-0.394423
-1.32117
-0.22301
-1.34832
-1.72535
0
-1.51498
-0.56505
-1.29207
-1.77874
0.0235327
-1.78231
-1.5888
-0.0762332
-0.627945
-0.600838
-0.211852
-0.5898
-0.0323472
-2.68984
-0.899266
0
-2.09068
-0.410879
-0.0134578
-0.73508
0
-0.392237
-2.11641
0
-2.0737
-1.97184
0.176869
-0.0610027
0
-0.976492
-0.794351
0
-1.649
0
-0.754945
-2.46589
0
-0.157057
-2.47403
0
-0.132737
-0.368282
-7.46934
-5.15617
-0.478283
-2.67339
-2.38013
-1.00547
-4.40027
0
0
-0.450173
0
-7.64608
-2.43005
-1.01811
-1.22717
-1.59802
-3.04499
-0.0715916
-3.50981
-0.222376
-2.38489
0
0
-6.7637
-2.29653
-1.98769
-1.20796
-4.64096
-4.09143
0
-5.89061
-1.19297
-5.0539
-1.31128
-7.23121
-1.21469
-5.14758
0
-0.847445
-1.18816
-2.43721
0
-3.00878
-0.917459
0
-2.85835
0
-4.37368
0
0
-0.925413
-2.23467
-2.98167
-0.513985
0
-1.07179
-2.29583
0
-2.91108
0
-1.31797
0
-1.79879
0
0
0
-1.28545
-1.11987
-1.95996
0
-1.11288
0
-4.96826
-0.440132
-1.07967
-0.175812
-3.04275
-10.4691
0
-1.61719
-2.29208
-3.78593
-1.56777
-0.230406
-2.417
-2.83992
-0.138727
-0.358337
0
-5.08935
-2.09265
0
-0.128551
0
-4.8748
-2.07903
0
-3.81654
-2.12259
-2.6837
0
-2.69341
-2.33602
-0.269908
-1.88014
-4.26021
0
-0.345485
-0.796346
-1.12273
-0.509298
-2.76878
-4.86044
-1.88051
-1.10261
-2.88925
0
-7.20191
-1.53289
-6.33038
0
-2.67166
-0.0995825
0
-4.4236
0
-4.24632
-1.34054
-2.78854
-0.713686
-7.61324
0
-7.3943
-0.188215
-3.74561
-3.04663
-3.88159
-3.2602
-1.62227
-8.14636
-0.0320304
-3.43138
0
-1.69228
-3.68084
0
0
-6.95292
-2.53215
-2.88157
-2.30856
0
-4.77581
0
-5.12492
-0.122196
-0.175238
0
0
-0.339073
0
-2.30557
-2.3072
-5.55225
-4.11048
-2.2364
-0.534164
0
0
-9.22802
0
-0.164402
-3.17445
-1.35465
-0.673827
-2.53729
-0.181427
-7.38216
-3.52859
-1.02819
-0.456956
-0.419232
-2.96977
0
-0.406685
-2.79616
0
-1.97467
-1.99458
-6.98247
-1.69732
-8.86996
0
-0.737728
-1.28371
-1.72548
0
0
-0.337281
-3.75979
-3.25295
-4.06785
-1.07638
-6.14286
-1.70244
-6.26365
-0.332612
-6.65184
-5.16383
-2.47582
-7.57456
0
-4.53266
-0.642567
-7.06638
-1.85457
-6.1016
0
-0.952801
-1.22942
-6.62237
-2.31965
-6.14591
-1.3617
-5.83093
-1.63018
-1.94171
0
-1.76533
-1.27221
0
-3.27711
0
0
-7.22499
-2.41698
-3.64172
-4.77727
-7.26932
-3.779
-4.17456
0
-5.2442
0
-3.25577
-0.115482
-1.7176
-7.38517
-1.69087
-7.52903
0
0
-4.37961
-3.79481
-0.967148
-5.56556
-7.27421
-1.14683
-0.32145
-2.4312
-0.490836
-0.641188
-6.7143
-1.97942
-0.974821
-1.13088
-7.08554
0
-7.97073
-6.32768
0
-0.244746
0
-3.91217
0
0
-8.04454
-0.680616
-4.24254
0
0
-4.97739
0
0
-4.50953
0
-2.392
-6.01322
-1.78196
0
-3.06674
-2.28604
0
-1.68103
-1.60589
-2.80665
-1.43059
0
-4.93078
0
-2.57115
-5.40104
-0.164331
0
-1.90521
-3.50528
-4.5504
-0.848617
-6.73841
0
-7.86566
-1.6002
-3.93441
0
-6.60121
-1.46889
0
-1.18929
-2.87592
-5.35667
-0.519154
-1.78243
-1.45069
-6.89007
-2.51635
0
-3.13713
0
-0.779454
0
-4.45897
-1.33423
-2.56688
-6.14481
0
-2.71241
-1.04712
-0.110091
0
-3.35392
-0.601601
-2.00366
-4.11063
-2.32119
-0.329784
0
-10.6646
-1.68735
-6.60549
-3.75122
-3.49321
-1.09347
-1.94796
-1.16741
-5.54317
0
-0.330901
-3.61593
0
-1.89277
-2.01187
-6.6304
0
-9.78236
-0.506775
-3.21399
0
0
-3.62439
-3.20223
-1.74964
-5.54941
-0.444306
-2.62784
0
-5.35246
-0.439743
-5.10865
-0.257874
-0.0500769
0
0
-1.56035
-4.6294
-1.91094
-4.57476
-6.92887
-1.98086
-1.80186
0
-4.69459
-1.93752
-5.62281
-0.290573
-4.02474
-1.95691
-8.40486
0
-8.44824
0
-4.10987
-5.34071
-3.64762
-0.568475
0
-7.70294
0
-2.43177
-5.81438
-4.29214
0
0
-3.4367
-1.90645
-2.77441
-1.54634
-7.95439
-5.47351
-2.76128
-6.53639
-4.36222
-10.0353
-2.97689
-6.61098
-4.82201
-0.125769
-1.04768
-0.817065
-1.75056
-1.59617
-2.31191
-2.22247
-3.04476
0
-0.0674313
-3.7615
-0.197452
0
-0.246436
0
-7.64401
0
-0.179726
-0.0780286
-0.991712
-1.17432
-1.94648
-1.45095
-5.45951
0
-9.16966
-0.17975
-0.415219
-5.76444
0
-0.700326
0
-5.69314
0
-3.23879
0
0
-3.70862
-3.78109
-4.81773
-2.81998
-1.58658
-1.51817
-3.63659
-1.10186
-3.84591
-0.892825
0
-0.488688
-4.91022
-0.440758
-4.38133
-1.87046
-2.76222
-0.764532
-8.35628
-4.364
-1.1495
-9.38854
0
-5.17185
-1.74766
-6.76051
-6.09519
-7.12815
-0.129948
-3.13261
-0.299243
0
-6.23996
0
-0.218558
-0.297436
-1.47314
0
0
-0.784469
-3.24571
0
-2.26785
-1.85305
-4.52148
0
0
-5.19692
0
-1.79483
-1.09327
-5.48102
-0.0152307
-3.24519
0
-3.46401
0
0
0
-2.51019
-0.176413
-7.36095
-1.90677
0
0
-9.7459
0
-2.69465
-4.17596
-0.657795
-2.56635
-2.13885
-1.01846
-7.73001
-3.30304
-1.53541
-5.28636
0
-5.54953
-1.70357
0
-8.30201
0
-3.07181
-2.33651
-1.43173
-0.196322
-2.20161
-6.14352
-3.15057
-6.2816
-0.200584
-6.92812
0
-6.30704
-4.73735
-6.59832
0
-1.23013
0
-1.75068
-3.0905
-1.18616
-0.503904
-0.178131
0
-6.84714
-1.5589
0
0
-5.82504
0
0
-0.307393
-0.349946
-8.01489
-0.0744909
-0.664446
-4.33796
-9.99523
-1.50005
-6.54133
-0.196881
0
-6.53021
-1.83026
-3.03966
0
0
-1.08748
-4.95813
0
0
-9.69445
-0.538919
-0.341421
-1.0568
0
-3.7535
-3.43623
-0.53164
-2.99198
0
-3.76316
0
-2.41071
0
-0.56772
-8.14767
-3.6967
-1.15232
-3.40342
0
-1.2896
-0.792167
-4.51198
-2.71506
-5.02137
-3.32077
-1.45346
-2.60906
0
-1.43233
0
0
-3.39469
-0.455988
-1.44647
-2.70211
-2.05687
-4.0441
0
-4.58953
-7.53026
-4.86263
-2.45763
0
-1.89021
-4.19518
-2.74158
-0.18775
-3.27222
0
-3.86639
0
-3.71556
0
-2.01827
0
-3.04258
-3.61998
-2.73253
-0.6396
-4.67099
-0.484031
-7.19311
-0.379229
-0.526568
0
-1.17671
0
-2.61338
-3.40768
-0.770611
-0.727245
-0.695508
-2.3577
-3.76121
-4.51874
-4.37865
-3.28321
-0.638223
-1.32701
-1.44134
-3.20191
-1.29352
-2.27062
-1.18993
-1.48182
-3.31925
-5.5773
-5.33926
-3.8718
-3.22442
-3.44232
-2.27863
-1.8976
0
-2.15416
-3.55768
-0.182747
-2.44835
-6.04973
0
0
-0.29611
-0.6707
-5.67311
-0.121118
-2.52443
-3.83273
-3.60347
-0.553078
-5.35397
0
0
-0.816576
-1.50203
-3.11266
-1.48651
-3.93235
0
0
-0.012868
-0.145983
0
-3.74823
0
0
-0.896878
-3.55372
-1.94304
0
-1.72413
0
-0.846952
-0.447061
-0.741611
-0.000598926
-1.73819
0
0
-0.221225
-4.3529
-2.57981
0
-3.2259
0
-4.99415
-4.20819
-2.71054
-4.05735
-3.92318
-0.563538
-2.29644
-1.67465
-2.56858
-2.62639
-5.55176
0
-0.103783
-4.57309
-1.12992
-2.77608
0
-3.60321
-2.48592
-2.59763
0
-0.193446
-1.451
-1.48212
-2.30434
-3.18069
-3.51198
-1.78473
-4.57674
0
-4.95177
-0.634279
-0.650699
-2.1774
0
-4.14366
0
0
-9.92872
0
-1.39502
0
-1.92528
-0.575017
-3.20029
-0.763849
-1.19199
-3.52345
-2.9523
-4.51404
-0.0252861
-5.35868
-1.07365
-2.61323
-5.87856
0
-1.41611
0
-1.37365
0
-1.50053
-7.5377
-1.67397
-3.99933
-1.61085
-0.732135
-1.34232
-5.16796
-2.53124
-3.12517
-1.23432
-1.60467
-0.0422733
-3.78071
-2.08968
0
-1.16893
0
-3.00065
-2.25754
-3.47996
0
0
-1.79706
-2.55835
-0.642052
-4.51063
-0.179896
-2.66832
-3.36389
-1.03267
-6.12102
0
-5.52924
0
-5.46421
-0.546241
-1.97402
-0.401569
0
-4.60658
-1.76361
-1.09443
0
-1.13919
-1.76673
-1.36339
-4.70513
-2.08194
-1.82013
-2.41363
-0.339913
-0.720018
-6.29698
-0.704398
-3.54482
-1.3322
0
-3.74388
0
-0.586931
-2.83986
-1.15323
-1.81221
0
-10.7263
0
-7.2405
-1.15919
0
-2.75384
-3.88871
-2.94669
-5.93249
-1.7539
-6.27865
-0.375977
-5.24003
-0.916723
-6.93532
-1.57671
-7.28489
-2.38839
-4.61365
-4.43119
-1.88139
0
0
-1.93723
0
-2.8032
-2.54617
-2.46109
0
0
-1.79878
0
0
0
0
0
0
0
0
0
0
0
0
0
0
0
0
0
0
0
0
0
0
0
0
0
0
0
0
0
0
0
0
0
0
0
0
0
0
0
0
0
0
0
0
0
0
0
0
0
0
0
0
0
0
0
0
0
0