<?xml version="1.0"?>
<VTKFile type="RectilinearGrid">
<RectilinearGrid WholeExtent="0 32 0 32 0 32" Origin="0 0 0" Spacing="1 1 1">
<Piece Extent="0 32 0 32 0 32">
<PointData>
</PointData>
<Coordinates>
<DataArray type="Float32" format="ascii">
0 0.524874 1.04975 1.57462 2.0995 2.62437 3.14924 3.67412 4.19899 4.72386 5.24874 5.77361 6.29849 6.82336 7.34823 7.87311 8.39798 8.92285 9.44773 9.9726 10.4975 11.0224 11.5472 12.0721 12.597 13.1218 13.6467 14.1716 14.6965 15.2213 15.7462 16.2711 16.796 
</DataArray>
<DataArray type="Float32" format="ascii">
-5.03879 -3.62163 -2.20447 -0.787311 0.629849 2.04701 3.46417 4.88133 6.29849 7.71565 9.1328 10.55 11.9671 13.3843 14.8014 16.2186 17.6358 19.0529 20.4701 21.8872 23.3044 24.7216 26.1387 27.5559 28.973 30.3902 31.8074 33.2245 34.6417 36.0588 37.476 38.8931 40.3103 
</DataArray>
<DataArray type="Float32" format="ascii">
0 0.524874 1.04975 1.57462 2.0995 2.62437 3.14924 3.67412 4.19899 4.72386 5.24874 5.77361 6.29849 6.82336 7.34823 7.87311 8.39798 8.92285 9.44773 9.9726 10.4975 11.0224 11.5472 12.0721 12.597 13.1218 13.6467 14.1716 14.6965 15.2213 15.7462 16.2711 16.796 
</DataArray>
</Coordinates>
<CellData>
<DataArray type="Float32" Name="Scalar" format="ascii">
0
0
0
0
0
0
0
0
0
0
0
0
0
0
0
0
0
0
0
0
0
0
0
0
0
0
0
0
0
0
0
0
0
0
0
0
0
0
0
0
0
0
0
0
0
0
0
0
0
0
0
0
0
0
0
0
0
0
0
0
0
0
0
0
0.192743
-0.659361
0
-0.150838
-0.0778364
0
0.0936494
-0.437391
0.154944
-0.470796
0
-0.19224
-0.661231
0
-0.231711
-0.766935
-0.219869
-0.216425
0
-0.44832
0.171754
0
0.05151
-0.31745
0.32957
-0.820441
0
0.0171074
-0.553563
0
0.0159303
-0.345788
-0.0834734
-1.59083
-0.110653
-1.58137
-1.10789
0
-0.792206
-0.26602
-0.189114
-1.41876
0
-0.155371
-0.534109
0
-0.10787
-0.0778384
-0.169069
0
0
-0.435912
-0.30564
-0.0231014
-0.842003
-0.586388
-0.433781
-0.801141
0
0
-2.4093
0
-0.212055
-0.760867
-1.7501
-3.63073
-4.90684
-1.13693
-2.895
0
-0.275481
-0.00633997
-4.86768
0
0
-0.620803
0
-1.49612
-0.204735
-0.917909
0
-1.46179
-0.294877
-3.12709
-5.03111
-1.25491
-3.04142
-0.248121
-1.31061
-3.1203
-1.17295
-0.685678
-4.37874
-0.0524321
0
-1.37614
0
-6.97681
0
-6.62922
-4.27802
-4.49607
-7.92275
0
-1.26984
0
-0.770318
0
-5.44887
-2.37726
-1.23906
0
-0.901467
-2.45584
-4.79748
-3.30561
-1.32196
0
-0.0684022
-4.46508
-1.98983
-2.00687
0
0
-0.970293
0
0
-2.90112
-5.21875
-0.277461
0
0
0
-3.00888
0
0
-1.19675
-10.0943
-1.73034
-3.3531
-2.15654
-4.36619
-0.894631
-4.00946
0
-5.33436
-0.391729
-2.05304
0
-2.25403
-1.13465
-5.58796
-0.511456
-5.89511
0
0
0
0
-7.58509
-3.2308
-1.80722
-4.41352
-6.8588
0
-1.95034
0
-0.0721675
-0.871992
0
-0.519574
0
-1.22989
-0.427896
0
-4.29049
-2.69595
0
-1.51665
-2.08459
0
-6.48965
-1.41198
-3.38128
-5.33667
0
0
-7.22226
-3.70894
-5.32277
-5.64153
-1.2108
0
-1.6093
-0.245485
-5.37372
-1.22433
0
0
-0.489462
0
-0.723956
-0.114321
-0.552204
-4.16711
-7.9193
-0.00551594
0
-5.77369
0
-0.960712
0
-1.35186
0
-0.825537
-3.13758
-0.0521152
-0.0147979
-3.32918
-0.0651767
-0.0452733
-0.925193
-4.48326
-1.46858
0
0
-2.52624
-0.568928
-3.71516
0
-1.54027
0
0
-1.73592
-3.82456
-0.677126
-1.43627
-2.75446
-2.10872
-3.6122
-2.70194
-0.351695
-0.602729
-0.0768088
-2.13358
-1.5244
-1.46157
0
-3.25167
-0.143636
-3.85197
-1.06326
-3.85609
-1.00315
-2.19173
-1.55063
-0.397069
-3.41547
-4.89419
-0.287629
-0.984757
-4.86825
-0.658241
-4.30503
-0.479354
-2.05882
-5.0085
-0.184625
-7.43964
-1.32273
-6.38755
0
0
-10.4216
-0.819663
-0.627864
0
-3.83331
-2.58152
-3.1215
0
-3.34347
-1.02541
0
0
-2.19321
-2.70648
-3.5158
-4.87432
0
-3.94757
-2.02983
-5.41984
0
-3.7036
0
-8.61082
0
-6.10598
-0.144579
-5.00032
0
0
-9.56507
0
-5.44953
0
-9.7838
0
-0.601129
-4.3557
-3.16548
-4.36817
-1.12228
0
-0.159128
-9.40571
0
-11.1601
0
-1.03501
0
-4.62477
0
-1.68723
-1.5576
0
-10.7354
0
0
-1.6924
-2.00031
-0.671147
0
-1.65754
-2.59116
0
-6.09342
-1.36267
-4.79366
-0.0603214
-0.897662
0
-1.22829
-0.0957254
0
-2.14039
-7.14642
-4.45176
-5.40554
-7.78399
-0.442937
-1.77177
-7.29117
-1.05069
-7.111
0
-2.83659
-2.1934
-1.68151
-5.85525
-4.18714
-0.0328499
-2.6135
-1.35549
0
-4.15048
-0.356993
-0.518354
-0.36577
-1.76197
-1.94028
-2.67071
0
-2.20032
-2.78624
-3.43399
-2.93923
0
-4.28208
0
-1.70679
0
-0.812039
0
0
-5.40348
-0.914217
-1.39267
-1.50331
-2.92518
-7.0717
-1.65486
-13.4071
-6.1007
-9.70763
0
-4.95366
-0.888124
-7.03596
-4.42997
-2.04802
0
-2.61134
-1.35889
-1.53589
-2.59485
0
-3.85033
-0.671515
-6.50053
-11.4402
-4.06751
-3.79511
-0.845417
-0.383289
-8.25154
-1.86928
-1.72404
-0.279711
-7.2394
0
-0.235254
-3.8523
-2.92976
0
-1.35945
-7.42337
-3.88173
-2.01734
-1.91989
-5.21598
-0.422041
-4.16708
-4.57114
-2.02758
-3.10206
-2.65056
-0.315793
-2.72884
-0.931588
-3.83219
-0.175285
-1.29331
0
-0.736812
-5.35763
0
-2.73984
0
0
0
-3.54824
-0.460065
0
-5.41424
0
0
0
-1.06081
-2.75029
0
0
-1.07219
-2.51567
0
-3.45352
-1.40271
-4.74163
0
-4.20245
0
-6.1611
-8.7688
-2.51312
-0.253387
-1.65796
-3.66261
-1.65683
-2.9634
-1.33453
0
-0.201449
-3.14048
0
-3.53944
0
-5.90452
0
0
-7.52592
0
-1.4984
-4.08294
-1.52438
-5.81785
-4.87203
-0.260666
0
-1.73442
-0.394798
-3.7072
0
0
-2.82927
-4.99409
-4.37204
-3.38195
-3.04902
-0.38829
-2.08134
-2.35691
-5.28264
0
0
-2.48203
0
0
0
-2.64805
-2.71613
0
-3.48616
0
-2.12021
-0.188139
-1.94166
0
-6.77668
-0.531464
-4.2723
0
-4.13455
0
-0.545412
-1.0622
-1.68595
-3.30401
-3.09556
0
-1.35401
-2.10117
-4.11639
-4.54458
-4.50893
-8.36376
0
-3.9738
-5.85993
0
0
-2.84781
-0.153762
-4.59777
-3.2043
-1.98455
-0.0684183
-1.91188
-4.56773
-0.40549
-5.10024
-3.16153
-8.68829
-0.799545
-1.96432
-1.49694
-4.76405
-0.211008
-11.0054
0
-0.869745
-4.41381
0
0
-1.74602
-7.24074
0
-5.68943
-5.15265
-0.160018
0
-1.37708
0
-2.45133
-2.60979
-5.29762
-7.02946
0
-0.657745
0
-7.18106
-0.0597776
0
-0.429273
-1.2861
-3.12269
-3.88655
-1.4121
-4.45005
-2.05011
-5.99387
-3.87491
-2.22013
-2.69086
-1.53133
-3.30039
-5.08031
-0.42166
-0.884462
-3.58563
0
0
0
-5.35332
0
-1.21652
-1.58736
0
-0.717283
0
0
-1.94375
0
-5.47173
-2.6948
-4.3658
0
-5.50959
-0.369722
-2.14656
-8.47239
-0.660683
-1.32291
-1.38776
-7.20206
0
-4.86434
-0.339442
-10.3662
0
-3.81472
-1.33373
-2.60637
-4.61369
0
-0.635834
-0.56517
-4.44225
-3.27401
-1.54007
-1.50323
-1.85142
0
-6.58904
0
-1.49822
-3.00674
-1.49927
-3.59011
-0.147574
0
-0.138176
-1.30522
-6.94251
-2.60044
-9.22195
0
-4.02371
-1.49871
-1.98251
-3.73816
-2.20006
0
-0.645164
-1.99679
0
-11.023
-2.54309
-8.81125
-5.09659
-3.20691
-0.374932
-4.28839
-4.99261
-3.95473
-0.374721
0
-4.3918
-0.689976
-2.01261
-0.0236695
-3.88182
0
-2.54792
-8.55133
-0.554742
0
0
-2.3491
-2.08953
-1.99465
-5.10447
-1.36497
-0.942489
-3.9659
-1.6588
-0.969286
-1.41217
-2.77339
-1.28861
-1.01255
-1.98679
-0.698143
-3.30847
0
-1.30274
-0.443667
-5.85305
0
-1.37748
0
-1.86279
-1.03938
-5.13337
0
-3.00993
-0.360144
-5.76926
-0.56475
0
0
-9.52042
0
-1.28501
0
-4.22902
0
-4.81722
-3.80886
-1.6649
-4.25638
-0.292729
-2.78103
-5.24433
-0.156753
-5.7064
0
0
-1.9227
0
-2.84204
-3.28366
-0.149215
0
-1.72963
-4.88748
-1.6126
0
-2.17569
-5.2603
-3.27766
-4.36281
-0.762533
-3.60376
-0.18882
-4.39581
-0.742366
-0.0500102
-4.10565
-3.14318
-0.371988
-1.57958
-6.05538
0
0
-2.12535
0
-7.2105
-0.819882
-6.28067
0
0
-3.24407
0
-5.33242
0
-1.8087
-0.884366
-0.601031
0
-7.4563
0
-0.722587
-0.10083
-3.10849
-2.39416
-9.47795
-0.687492
-3.2713
-1.28886
0
-3.92342
-1.45417
-0.277725
0
-2.57816
-0.58301
-7.05715
-0.233353
-7.96636
-0.694541
-5.97766
0
-0.485337
-1.29977
0
-8.37059
-1.65987
0
-5.13498
-0.506332
-8.51182
0
0
-6.37637
-0.941655
0
-5.68996
0
-6.71517
-1.80301
-8.43472
-1.86901
0
-1.77158
-0.210153
-0.875722
0
-2.8395
-0.482734
-5.48473
-1.69071
-0.173127
-0.755355
-2.92971
0
-0.741258
0
-0.411234
-0.665963
-4.4935
0
0
0
-1.92915
-1.52883
-4.59752
-2.68696
0
-1.27842
-0.597799
0
-7.72271
0
-1.03239
-1.93417
-5.05939
0
0
-5.32422
-0.161888
0
-6.49802
-1.71891
-3.73786
-3.68034
-2.60555
-2.93471
-1.12642
-4.86234
-1.28023
-2.7219
-0.516825
-5.43473
-2.50518
-0.076941
0
-6.26025
-2.62409
-2.23074
-4.50154
-1.08997
-6.24595
-0.175522
-0.400701
-1.61838
-2.48761
-4.06812
-1.15786
-0.608917
-3.37002
-0.371235
0
-1.60742
-4.69195
-3.80792
-0.181562
-2.24045
-3.82422
-2.7744
-0.904732
-2.44558
0
0
0
-5.728
-0.088203
-6.8734
-0.526967
-3.66603
-1.8966
0
0
-0.316109
0
-3.09746
-0.104902
0
0
-2.21468
-1.2755
-2.51914
-7.22435
0
-0.677923
-1.2778
-1.11542
0
-6.30973
-4.58075
-0.270076
-2.08939
0
-6.49841
-3.07442
-2.90583
-5.79476
0
-6.04489
-0.751627
-5.5034
-0.0733891
0
-6.51619
-2.6343
-3.41029
-0.289788
-4.71298
-0.874011
-0.589683
-3.31755
0
0
0
0
0
0
0
0
0
0
0
0
0
0
0
0
0
0
0
0
0
0
0
0
0
0
0
0
0
0
0
0
0
0
0
0
0
0
0
0
0
0
0
0
0
0
0
0
0
0
0
0
0
0
0
0
0
0
0
0
0
0
0
0
-0.880301
-1.19885
0
-1.65357
-2.19702
0
-1.50281
-0.628496
-0.893417
-1.53124
0
-0.97694
-1.22205
-0.109288
-1.40414
-0.958231
-0.388477
-1.72806
0
-0.365928
0.0134752
0
-0.48074
-0.578964
-0.0759256
-1.31118
-0.0317768
-1.42549
-1.46919
0
-1.91037
-0.414528
-0.121882
-3.9124
0
-1.35945
-3.1049
0
-0.592647
-0.846187
-2.01193
-0.910742
0
-2.0927
-0.357119
0
-1.94974
-0.110478
-0.0184459
-4.16973
0
-1.58391
-2.5674
0
-2.3751
-1.36668
-0.824805
-0.430775
0
-3.04003
-0.805828
0
-1.2021
0
-1.66592
-4.35208
-0.376336
-5.36132
-2.40494
-3.2622
-4.22251
-0.86683
-0.146495
-5.92923
-8.02737
0
-8.24433
-2.54309
-3.34135
-8.82901
-3.05911
-8.07001
-2.80791
-4.9068
-0.856262
-6.94932
-7.46644
-0.282786
-7.59356
-3.41685
-3.41082
0
-1.88568
-3.72984
0
-2.79779
-6.86077
-1.42501
-0.640191
-1.13092
-5.63747
0
-2.56422
-7.24993
-2.15407
-0.26996
-3.44969
-1.40028
0
0
-5.85774
-1.97342
-3.39233
0
-3.95893
-0.448851
-2.27625
-4.58432
-5.85467
-0.155902
-3.87146
-1.63228
-8.02996
0
-2.55472
0
-7.41258
0
0
-8.03509
-2.76884
-7.92218
-2.59372
-1.53553
-6.51841
-3.08846
-8.48009
-1.05263
0
-7.35638
-4.69673
-4.90118
0
-2.86294
-0.233041
-1.32826
0
-2.9311
-2.29917
-3.64693
-0.891316
-3.84354
-0.40098
-3.4659
-4.23039
-2.5187
-0.310753
-0.421122
-1.27142
-0.636201
0
-2.14842
-5.45241
-1.41681
-9.65972
-1.25173
-6.89523
-1.12156
-0.474773
-5.49907
0
-7.17806
0
-6.6516
-4.93067
0
-4.38435
-0.103118
-5.25383
-1.573
0
0
-2.03434
0
-6.02755
-1.01798
0
-0.813119
-2.30865
-0.370202
-1.12513
-5.95666
0
-0.294764
-0.67708
0
-5.82255
-0.557928
-6.26846
0
-6.18768
0
-6.06864
0
0
-0.707295
-7.72865
-1.01087
-5.47075
-8.18561
-0.851731
-1.91826
-1.82769
0
0
0
-7.23311
-1.02083
-0.798205
-3.56758
0
-2.17807
0
-7.51348
-0.595703
0
-0.418017
-6.64182
0
-6.9095
-0.21372
-2.94043
-2.38385
-0.140818
-5.21411
0
-3.54768
-1.63651
-0.0432253
-0.219066
0
-0.81986
0
-9.60094
0
-3.78548
0
-3.43749
0
-6.98037
0
-3.76352
-4.231
-1.00284
-1.31736
-0.92091
0
-2.0422
-5.76059
-0.533616
0
0
-6.62569
0
-5.17529
-0.0938648
-7.05723
-0.0600899
0
-1.90381
-5.48634
-1.82067
-3.9746
-0.67483
-0.834325
-2.02595
-0.857571
0
0
-5.29571
0
-2.98069
-5.12154
0
-2.61409
0
-10.2978
-0.852011
-8.64849
0
-0.440613
-3.28334
-0.379734
-2.09753
-1.62021
-2.57078
-3.32077
-4.2885
-0.0470953
-5.91649
-0.7187
-8.06663
-0.481218
0
-0.887649
0
-3.47029
-1.52624
-5.32977
0
-4.80243
0
-7.70035
0
-3.13077
-0.0597072
-0.0835434
0
-6.35581
0
-5.91084
-1.0626
-4.25342
-2.11948
-6.79962
-2.20719
0
-0.0127619
-7.065
0
-4.62278
-1.01499
-0.720667
-0.24777
-1.90588
-0.260984
0
0
-2.34054
-6.76591
-8.3586
0
-3.8264
0
-5.39389
-0.739286
-0.172706
-1.12437
0
-1.77061
0
-2.35884
-1.20528
-1.21742
0
0
-1.83165
-0.419527
-0.6487
0
-0.785776
-4.29503
-3.00702
-2.08527
-0.91001
0
0
-5.08396
-1.04602
-1.94243
-0.817503
-1.6354
-1.01986
-5.18438
0
0
-2.51921
-2.93287
0
0
-0.596918
-3.00525
-1.62634
-1.67303
-5.21442
0
-0.426614
-6.57925
-3.01066
0
-0.469079
-0.748497
0
0
0
-2.55894
0
-1.22065
-6.02886
-0.955137
-0.138124
-5.9
0
-3.21963
-0.396811
-5.47021
0
0
-0.362276
-3.68107
0
0
-2.34117
-6.06553
-2.80363
0
0
-2.33129
-4.18429
0
-2.04284
-3.86586
0
-4.89347
0
0
-3.74977
0
-3.34309
-0.125802
0
-1.3464
-3.3535
0
-5.8386
-2.48864
-0.126865
-2.50321
-3.61083
-0.920418
-0.856545
-1.84083
-1.9057
0
-1.89121
0
0
0
-1.91854
-3.53729
-2.50994
0
-3.55664
-3.70891
-0.189226
-3.22597
-2.85157
-1.00533
0
-1.56046
-1.8985
-5.65075
-0.861257
-1.11062
0
-3.95771
0
-0.517887
-1.37833
-0.834917
-0.392168
-1.6451
0
-3.96184
-2.35527
-0.361825
0
-2.94701
-4.85129
-0.510407
-8.4665
0
-6.0854
0
-6.49932
-2.41654
-5.73934
-6.69992
-4.86618
-5.06692
-2.05693
-5.51272
-1.11573
-3.77259
0
-0.269109
-6.42363
-4.26493
-2.71481
-0.0974727
0
-4.88235
-2.93112
-2.36685
0
0
0
-4.07738
-1.53027
0
-2.96813
-1.2589
-2.28048
-2.48682
-0.0237682
-0.465317
-5.44662
0
-1.49622
-0.0764086
-7.07089
-2.55108
-8.83232
-2.71307
-3.6317
-1.83889
-4.77402
-0.771883
0
0
0
-1.02677
0
-4.52867
-0.450344
0
0
-1.69249
-2.40491
0
0
-1.06358
0
0
0
0
-5.25238
0
-3.95736
0
-8.23939
0
-0.800203
-1.82549
0
-6.2053
0
0
0
-0.6825
0
-0.839658
-2.47941
-7.41644
0
-4.03459
-2.72252
-0.169546
-1.54197
-6.60037
-0.962216
-4.2189
0
-0.991161
0
-5.34758
0
0
-7.32355
-0.141967
-10.8264
-1.44704
-9.83806
-1.01117
-4.26055
0
0
-6.71913
0
0
-10.6265
-2.39385
-3.58414
-3.01864
0
-4.87896
-2.23513
-2.50486
-1.61183
-2.41457
0
-1.91295
-3.63172
-0.790415
-2.0329
-0.215372
-0.955437
-7.52444
0
0
-6.36724
0
-2.63805
-5.19323
-0.932585
0
-2.09231
-1.7904
-8.18568
-5.22071
-10.3657
0
-5.03998
-0.0230273
-0.684269
-4.61547
-0.096501
-4.96566
-2.33682
-1.57424
0
-6.02877
0
0
-3.58089
0
-1.60473
0
-4.03046
-0.653559
-9.09807
-2.77246
-0.032027
-0.36187
-3.95541
-0.24073
-1.02627
-1.57173
-4.44074
0
0
-1.94334
0
-5.77567
-0.808427
-8.40147
-1.50464
-4.21763
-1.88756
-3.68554
-1.51309
-1.31334
-1.07179
-1.30118
-3.37705
-3.49151
0
-3.08319
-2.15304
-2.75261
-2.59305
-6.96499
-0.428831
-3.94086
0
0
0
0
-0.766958
-2.35304
-0.337799
-3.70377
0
0
-7.36929
-4.76051
-3.35446
-0.0438443
-4.75772
0
-3.74548
-1.65701
-5.98524
-1.40913
-2.61768
-2.83303
-2.57069
-1.57608
-1.8351
-0.975262
-0.336427
-5.22954
0
-0.802347
-5.16046
-1.96727
-4.41477
-0.801819
-3.26523
0
-1.93038
0
-2.32346
-1.53482
-3.87719
-0.00837911
-0.359478
-2.42
-1.05443
-6.87175
-1.80072
-2.29559
-1.18925
0
-1.37631
-0.632201
0
-9.87622
-2.87514
-7.22756
-0.896838
-3.50768
-3.14782
-1.29605
-3.22149
-2.58088
-0.857779
0
-0.901624
-2.30146
-0.0982144
-3.85735
-0.61575
-4.57478
-0.866721
-6.0425
0
-2.36712
0
0
-7.80248
0
-8.10858
0
-1.55609
-4.14217
-0.349046
-1.95581
-1.04212
-1.84372
0
-3.11928
0
-5.06644
-0.418957
-7.793
-1.01251
0
0
-3.9162
0
-0.0106012
-4.30016
0
-6.03761
0
0
-1.22109
-0.591289
-6.42548
-6.65739
0
0
0
0
-4.78672
0
-2.66432
-3.28935
0
0
-10.1513
0
-6.55174
0
-0.184606
-0.566164
0
-1.02193
0
-2.75417
-0.42121
-10.8379
0
-5.34403
-7.59394
-3.17133
-1.27955
-1.30413
-3.46051
-2.87318
0
-11.481
-7.60172
-4.24663
-2.10165
-2.22348
-5.53297
0
0
-3.76328
-1.40272
-5.40002
-0.21327
-4.1349
-3.03212
-4.64577
-1.93479
0
0
-0.312368
-1.59873
-0.77118
-2.73057
0
-2.52099
-4.17218
0
-1.26402
0
0
-6.68501
-0.576477
-4.28772
-1.78422
-9.08619
0
-2.87552
-1.29544
-5.76395
-1.79681
-11.0615
-0.763507
-2.61385
0
-0.154455
-3.92861
-2.44126
-1.91917
-0.454775
-4.29759
0
-0.272534
-2.4185
-0.899846
-3.28741
-4.98163
0
-0.678498
-5.67095
-2.27467
-1.32368
-0.143635
-0.481992
0
-2.67027
-1.03953
-2.61712
-0.618238
-0.397159
-5.2463
-1.06334
-1.57518
-0.58587
-5.83384
0
-4.90175
-2.87358
-1.89213
-2.73457
-2.85462
-2.443
-3.46461
-0.0807676
-4.56852
-1.79105
-2.90805
0
-2.18415
-0.3763
0
-3.85231
-0.9207
-2.6156
0
-2.37406
0
-3.40586
0
0
-5.196
0
-4.43021
0
-3.83991
-1.24519
-0.352555
-2.41894
-4.1137
0
-0.684069
-2.35866
-5.95001
0
-1.71292
-2.90861
-1.87532
0
0
-6.89632
0
-5.08824
-2.36932
-7.59736
-2.344
-6.90514
0
-1.7001
-0.641386
-3.69632
-1.9201
-0.140555
-3.73194
0
-5.71438
0
-8.8427
0
-6.95532
-2.3234
-2.42927
-2.32076
0
-1.59254
-1.53557
-3.08997
0
-3.71366
-3.77732
-5.0613
0
0
0
0
0
0
0
0
0
0
0
0
0
0
0
0
0
0
0
0
0
0
0
0
0
0
0
0
0
0
0
0
0
0
0
0
0
0
0
0
0
0
0
0
0
0
0
0
0
0
0
0
0
0
0
0
0
0
0
0
0
0
0
0
-0.120932
-1.03312
0
-0.825764
0
0
0
0
0
-0.14205
0
0
-0.00888615
0
0
0
0
-0.0108941
0
-0.0835009
0
0
0
0
-0.0505048
-0.0883085
0
-0.0712153
-0.198576
0.00714175
-0.00625525
-0.06167
0
-0.0789554
0
-0.0319527
0
0
-0.224132
0
0
0
0
0
-0.168538
0
0
-0.0340531
-0.0108592
-0.378013
0
0
0
0
0
0
0
0
0
0
0
0
-0.0585316
-0.125259
-0.0720399
-0.038293
0
0
-1.43045
-1.90661
0
-3.2797
0
-1.26874
0
-2.23851
-1.41269
0
-7.03022
0
0
-2.13464
-0.340275
-3.50062
-3.77076
-1.96942
-0.676117
0
-1.03762
0
0
-4.826
0
-2.56386
-0.908366
-2.32505
0
0
-5.99085
0
-0.507698
-1.28159
0
-6.2804
-0.635963
-6.23533
-3.68519
-0.131964
-1.57194
-4.51766
0
-0.884297
-0.224044
-1.61492
-3.91916
-1.63905
-2.78508
0
-2.63865
-0.561782
-2.32088
-1.30004
-1.16143
-2.16737
-4.36772
-3.07787
0
-0.394841
0
0
-2.63398
0
-2.11763
0
-1.39794
0
-1.50349
-4.77611
-6.11132
0
-5.42862
0
-9.5977
-0.190943
-13.8345
0
-2.31944
0
-2.98875
-1.35836
-1.11802
-0.976513
-4.41752
0
0
0
-1.20436
-4.79599
-3.04015
-1.89745
-1.50363
-5.4377
0
-3.28173
-1.12801
-0.907393
0
-3.78457
-2.0579
-0.445823
-4.11096
0
-3.09854
0
-4.20989
-3.58509
0
-0.120823
-1.85294
-1.96001
-5.67041
-1.49804
-1.66589
-1.95933
-1.15576
-2.46815
-1.23266
-5.64851
-1.75115
-2.61124
-0.26424
-3.98874
0
-8.94015
-2.5344
0
-0.553448
-0.055274
-6.35853
0
0
0
-0.360032
-2.12126
-10.4507
0
-0.334126
-4.09232
0
-0.42747
-0.0739191
-1.73286
-6.48386
-4.00344
-6.73258
-2.41528
-0.914598
-4.94296
-0.638855
0
-0.386778
-3.87178
-7.08398
0
-7.64088
0
-5.98993
0
-3.53503
0
-6.5904
0
-7.19802
-0.246878
-5.0347
0
-2.83795
0
-0.101877
-0.850668
-3.43236
-3.2644
-0.102634
-1.12948
-0.125014
-0.485408
0
-2.2843
0
-5.09992
0
-7.17968
-4.91319
0
-3.96157
0
-6.4493
0
0
-2.97066
-2.72394
0
-1.14178
-0.859564
-0.168396
0
0
-6.0691
-1.12675
-1.4386
-2.9807
-0.990735
-5.19082
-1.36393
-6.81752
-0.0629678
-0.806382
-5.48743
-1.84012
-3.5468
0
-0.704731
-4.67497
-1.94814
-3.74588
-5.45523
-1.05173
0
0
-0.692935
0
-1.42275
-3.694
-1.26262
0
-2.70725
-0.239111
-0.907109
-0.656499
-1.94405
-5.89944
-1.86637
-3.23802
-1.04995
-1.75561
-5.5634
-3.05306
-0.738928
-4.7019
-2.8192
-1.19428
-0.992819
0
0
-3.67388
-0.423955
-2.65082
-1.66233
0
0
0
-5.41679
-0.0666792
-1.09561
-3.65014
0
-3.33657
-0.798241
0
-2.83253
-0.760006
-0.694367
-4.78343
-4.25555
-1.14175
-3.95862
-1.02849
-3.04163
-4.24116
0
0
-7.22811
0
-1.7058
-2.60811
-0.267343
-0.200149
-0.0668799
-0.000961691
-3.69694
0
-1.60945
-4.65441
0
-3.30649
0
-0.159394
-3.44272
-1.20855
-2.90566
-1.13909
-1.33653
-1.04977
-0.169511
-2.90097
-3.39144
-0.143938
0
-0.979058
-4.33879
-0.77739
-4.42309
0
-0.0933603
-5.98199
-1.7836
0
0
-9.9793
-0.577154
-2.37754
0
-1.60183
0
0
-8.10939
0
-1.25148
-1.06791
-6.06113
-0.925459
-3.91745
-2.3265
-3.5399
-4.88675
-9.52148
0
-5.19105
-0.0267173
-7.20612
0
-1.55676
0
-3.72274
-0.612961
-1.47491
-6.05194
-6.74619
0
-3.34831
-0.234409
-0.996973
-5.55866
0
-5.59867
0
-1.22316
-3.86647
-3.23421
-2.81166
0
-0.128301
-1.94144
-0.0251886
-4.17144
-2.41808
-4.31651
-0.706096
-5.01165
-2.47221
-6.78844
-2.34276
-2.08581
-3.96942
-2.84495
0
-6.81442
-0.341838
0
-4.5793
-1.66678
-3.17922
-3.18267
0
-1.52549
-2.25764
-1.29603
-3.09129
-7.67156
0
-1.38283
0
-3.73571
-1.68012
-1.66153
0
-0.711591
-0.469331
0
-1.73116
-4.87945
-2.23429
0
-6.40434
-0.938868
-0.908326
-6.50277
-2.59283
-1.64668
0
-7.06695
0
0
0
-3.9371
-2.99295
-8.76321
-0.285277
-0.70787
-0.245159
-1.55632
-7.34686
-1.2607
-7.33796
-0.624625
-2.23437
-0.407249
-4.61415
-2.68094
-3.7179
-4.15782
-3.44693
-3.13567
-3.44614
-3.50914
-5.80064
0
0
0
-1.2977
0
-6.90983
0
-2.16274
-2.57979
-1.39097
-0.559172
-3.42534
-1.24061
-3.91363
0
-1.27929
-0.105128
-1.76141
-0.687027
-7.08194
-0.259053
-6.24265
-3.11253
-3.63021
-1.42355
0
0
-0.0331422
-6.41127
0
-4.55228
-0.239892
-9.42133
0
-7.07084
0
-8.16037
0
0
-6.21057
0
-4.67072
-0.480695
-0.952646
-6.35704
-0.744537
-4.53131
0
0
-4.09901
-1.76468
-3.57689
-0.488821
-1.25024
0
-1.41882
-6.10022
-1.42863
-7.83072
-0.92832
-5.12073
-7.42542
0
-4.95903
0
-7.14403
-4.34803
-2.82665
-2.70128
-2.42028
-0.280592
-3.432
-1.58548
-1.05049
-1.44681
-1.51173
0
-3.42869
0
-3.13452
0
-2.52592
-1.83737
-1.4679
-2.41576
-1.86595
-5.02268
-1.4162
-4.04869
-3.40337
-3.83152
0
-0.829853
-0.801431
-1.65913
-0.0258847
-4.88603
0
-2.37582
-8.18859
0
-4.88059
0
-3.87898
-3.6062
-2.96944
-0.42822
-1.20311
-6.24272
-6.78417
0
0
-6.77751
-0.568275
-2.1609
0
-4.07805
-0.611257
-5.01842
-5.82405
-7.92035
0
0
0
-0.519837
-4.99224
-1.65204
0
-6.75941
0
-2.74188
-0.27572
-0.522404
-5.6213
0
-1.1408
-0.394297
-4.58473
-2.14831
0
-5.72911
0
-2.29397
0
0
-5.40126
-1.79636
-2.89134
-1.25852
-6.99669
-2.90016
-0.757213
0
-4.45687
0
-2.52624
0
-1.62632
0
0
-3.55612
-1.53802
-1.22284
0
0
0
-0.919468
-5.48299
-2.75092
-4.04
-5.94106
-0.801167
-1.30437
-0.232452
-1.47484
-1.63227
-3.2138
-1.98767
-5.77612
-3.22696
-6.25959
-2.47289
-7.66308
-2.89782
0
-0.785805
-1.40906
-7.77272
-0.383186
-4.89327
-4.30446
-2.15718
-0.79674
-3.14776
-0.0169901
0
-6.78833
-1.65084
-3.97662
0
0
0
-3.03461
-2.70035
-0.222395
-4.0802
0
-5.9951
-2.12933
-2.63013
-2.80878
0
-5.69347
-0.333366
-1.54921
0
-3.78828
-2.01626
-1.82441
-0.741941
-1.12161
-2.51979
-0.572965
0
-0.0418268
-6.41979
-0.0681911
-3.22785
0
-3.70868
-0.967143
-0.00407242
-1.49933
-2.64681
-2.72474
-3.4341
-0.425394
-1.02673
0
0
-6.5707
-2.60148
-6.71961
-2.65953
-0.575844
-1.42042
0
-0.282315
-1.98253
0
-0.183866
0
-2.8606
-0.131206
0
-0.0362248
-0.118034
-1.16162
-4.35254
-3.60133
-1.80238
-5.99106
-0.429694
-3.71399
0
-2.62448
-1.12954
-2.751
-0.396053
0
-3.41598
-1.28123
-8.6476
-0.0840089
-1.80265
-0.316981
0
-0.0570652
-1.60503
-2.4319
-7.79987
-0.640557
-3.48493
0
-0.868116
-1.44706
-5.27077
-2.27292
-4.28348
-0.919601
-1.9102
-6.20232
0
-1.85553
-6.67051
-0.05158
0
-3.61775
-4.9564
-5.79063
-2.39355
-4.72416
-3.57699
-1.63629
-5.34026
0
0
-6.33442
-0.628633
-0.477944
0
-1.59849
-1.87894
-1.47438
-3.79272
0
0
-1.1419
-0.398201
-8.02033
-0.0515602
-3.59624
-0.535598
-6.98901
-1.68872
-0.529553
-0.994569
-0.262192
0
-0.0641144
0
0
-6.17427
0
-8.01154
-0.036704
-1.52518
-2.75414
-3.28182
-0.875476
-2.77502
-3.93987
-1.94252
-5.01999
0
-5.88902
0
-1.67169
-1.86071
-0.0994927
-4.51833
0
-1.14698
0
-2.15512
0
0
-6.59499
-0.762678
-4.54111
-1.89422
-2.59765
0
-1.14799
-1.20347
-4.36701
0
-2.74964
-4.88378
-0.519103
-2.14176
-6.87888
-1.22724
0
-2.15353
-2.08588
-4.66794
-1.90633
-3.55117
-1.41423
-5.25934
-0.106249
-6.20587
0
-4.47527
0
-1.98677
-1.24921
-0.910383
-1.14392
-0.669748
-0.82203
-5.62139
0
-4.16106
-5.7042
-2.55849
0
-7.74699
-0.280148
-2.44622
-2.46005
-2.66766
-2.27414
-5.5993
-2.50672
-1.2084
-2.84799
-2.24222
-3.93981
-0.352138
-0.498319
-3.31186
-0.0426928
-2.80298
0
-0.453427
-0.0158472
-2.12068
-7.32456
-2.4646
-1.87018
0
0
-6.78525
-0.408046
0
-4.94482
-0.100177
-4.74318
-0.046573
-2.97188
-4.17405
-3.08896
-4.60961
0
-3.20493
0
0
-3.64956
-7.87281
-0.117461
-2.55244
-1.45243
-0.914344
-5.18862
-2.93606
-0.652082
-3.44548
-2.69802
-6.32831
-2.2407
-1.17214
-1.84838
-1.67824
-2.22381
-1.07452
-3.67035
-0.885924
-3.58842
-8.76381
-1.08555
-5.15636
-2.78785
0
0
0
0
0
0
0
0
0
0
0
0
0
0
0
0
0
0
0
0
0
0
0
0
0
0
0
0
0
0
0
0
0
0
0
0
0
0
0
0
0
0
0
0
0
0
0
0
0
0
0
0
0
0
0
0
0
0
0
0
0
0
0
0
0.475813
-1.00478
0
-1.50911
-1.18324
-0.423236
-1.71784
-0.94333
-1.5855
-0.970648
0
-1.5882
-2.08397
0
-2.20075
-0.693806
-0.408295
-1.6238
0.0516829
-1.94085
-1.26472
0
-0.892102
-0.572636
-0.565134
-1.29011
-0.175725
-0.684213
-1.09857
0.021017
-1.23326
-1.42548
-1.77752
-0.745008
0
-1.43074
-1.21033
-1.58592
-3.88873
0
-0.480529
-1.75039
0
0
-3.1139
0
-1.01549
-1.64614
-0.727996
-1.20709
-0.0489406
-4.33062
-0.583969
0
-1.28046
-0.0766319
-0.183039
-2.78797
0
-0.298746
-2.33457
0
-1.01385
-1.29315
-0.415585
-4.45923
-5.67849
-0.295563
-2.79507
-3.0778
-1.15343
-3.60195
-3.08575
-5.4288
-0.69012
-1.94622
-6.06252
0
-3.18143
-1.93038
-6.17072
-5.18972
-2.5303
-0.207748
-0.150714
-1.06708
-2.25314
-0.533703
-4.05914
-6.17743
0
-2.43355
0
-3.12107
-2.03728
-2.06956
-4.80483
-1.04364
-3.17056
0
-6.67576
-4.04358
-3.18922
-0.684754
-2.04776
-2.17647
-3.04135
-10.4894
0
0
-1.84496
-2.54675
-2.17969
0
0
-0.552784
-2.36778
-3.4627
-2.75331
-1.24872
-3.36365
-1.24141
-2.18155
-9.96058
-0.763219
-1.98434
-2.73838
-1.58833
-2.9446
-0.228907
-2.89907
0
-5.16246
0
-6.86389
-4.05343
-7.14638
0
0
-5.73992
0
-2.45009
0
-2.58142
0
0
-2.87637
0
-4.34904
0
-4.52683
-3.11073
-1.59186
-0.800544
-2.82243
-0.191115
-3.64657
-0.254421
-0.0290004
-0.384624
-1.24372
0
-1.53023
-1.90505
-1.49544
-5.21132
-2.16677
-2.26847
-0.391439
-6.28168
0
-4.40733
-4.78734
-1.51894
-3.80672
-2.97925
-0.892633
-4.57494
-3.00097
0
0
-2.23139
-1.34834
-0.832599
-0.524708
-2.50538
-1.37611
-0.0840273
-0.396809
-1.92588
-0.860825
-4.28846
0
0
-2.37279
-8.12449
-8.19291
-3.88849
-1.52624
-4.37988
-1.69926
-5.76761
-2.08205
-3.30136
0
-6.64546
-0.643267
-9.73895
0
-8.10951
0
-7.20647
0
0
-0.819772
-1.28967
-4.14246
-0.816215
-5.00886
-5.21502
-7.20967
-1.54298
0
-5.92533
-0.48663
0
-0.535433
0
-2.97379
0
-0.763912
-4.37907
-3.02676
-2.84243
0
-0.848771
-7.11405
0
-8.48472
0
-4.36999
-3.10832
-0.0709077
-7.69833
-1.51446
-3.60731
0
-1.06085
-2.93787
-1.91539
-2.65188
0
-5.45518
0
-1.85687
0
-0.927934
-7.5848
-1.66966
-3.94377
0
-1.69714
0
-4.67283
-0.292071
-4.26312
-3.55721
0
0
-4.60199
-0.330949
-2.0945
-2.60232
-0.404487
-0.114933
0
0
0
-2.63118
-2.73351
-1.08293
-5.973
0
-2.32149
-2.74948
-1.46503
-0.567313
0
0
-3.10639
-2.50716
-0.690312
0
-5.20004
-2.92351
-7.86504
-4.06738
-0.0778516
-4.9238
-1.0125
-2.91623
0
0
0
-0.468863
0
-4.1087
-1.41034
-0.323434
-3.4594
-3.34811
0
-8.89745
0
-0.493907
-1.91693
0
-4.53352
-0.0455478
-8.21135
0
-1.61273
-3.04284
-4.9816
-3.95735
-3.51779
0
-0.309903
0
-5.08549
0
0
0
-5.26064
-0.76204
-0.108746
-1.49464
0
0
-4.34006
-1.67745
0
0
-3.67973
0
-1.75007
-1.46019
-6.8816
0
-0.688185
0
-2.3856
-1.91084
-7.19903
-0.156893
0
-1.84137
-1.41404
0
0
-2.40928
-0.499642
-8.23958
-2.41815
-3.21879
-3.53294
-0.048703
-5.36264
-5.91953
-1.44516
-6.26857
-1.40961
-4.23281
-2.60297
0
0
-6.98367
-0.569769
0
-0.679511
0
-2.35948
-2.82754
0
-3.98818
-0.679368
-0.634036
-7.84553
-0.17255
-10.1214
0
-8.19624
-0.21539
-0.111414
-0.0956934
-0.298542
-8.46128
0
-3.88706
-0.462088
-7.29234
0
-0.587539
-0.0863627
-4.82418
-4.0432
0
-0.957062
-3.32617
-0.363578
-4.36825
0
-3.84719
-5.22215
-1.92287
-3.09302
0
-6.48518
-0.130483
0
-7.09769
0
-7.58663
-1.14903
-8.98313
-0.296512
-2.89688
-1.1045
0
0
0
-5.27272
0
-1.64716
-3.01547
-3.55315
-3.29824
0
0
-1.32837
-1.35136
-2.19807
-1.84896
-1.91877
-4.31597
-4.30835
0
-1.3409
-2.09249
-3.88902
-2.60754
-6.40261
0
-3.86846
0
-5.59386
-0.75302
-6.75141
-0.947974
-5.71685
-1.06312
-7.05718
0
0
-8.89323
-2.71725
-0.067282
-1.63772
-4.45246
-1.40427
-5.40964
-1.93828
-4.17568
-3.17085
-3.44078
-1.66019
-0.00401164
-0.814984
-5.04763
-0.175528
-1.27723
0
0
0
0
0
-6.96208
0
-1.80702
-2.62238
-0.954538
0
0
-6.74707
-1.23444
-0.593121
0
-7.99818
-1.07156
-10.2478
0
-0.852515
-0.217041
-5.59598
-3.46673
-1.82751
-2.94403
-0.113968
0
-0.490845
-3.84342
-4.68627
-8.01125
-0.140209
-2.5569
0
-2.3639
-1.7474
-1.01994
-1.45821
-1.77408
-3.28539
-1.44169
-3.98172
-0.286217
-3.2614
0
-6.66015
-1.57541
-2.43124
-0.497375
-1.6485
0
-9.03808
-0.949529
0
-3.44219
-2.43162
-3.69435
-1.1955
0
-3.60276
-4.00688
-6.54212
-5.06991
-6.3212
-0.957598
-1.26228
-5.80887
-0.108615
-3.58466
-1.66988
0
-3.93502
-1.48408
-9.78999
-0.36398
0
0
0
-0.307321
-2.39505
0
-6.12996
-3.51877
-2.4328
-1.57787
-4.03015
0
-0.150189
-6.46133
0
-4.52304
0
-4.1526
-3.17351
-2.13377
-3.121
0
-0.999767
-0.294736
0
0
-3.03307
-1.5297
-1.32774
0
-4.11082
0
-7.3677
-0.0839525
-5.15195
0
-6.79943
0
-2.07777
0
-1.79033
-0.00307727
-0.113685
-4.28518
-2.48095
-3.94483
-4.26056
-0.690145
-2.41905
-4.00988
-6.66555
-1.9134
0
-2.13403
-7.6122
-0.491127
-5.36749
-0.170131
-1.5945
-0.161445
-1.5805
-6.79277
-4.3145
-1.01627
-2.34195
-1.52559
-1.60953
-3.83872
-0.304392
-3.04521
-1.95432
0
-2.14362
-3.54831
-3.48544
-0.175617
-4.00571
-1.67996
-5.30083
-4.6983
-2.2619
-4.16639
0
-0.414982
0
-0.665181
-3.38588
-0.876863
-1.85228
-1.97967
-5.1017
0
-2.61163
0
-1.78205
-1.22135
-3.62423
0
-6.8746
0
-1.73157
-1.60716
-2.76113
-3.03322
-1.94794
-1.01182
0
-0.591436
-4.02572
-2.95345
-2.68321
-2.37456
-2.88309
0
-2.62214
-2.93943
-2.30389
-2.02688
-0.413441
0
-1.04656
-0.59379
-2.31562
-8.03969
-3.07063
-1.17787
-1.16766
-0.0765431
-1.53042
0
-1.96728
-2.28597
-3.09994
-1.93991
-2.02395
-1.41549
0
-3.03462
-4.03077
-2.60894
-3.6435
-0.0565997
0
-3.24141
-2.00813
0
0
-6.84373
0
-0.888733
-7.60925
-1.71446
-7.91357
-0.474753
-4.44329
-0.592427
-5.27585
-0.307636
-1.05994
-1.79293
-1.74992
-6.75274
-4.16326
-1.74828
-1.70051
0
-5.76262
-1.52891
-2.83522
-2.90898
-6.2335
-0.407429
-3.09469
-4.42041
-4.26753
-6.40815
-5.91911
-6.46686
-0.722767
0
0
-3.55713
-4.94135
-2.4212
0
-5.66173
-2.45992
-2.57795
-0.0640804
-6.50509
-0.0774165
-2.28753
0
-7.4416
-0.47186
-3.16208
0
-4.20283
-0.807061
-4.76527
0
-1.03421
-1.43233
-7.37505
0
0
0
0
-2.15881
-3.51359
-5.6253
0
-3.20278
-3.26861
0
-6.215
-6.85179
-2.09165
-6.07356
0
0
-7.7505
-1.18168
-3.37308
-2.96172
-1.67848
-3.2504
-0.730282
0
0
-2.5887
-1.144
-3.04393
-0.733483
-6.2564
-6.29762
0
-0.98481
0
0
-3.23136
-1.56362
0
-2.83534
-2.01324
-0.530299
-0.362624
-0.97096
-1.30899
-3.1569
0
-1.39909
0
-4.12467
-3.97491
-5.76368
-4.32424
-2.01491
-3.07842
-1.55811
-4.15844
-1.62726
0
-0.936993
-4.01988
-4.40912
0
0
-2.90001
0
-2.11902
-3.27009
-2.70554
-4.06059
-0.951827
-1.35943
-6.5408
-2.97578
-4.65312
0
0
0
-0.712887
-11.3461
-0.671734
-8.02773
0
-2.96568
-0.882671
-0.364916
-1.82846
-5.14982
-1.01498
-3.38342
-1.2175
-2.47528
0
-1.05369
-4.12553
-7.51803
-5.39878
0
-3.52121
0
0
-1.37666
-4.64149
0
-0.936813
-2.521
0
-4.39903
-1.79046
-5.26984
-3.66163
0
-2.97315
-1.46634
-0.363419
0
-1.14518
0
0
0
-5.91914
-2.38477
-5.62212
-0.968849
-4.10764
-6.83836
-0.30552
-1.12512
-1.46301
-4.32371
-0.121885
-6.49279
-10.285
-1.0747
-2.20675
0
-6.55258
0
0
0
0
-2.36721
-0.152016
-0.976147
-1.18571
-4.2659
-2.26635
-0.735075
-3.48393
-4.55942
0
-4.09184
-2.00205
-2.47127
0
0
-0.0955557
-1.04296
-0.943753
0
0
-5.61767
-1.11765
-3.70218
0
-0.190242
-9.84884
0
-1.41733
-4.65473
-1.98611
-3.16523
-6.52459
-3.02878
-0.262546
0
-3.50304