<?xml version="1.0"?>
<VTKFile type="RectilinearGrid">
<RectilinearGrid WholeExtent="0 32 0 32 0 32" Origin="0 0 0" Spacing="1 1 1">
<Piece Extent="0 32 0 32 0 32">
<PointData>
</PointData>
<Coordinates>
<DataArray type="Float32" format="ascii">
0 0.524874 1.04975 1.57462 2.0995 2.62437 3.14924 3.67412 4.19899 4.72386 5.24874 5.77361 6.29849 6.82336 7.34823 7.87311 8.39798 8.92285 9.44773 9.9726 10.4975 11.0224 11.5472 12.0721 12.597 13.1218 13.6467 14.1716 14.6965 15.2213 15.7462 16.2711 16.796 
</DataArray>
<DataArray type="Float32" format="ascii">
-5.03879 -3.62163 -2.20447 -0.787311 0.629849 2.04701 3.46417 4.88133 6.29849 7.71565 9.1328 10.55 11.9671 13.3843 14.8014 16.2186 17.6358 19.0529 20.4701 21.8872 23.3044 24.7216 26.1387 27.5559 28.973 30.3902 31.8074 33.2245 34.6417 36.0588 37.476 38.8931 40.3103 
</DataArray>
<DataArray type="Float32" format="ascii">
0 0.524874 1.04975 1.57462 2.0995 2.62437 3.14924 3.67412 4.19899 4.72386 5.24874 5.77361 6.29849 6.82336 7.34823 7.87311 8.39798 8.92285 9.44773 9.9726 10.4975 11.0224 11.5472 12.0721 12.597 13.1218 13.6467 14.1716 14.6965 15.2213 15.7462 16.2711 16.796 
</DataArray>
</Coordinates>
<CellData>
<DataArray type="Float32" Name="Scalar" format="ascii">
0
0
0
0
0
0
0
0
0
0
0
0
0
0
0
0
0
0
0
0
0
0
0
0
0
0
0
0
0
0
0
0
0
0
0
0
0
0
0
0
0
0
0
0
0
0
0
0
0
0
0
0
0
0
0
0
0
0
0
0
0
0
0
0
-0.160079
0.283445
0
-0.994835
-0.144576
0
0.114138
-0.176103
0.0454563
-0.337791
0
0.0798455
-1.12211
-0.123334
0.239635
-0.291115
-0.483915
-0.31822
0.00325955
-0.36086
-0.548938
0
-1.00424
-0.353941
0.200835
-0.653369
-0.0261867
-0.582103
-0.715608
0
-0.516368
-0.207711
-0.99603
-0.739845
0
-0.5956
0
0
-1.18111
-0.541468
0
-1.13544
0
-0.196369
-0.192267
0
-0.11554
-0.61898
-0.508055
-0.158597
0
-1.72287
-0.450436
0
-0.861809
-0.112799
0
-0.4472
0
-0.385056
-1.99966
-0.312502
-0.243636
-1.04997
-2.29612
-3.76548
-0.848376
-0.589023
-0.787049
0
-2.43485
-1.46885
-1.01255
0
-2.18893
-2.28629
0
0
-2.92065
-3.05175
-2.5495
-6.15482
-0.813824
-1.14051
-1.97948
-0.0400717
-1.45705
-1.54557
-3.58502
-1.00327
-2.67744
-6.43166
-0.458278
-0.808672
-3.63118
-3.54009
0
0
-4.65177
-0.295423
-4.93762
0
-1.28925
0
-3.70258
-3.17114
0
-5.90542
-1.12109
-4.10297
-2.77947
-3.48364
-4.12546
-0.492844
-0.343479
-3.05949
0
0
0
-0.844456
-3.25386
-0.134541
-0.876982
-0.0150335
-1.29469
-3.81544
-0.626809
0
-4.10325
-2.61971
0
0
0
-0.715913
0
-0.59122
0
-5.71381
0
-0.180315
-3.7302
-1.91845
-5.27529
-1.8002
-1.6661
-1.46888
-3.41761
-0.352749
0
-6.01845
0
-7.64614
0
-4.35281
-0.439075
-0.578472
-1.57634
0
-5.38825
-2.2866
-2.80443
-4.97736
-0.123747
0
-2.21198
-1.23098
-3.87037
-1.30373
0
0
-1.06267
0
-0.168351
-3.45894
-4.10351
-0.468695
-0.738451
-2.05651
-0.147884
-0.195219
-3.93016
-0.433719
-1.41337
-2.81881
0
-0.132142
-10.9193
-1.43338
-8.09144
0
0
-5.26583
0
-6.3086
0
-5.44428
0
0
0
-4.51934
-1.09909
-1.92644
-3.48984
0
-1.01032
0
-2.6179
-1.61421
-0.51884
-3.78092
-0.0994732
-0.404728
-0.212372
-0.893889
-1.16674
-4.69883
0
-6.85923
-1.44222
-3.63244
-0.336257
-8.65143
-1.17014
-5.0603
-4.96068
-2.05174
-3.57305
-1.18957
-0.993915
-5.23015
-5.38739
-3.7106
-0.586266
-2.59061
0
-3.43881
0
-2.89786
-0.857767
-3.98165
-1.3782
-1.88108
0
-13.7531
0
-5.89047
-0.966682
-2.3432
-1.6309
0
-0.461433
-4.35866
-0.988311
-0.353579
-0.0998502
-4.13728
-9.43949
0
-4.50147
-2.13714
-0.505317
-3.80278
0
0
0
-7.7184
0
-4.56568
-0.83055
-8.14506
-1.51987
-0.207776
-9.37965
-5.74261
-5.27732
0
-1.82273
-1.23054
-3.76909
-3.78714
0
-1.80554
-0.177383
-0.0235847
-6.30254
-1.56064
-9.69031
-5.38245
-1.76834
-8.899
0
0
-2.31687
-1.07452
-3.30974
-2.5543
-0.527474
-1.95642
-2.57388
-2.0059
0
0
-0.995833
-1.07174
-1.41669
-1.12223
-1.68315
-0.54344
-4.48446
0
-0.307696
-3.75866
0
0
-0.628366
-5.43787
-1.75998
-10.6297
-0.959615
0
-0.199403
0
-2.21813
-3.23937
-0.711419
-1.41148
-3.08283
-2.56071
-4.80116
-1.70212
-6.24949
0
0
-3.58424
0
-0.668355
-2.71579
-0.343107
-1.54361
0
-3.71525
0
-2.39063
-0.15646
0
-9.98193
-0.994724
-5.46198
-2.75979
0
-3.88813
-1.94553
-4.16251
-4.51636
-0.228407
0
-5.25022
-1.30445
-1.68015
-5.46473
-2.55677
-0.722163
-0.0933392
-2.69265
-0.870824
-1.99129
0
-1.65753
0
-6.82773
0
0
0
0
0
-1.90697
0
-1.19176
-0.738786
-5.95031
-3.80924
-2.87741
0
0
-0.480054
-4.49131
-3.40035
-3.73286
0
-1.39338
0
-2.85542
-1.18972
-2.70625
-3.37001
0
0
0
-0.203747
-5.33968
0
-4.89945
-1.14713
0
-4.47884
-10.8369
0
-4.77231
-2.05136
-1.17735
-5.42731
0
-3.34781
-1.79901
-2.76694
-8.78235
-4.46322
0
-3.41784
0
0
-9.86931
0
-2.77782
0
-3.86554
-4.05975
-0.522864
-3.1911
0
-0.346594
-1.56814
-2.46058
-2.02223
-1.47239
-3.23995
-3.47851
0
0
-0.302688
-0.0376383
-1.13394
0
0
0
-5.56247
-0.563693
-0.22802
0
-0.720709
-2.2244
-14.1294
0
-7.01349
-1.63835
-1.92988
0
0
0
-2.32339
0
-0.309533
-4.84948
-1.30182
-0.203854
-0.825632
-0.31653
-1.83267
0
-0.807132
0
-3.3151
-1.38358
-6.86188
0
-3.77133
-3.79982
-5.30712
-4.55948
0
-1.52071
-0.738279
-3.69485
-0.12287
-5.86504
-4.9476
-1.36989
-2.87869
-0.468666
-1.5939
0
-1.53354
-0.689692
0
-1.56004
-2.32233
-1.92418
0
-2.57096
0
-7.842
0
-0.124511
-1.09212
-5.04547
-1.42449
-0.978192
0
-0.914566
-4.98214
-0.419924
-0.389774
-1.70955
0
-2.13843
-2.85687
-1.3319
-0.741168
0
-0.825318
-0.136158
-3.8185
-0.725492
-1.56787
-1.81255
-3.81226
-1.62542
-4.24494
0
-0.600576
0
-10.3358
0
0
-0.315956
0
-7.83969
0
-7.26152
-1.21281
-0.52634
-3.38381
-2.24983
-2.26957
-3.88023
-3.4533
-3.80872
-0.468053
-0.582337
-0.914667
-0.124432
-0.840669
-0.16942
-2.44555
-1.67297
-1.3373
-5.21165
-7.90425
-0.256006
-7.66911
-1.37333
-2.28022
-3.59217
-2.63847
-0.000609864
-0.0487016
0
-0.368365
-0.21044
0
0
-0.246484
-1.8141
-3.59298
-5.21356
0
-6.47528
0
-5.12487
-1.45274
-3.29193
-2.08032
-2.2251
-1.16898
-4.06016
-1.00385
-6.21266
0
0
-4.96411
0
-1.72446
0
0
-4.87356
0
-1.89986
-3.28222
-0.575886
-1.34698
-2.74709
-0.0574736
-1.1944
-0.0936609
0
0
-5.22738
-2.85681
-0.571327
-2.92828
0
0
-6.96366
0
-6.89487
0
0
-2.19134
-1.64057
0
0
-1.71388
-5.07921
0
-8.55611
-0.92721
-1.1182
-0.640725
-1.35411
-1.64462
-1.03781
0
0
-2.77913
-0.250531
-3.81273
-4.78224
-3.30595
0
-2.45549
-1.27213
-3.29906
-4.5596
-1.47817
-0.602569
0
-3.0589
-7.17414
0
-4.50583
-1.84378
-2.46899
-2.72503
0
0
-5.26504
-1.4393
-4.49934
0
-3.94802
-0.963942
-2.44778
-7.14566
-4.96011
-3.0968
0
-5.75661
0
0
-3.25218
-1.38686
-3.8068
-2.85576
-1.68213
-1.55353
-0.575504
-0.472912
-5.27953
-0.44596
-3.77398
-3.74131
-5.01965
-0.205526
-4.44607
-4.25364
0
-0.70466
-0.388464
0
-4.27872
-4.06102
-0.626251
-3.01014
-1.95845
-0.314902
-0.226746
-2.36789
-2.69743
-1.47284
-3.58677
-1.00458
-0.140837
-1.30039
-2.59302
-1.75868
0
-1.27178
-4.45803
0
-3.24194
-0.934515
-0.245682
-1.00682
-2.56012
-1.23078
-2.94495
-0.564687
-3.68135
0
0
-6.42212
-2.26767
0
0
-3.5896
0
0
-2.13799
-3.53381
0
-3.71373
0
-1.37211
-0.100388
-1.01428
0
-2.0829
-2.2291
-0.94648
-6.5704
0
-4.12421
-0.534175
-3.26412
-2.44873
0
-1.50516
-0.485502
-5.81376
-0.510929
-2.45076
-2.6992
-0.947129
-1.91603
0
-0.893598
-0.661528
-2.04371
-7.58574
-1.5565
-2.2806
-4.85347
-4.24231
-2.61843
-2.44042
0
-5.47257
-0.746436
-1.70398
-0.143245
-2.41532
-1.04594
-1.19737
-0.262168
-3.07616
-0.670802
-2.84185
-2.1036
-8.12258
0
-4.05584
-4.50505
0
-5.93188
0
-8.43958
-0.646367
-6.43272
-3.15679
-4.04758
-0.746952
0
0
0
0
-6.11763
-3.58593
-0.149146
-1.77836
0
-5.85896
-2.01755
-0.178809
-0.261128
0
-5.41549
-1.41806
0
-1.1023
-2.54664
-4.66738
-0.315603
-0.193484
0
0
-4.33094
0
-1.27627
-6.1987
-4.79738
-1.67972
0
-2.38908
-3.58918
-3.51328
0
-3.58834
0
0
-4.70777
-2.87728
-0.354359
0
-0.719183
0
-4.37275
0
-0.0891415
0
-4.22189
-1.37975
0
-4.23844
0
-1.37802
-6.91363
0
-4.93232
0
-3.08495
-3.93114
-0.263669
-0.511334
-5.80923
-1.45777
-1.78702
-2.3366
0
-11.949
0
0
-2.95574
-3.522
0
0
-5.76483
0
-3.52946
-3.20941
-6.05569
0
-0.971908
0
-7.20143
-1.85819
-12.8104
0
0
-6.98546
-2.79913
-4.09591
-2.69912
-7.25019
-4.06179
-0.854683
-0.392513
-1.55691
-0.52469
-3.87426
0
-3.74123
-0.56914
0
-5.84462
-0.0836085
-4.26023
-0.79733
-4.02691
0
-4.98616
-0.385368
0
-0.0911179
0
0
-1.23067
-0.483746
-1.66254
-1.77029
-2.31635
-4.59315
0
-0.754608
0
-7.36482
0
-3.17064
-3.45856
0
-0.83186
-1.81204
-0.914252
-2.51225
0
-1.08713
-4.6241
0
-5.2909
-4.74621
-3.5133
-8.15019
-11.7573
-1.84395
-2.9035
0
0
0
-1.65166
-5.43435
0
-6.72474
0
-2.89178
-7.73306
0
-8.31054
0
-3.4397
0
-0.176199
-2.92656
0
-3.09518
-3.71416
-1.54732
-4.62175
-0.427329
-0.592592
-1.99704
-0.285034
0
0
0
0
0
0
0
0
0
0
0
0
0
0
0
0
0
0
0
0
0
0
0
0
0
0
0
0
0
0
0
0
0
0
0
0
0
0
0
0
0
0
0
0
0
0
0
0
0
0
0
0
0
0
0
0
0
0
0
0
0
0
0
0
-0.469573
-1.25124
-0.00944694
-1.03091
-1.21015
0
-1.4886
-0.163098
-1.02104
-1.32529
-0.0524237
-1.29625
-1.21277
0
-1.3453
-0.301416
-0.721106
-1.16059
0
-1.12734
-1.18381
0
-0.997302
-1.25342
-0.27604
-1.26785
0
-2.2565
-1.07742
0
-1.58458
-1.04964
-0.205304
-3.19279
-0.962401
-2.74921
-2.64068
-0.324928
-0.485747
-1.73957
-0.314124
-0.0296644
0
-0.784312
-0.180397
0
-1.31102
-0.304124
-0.210295
-0.990556
0
-0.357256
-3.56018
0
-2.57958
-1.27805
-1.12244
-0.772649
0
-3.13217
-0.290772
0
-1.70051
-0.34698
-1.44656
-2.48537
-1.30044
-2.82309
-4.0334
-0.781658
-1.05204
0
-1.92935
-2.49716
-3.41245
-2.10531
-6.05403
-1.41462
0
-4.07963
0
-2.00301
-0.325159
-2.05947
-2.7322
-2.03257
-4.32146
0
-3.91763
-3.52414
-0.727751
-1.38937
-4.82288
-0.342721
-0.23678
-1.96931
-2.52672
-0.795899
-1.00643
-1.84858
-0.0998814
-6.8346
-0.81875
-3.94304
-2.39961
-1.35647
-1.88295
-2.41357
-2.92486
-0.14314
-2.1412
0
-2.69952
0
-3.37297
-0.851988
-4.82324
-2.88057
-6.58684
0
-2.75889
-0.0349333
-6.62056
-5.07559
-3.09865
-1.02881
-4.36588
0
-1.36276
0
-2.94015
-2.62211
-2.10444
-2.0091
0
-5.93473
-1.73663
-0.595207
-6.11442
-1.04769
-0.681832
-1.05147
-1.2096
0
-3.87122
0
-0.657956
-8.16638
0
0
-0.0413252
0
0
-1.83238
0
0
-1.76402
0
-3.55929
-3.93505
0
0
-8.66016
0
-4.58841
-1.93489
-1.93639
-0.415763
-8.278
-0.467079
-7.02129
-0.74964
0
-1.5579
-2.7261
-5.08237
0
-3.97309
-2.00209
-2.93919
0
-2.53007
-4.07563
0
-3.81154
-1.84205
0
-0.922846
-0.00575503
-5.47555
-0.465266
-5.98204
-1.324
0
-0.837257
-0.678157
-2.1001
-4.56999
-2.16842
-0.0521812
-2.22073
0
-3.9916
-2.21048
-8.01561
0
-6.71471
0
-5.67791
-0.338219
-6.54721
-2.43919
-1.34468
-5.7595
-0.108501
0
-2.29071
-0.315735
-0.514993
-0.646033
-1.62847
-2.02933
-0.134937
-1.38305
-2.03439
0
-0.650386
-5.47676
-0.185254
-2.62926
-2.14188
-3.37635
-8.63008
-0.184465
-9.16773
-0.253985
-6.20233
-0.65499
0
-1.54245
0
-1.82217
-0.0805294
-1.97359
-1.61323
-2.08567
-0.72661
-3.82355
-1.97465
-9.13177
-0.586204
0
-5.23573
-5.02204
-7.77443
0
0
-6.17724
-2.958
-0.196147
-1.02881
0
-0.815302
-3.82578
0
-0.92704
0
-1.81445
0
-1.94583
-4.53193
-5.53449
-0.0872403
0
-1.967
-0.179784
-3.4547
0
0
-3.81496
-1.55736
-2.51619
-2.63829
-1.05737
-1.26606
0
-1.49441
0
-3.94389
-0.400678
0
-4.24923
0
-4.12458
0
-1.20917
-4.04328
-2.19146
-0.00273716
-3.23625
-0.426808
-5.3441
-2.36637
0
-1.64332
-1.74313
-0.146454
-1.94062
-0.177409
-4.49092
-1.31169
-1.14052
-1.73451
-3.85319
-6.21338
-0.990164
-0.882192
0
-2.82619
-0.211852
-3.39923
0
-4.17401
-2.58442
-4.19631
0
-0.141862
-2.00748
-3.90137
-0.960741
0
0
0
-1.33426
0
-3.52637
0
-0.920228
-6.33562
-4.45639
-2.74951
-0.630338
-8.5734
-2.80956
-5.03117
0
0
-2.57274
0
-5.87485
0
-5.26984
-5.78677
0
-5.59789
0
0
-3.23359
-3.92252
0
0
-4.08502
-1.74902
-0.0458813
-6.00773
0
-1.7554
-2.86711
0
0
-1.66477
-1.88185
-2.33663
-4.18187
0
-3.03368
-2.65616
-4.29879
0
0
-2.25441
-0.185345
-7.78917
-0.672961
-4.57293
0
-0.388511
-0.841496
-4.13471
-2.84599
-2.86099
-1.83828
-0.0956095
-0.363409
0
0
-2.23252
-2.82495
0
-2.68889
-1.0154
-0.40607
-4.02482
-1.50572
-0.0693977
-0.69607
-4.72968
-0.118028
-0.610936
-0.759112
-3.70335
0
-0.907247
-1.04464
-1.86463
0
-1.50465
0
0
0
-4.88009
0
-0.661225
-3.1342
-1.09201
-2.26764
-2.1969
-1.4492
-4.64482
-2.52284
-3.80027
-2.86927
-2.96774
-1.35518
-8.65588
-2.91089
0
-1.24513
-4.96755
-3.49715
-4.83106
-1.38112
-4.64148
-4.13957
-1.91039
-0.420413
-1.888
-1.27795
-4.58385
-2.11156
-4.71291
0
-3.52169
-1.21688
-0.325582
-0.474379
-4.06254
-0.912474
0
-1.64108
-0.513071
-0.513146
-1.68356
-7.76895
0
-7.76967
-0.11793
-2.74167
-3.90993
-1.75123
-5.16124
-1.38171
0
-6.29917
-2.31696
-0.601423
0
0
-0.172847
-1.73025
-1.01961
0
0
0
0
0
-2.40533
-3.61349
-0.0884027
-5.13302
-1.17911
0
-0.116045
-4.77884
-1.46731
0
-4.57382
-0.671817
-8.64479
0
-1.33505
-3.61991
-3.27459
-6.1623
0
-1.06559
-4.58819
-3.9018
-4.57079
0
-1.4234
-6.74616
-1.69594
-1.29145
-8.57547
0
-2.29577
-0.329546
-5.16647
-1.44239
-0.722584
-1.3157
-2.67576
-1.3296
-0.890916
-2.90022
0
-2.76836
-3.85431
-1.59681
-3.00457
0
-2.89177
0
-7.80916
0
-1.70068
-0.959387
-0.224507
-3.99089
-4.03828
-0.832379
0
0
-0.346641
0
-1.46283
-7.10864
-3.01452
-3.42072
-1.32638
-1.57731
-3.89258
0
-1.30919
-4.43164
0
0
0
-0.327757
0
-4.44126
0
-7.55939
-1.69526
-2.35731
-3.98521
-3.55913
-2.04249
-4.28315
0
-7.61009
0
-0.0604842
-0.646365
-7.97462
-1.42003
-2.72144
0
-1.14619
-3.03177
-0.430789
-2.99752
-1.1605
-1.11328
0
-3.74246
-6.31064
-4.70936
-1.50142
-2.2215
-4.25649
-3.8065
-4.42907
0
-0.464676
0
0
-2.14394
-2.04794
-1.90528
0
-4.81566
-1.49676
-5.89992
-5.08169
0
-0.592604
0
-1.31196
-2.79526
0
-2.42271
0
-1.06276
0
-4.04834
-4.54822
-6.1286
-1.96848
-8.94022
0
-0.639576
-1.07447
0
-1.83202
-7.93809
-3.85898
-6.32936
-8.64317
-1.42297
-3.84036
-2.47542
-2.85589
-3.58075
0
-2.27443
-1.84063
-0.473532
-2.73925
0
-2.48825
-0.740657
-3.20325
-3.11531
-3.59413
-3.00817
0
-3.45125
0
0
-1.30313
0
-5.4328
-0.872732
-5.54765
-0.385597
-1.52981
0
-5.0582
0
-4.21559
-3.77177
0
-5.45831
-1.10844
-3.5432
-3.53045
-1.34327
-2.84577
0
-3.45935
0
-3.99409
0
-3.16546
0
-2.9909
-1.41937
-3.68648
0
-1.10231
-2.92294
-3.81454
-1.07269
-5.7001
-0.0689551
-1.17379
-0.626145
-2.2673
-0.25335
-2.47946
-6.73662
-0.0411075
-1.29933
-4.62322
0
-0.717185
0
0
0
-3.04886
-2.52196
-1.19651
0
-8.59891
0
-2.93672
0
-0.408831
-1.33982
0
-7.88524
0
-3.52122
-7.19617
0
-7.77104
-5.68592
-3.8905
0
0
-6.05971
0
-2.75224
-0.473095
-3.5198
0
-0.591572
-8.26838
0
-6.98839
-3.16459
-4.73532
0
-6.43171
-7.58557
-3.00663
-2.61882
0
-4.45176
-1.16936
0
-2.46366
0
-7.43274
0
-7.97093
0
-0.479868
-3.86833
0
-0.526545
-2.14131
0
-3.7423
-0.369224
-2.22581
-1.12458
-0.322127
-6.22756
0
0
0
-7.32139
-7.38434
-6.29831
-0.891489
-0.905201
-0.922167
-2.10848
-1.53457
0
-5.97848
-1.19205
-0.20618
-6.26872
0
-3.91632
-1.56008
-0.805895
-2.07074
-0.805573
-1.93173
0
-1.92927
-0.2679
-2.65311
0
0
-2.15808
-2.34591
-0.757718
-3.33569
-0.776733
0
0
-4.75132
0
-3.17581
-0.155634
-4.1062
-1.64028
-3.76884
-3.04417
-0.134586
0
-4.42581
-3.20278
-1.2887
0
-6.07372
-1.63277
-1.86437
-2.51503
-0.696486
-7.74257
-2.29303
-0.234656
0
-9.43203
-1.7841
-2.59749
-1.27817
-2.58832
0
-3.81429
-0.891385
-0.417982
-0.832982
-0.640346
-1.71633
-2.87512
-0.914467
-3.20884
-2.35355
-0.669268
-2.54302
-0.369831
-0.931191
-2.2309
-7.53497
-0.0697581
0
-5.4556
0
0
-1.33349
-1.3421
-1.05054
-5.52661
-0.522863
-8.29735
0
-4.01884
-2.14577
-1.7097
-2.19568
-2.45055
-5.03218
-4.67075
-0.967209
-1.06748
-1.9376
0
0
-3.81443
0
-7.82207
0
-1.8605
-5.66962
-0.683716
-2.87104
0
-2.04756
0
-8.60578
0
0
-7.40136
-8.07635
-1.78118
0
-7.59384
0
-10.0265
0
-9.05581
0
-6.19144
-2.22191
-6.38832
-5.42771
-0.547777
-0.789171
-0.905308
-3.30553
-1.27825
0
0
-9.27303
0
-3.19148
-0.272535
-1.13703
-2.12481
-0.985812
-1.37616
0
-2.27731
-1.43099
-5.06829
0
-0.0676839
0
-6.06899
-0.256805
-4.46724
0
-2.36943
-0.681166
-7.36715
0
-0.393227
0
-1.26375
-3.09134
-2.12002
0
0
-3.12163
-5.815
-0.655238
-8.22903
0
-3.41141
-2.91796
-0.955511
-3.90773
-2.9931
-6.69997
-2.51046
0
-6.46548
0
-7.49244
0
-6.85167
0
-4.21885
-3.77795
-3.13361
0
-2.54914
-1.12252
-1.70877
-4.131
-3.82772
-2.55361
0
0
0
0
0
0
0
0
0
0
0
0
0
0
0
0
0
0
0
0
0
0
0
0
0
0
0
0
0
0
0
0
0
0
0
0
0
0
0
0
0
0
0
0
0
0
0
0
0
0
0
0
0
0
0
0
0
0
0
0
0
0
0
0
0
-0.080642
0
-0.273879
-0.258266
0
0
-0.0106467
-0.0605071
-0.189261
0
0
0
0
0
0
0
-0.379811
0
0
0
0
0
0
0
-0.198203
0
-0.168785
-0.468238
0
0.000444702
-0.692265
0
0
0
0
0
0
0
0
0
0
0
0
-0.116719
0
-0.24661
0
0
-0.0225774
0
0
0
0
0
0
0
0
0
-0.117482
0
0
-1.30551
0
-1.03722
-1.50743
-2.9515
-2.43229
-6.0443
-0.570807
-5.97852
-1.04028
-4.03639
-1.89279
-2.14372
-4.21987
-0.585313
-1.67495
-6.21469
-1.24944
0
-1.82124
-0.105029
-1.50784
-2.62282
0
-2.03238
-2.09538
-0.0986684
0
0
-4.12153
-0.13029
-2.05009
-5.65301
0
0
-2.44742
-0.429942
-1.41997
-0.938034
-0.0720742
0
-6.29467
0
-0.387805
-1.38453
-1.82107
-4.99274
-0.56092
-5.53398
0
-2.94671
0
-2.52144
0
0
-2.83271
-3.9045
-1.24236
-3.86935
0
0
-0.423148
0
-6.90201
-0.11553
-4.71495
-8.36834
0
-1.68488
0
0
-4.32596
-2.24723
-0.547035
-0.807477
-3.35887
-0.10562
-0.881314
-2.37116
-1.97623
-1.8536
0
-6.25333
0
-8.70001
0
0
-4.26158
0
-1.4079
-1.95414
-0.27275
-3.71301
0
-2.08118
0
-7.17148
0
-1.66177
-1.21947
0
-4.66676
-0.73781
-1.18463
-1.30555
-2.02513
0
-1.82819
0
0
-5.89759
-1.6401
-5.32664
-2.31546
-2.69776
-1.35718
-4.3225
-2.86524
-3.80469
-4.36066
-1.05316
-1.17799
0
-0.772667
-2.53363
-4.16808
-2.35052
0
-0.0527285
0
-2.76196
-3.36963
-3.51681
-0.270566
0
-0.432483
-1.28029
-3.51129
0
-3.87615
0
0
-1.18053
0
0
-0.597757
0
-4.20531
-0.708724
-1.3148
-0.993586
0
-2.9022
-6.06798
-3.84033
-2.71736
-1.99646
-2.15745
-2.05095
-0.127385
-3.28765
0
-3.42616
-4.19728
-2.83153
-3.84036
-3.41741
0
-5.31401
-0.733726
-5.09736
-1.10263
-1.81925
0
0
-3.1707
-0.163661
-7.56613
0
-3.57161
-0.152357
-2.83631
-1.7006
-3.01518
-5.87906
-2.87594
-3.28595
-0.0884621
-6.63651
-12.8926
0
0
0
-1.2045
-4.44509
-5.64937
-1.11941
-4.1932
-0.891847
-7.28803
-0.337755
0
0
-3.04414
0
-5.12354
0
-7.31923
-0.873626
-0.0933635
-0.0268352
0
-4.47031
0
-5.09048
-3.31488
0
-2.99802
0
-2.85208
-3.64457
0
-5.42357
-3.1159
-6.09619
-1.27828
0
-6.78391
0
-0.112033
-2.46374
-1.48899
-3.94036
-0.657215
-0.889332
0
-4.56024
-0.96621
-4.92132
-0.0532186
-0.444942
-2.54941
-7.91962
-5.91965
-5.72648
-0.65027
-2.6804
-0.142941
-3.49945
-0.882321
-4.86337
0
-5.17285
0
-7.52998
0
-3.84117
-0.391749
-0.415482
-2.72344
0
-1.06879
-1.02659
-1.27476
-5.96384
0
-2.30372
-1.70028
-1.68959
-0.301247
-1.93819
-0.216917
-0.573269
-2.44573
0
-6.18563
-0.543901
-0.0465891
-3.86622
-0.894331
-0.315938
0
-0.673275
-1.98452
-2.22118
-5.14035
-0.123931
-0.362301
0
0
-6.39274
0
-2.31037
-0.504488
-8.44772
-0.299104
-3.58596
0
-8.21689
0
-6.50361
0
-3.63035
-1.11596
-1.61935
0
-6.12373
-1.56988
-1.74391
-0.942506
0
0
-3.05195
0
-1.40155
0
-4.45385
-5.43497
-5.08892
0
0
0
0
-4.67554
-1.04083
-3.12015
0
-1.11536
-1.1255
-5.67931
-0.592099
-5.25971
-4.77221
-5.22066
-0.552297
-1.01449
-4.12387
-2.67796
-4.00699
-2.76232
0
0
-2.55084
-0.740597
-2.12672
-8.48718
0
-9.28203
0
-6.72429
-0.919477
-2.13466
-6.90602
0
0
-5.28751
-1.99875
-1.59073
0
-1.05742
-4.42431
0
-7.82246
0
-2.49093
0
0
-1.04936
-0.882242
-3.5739
-2.65516
-2.43958
-1.97634
-2.07316
-8.39965
-1.45668
-0.329483
-3.15955
-1.10906
0
0
-3.65395
0
-10.0307
-0.0678624
-6.71525
-0.531379
0
-3.75167
0
-2.83543
-0.233116
-5.21234
0
0
0
0
-1.06217
-5.42342
-3.90262
-2.801
-1.43839
-1.80274
0
-2.25387
-0.912944
-0.231636
-0.283443
-0.144336
0
0
0
-5.1154
0
-0.583504
-4.00506
-1.87796
0
0
-4.07648
0
-8.84511
-3.09869
-7.99362
-4.26587
0
-9.20437
-0.210448
-1.94415
-1.90294
-3.8517
-0.5106
0
-2.00644
0
-2.88257
0
-4.41092
-2.89667
-2.08644
-3.02417
-2.8056
-6.27452
-0.941069
-2.50279
0
-2.63178
-4.00311
-0.601387
-0.347721
-0.968994
-5.70731
-0.884614
-0.298953
-2.87376
-1.58475
-2.96022
-0.214603
-2.0687
0
0
-4.11939
-6.06578
-0.332875
-6.3667
-2.0161
-7.00283
0
-7.63062
-0.464251
-7.25351
-0.100877
-0.205079
-0.931581
-2.95508
-2.40151
-2.95922
-0.521385
-0.112127
0
-4.42109
0
-1.02874
-0.0305423
-6.55223
0
0
-0.775424
0
0
-6.13655
-1.12644
-0.798388
0
-0.18724
-2.08445
-4.25686
-5.02622
0
-4.58554
-2.00847
-3.16422
-1.61819
-4.06767
-1.2626
-1.10214
-0.338302
-3.26465
-1.40958
0
-0.670258
-4.96545
0
-1.06979
-0.133688
-3.9495
-1.18674
-7.15186
0
-1.60406
0
-5.8937
-3.19961
-2.30893
-4.31098
0
0
-5.53003
-0.704561
-0.0736597
0
-3.12143
-0.0537975
-7.0804
-3.54543
-7.20276
-3.75843
-4.56302
-5.00219
-2.28872
-4.62621
-2.82645
-0.755925
-2.44755
0
-7.50778
-5.01927
-0.965196
-0.8063
-2.59317
-3.31607
-0.886764
-8.18908
0
-1.12388
-0.186737
-1.44011
-0.410564
-2.21039
-5.9872
-0.773809
-4.32987
-0.0902268
-2.11955
0
-1.81782
0
-0.263483
0
0
-0.668857
0
-2.84815
-2.07234
-3.08356
-1.80125
-2.93309
-0.662407
-0.991579
-4.19168
-1.38302
-0.137608
-0.0692218
0
-0.403766
-4.80994
0
-4.97811
0
-2.78731
0
0
-0.2086
-1.73988
-1.53781
-1.76051
-0.938377
-2.30039
0
-2.35641
-3.65308
-0.0937763
-6.60597
0
-0.916104
0
0
-4.15088
-1.69745
-6.19136
-0.265006
0
-10.4259
-0.762846
-1.67986
-2.69052
0
-0.590226
-0.745745
-5.52224
0
-3.82783
0
0
-0.550475
-6.51499
0
-0.545038
0
-0.944526
-3.7623
-0.372145
-4.93976
0
0
-1.25201
-2.5529
-2.01855
0
-4.2012
0
-4.44575
-1.78397
0
-1.4582
-5.94942
-2.87214
-6.13468
-7.49873
-1.11943
-4.61852
-1.87022
-1.68855
0
-1.62445
-0.338437
0
0
-4.98248
-1.98925
0
-2.87921
0
-3.76352
0
-2.62895
-0.565247
-1.89593
0
-1.13918
-1.22059
-0.840069
0
0
-5.63151
0
-2.00268
-1.92968
-1.33373
-0.113793
0
-1.09545
0
-0.682565
-0.0231284
-3.3283
0
-8.90913
-0.214787
-1.25197
-7.14347
-2.87589
-3.75376
-4.99201
-2.29452
-5.48813
-7.97649
-0.642334
-7.05306
0
-11.5031
0
-0.421813
0
-5.66884
0
-1.3497
0
0
-4.3614
0
-4.79404
-2.2918
-7.29949
-2.47146
-0.0865225
-0.642164
-1.29389
-4.53315
-3.44436
0
-2.12503
-1.44639
-6.72782
-1.19381
-4.47505
0
-3.45164
-0.32508
0
0
0
-1.05861
-6.62133
0
-2.25042
-0.425311
-0.593573
-7.5517
-0.0167929
-0.151972
-5.24554
0
-4.39974
0
-1.87616
-1.59467
-2.1173
-6.96565
-0.846983
0
0
0
-5.1042
-0.225959
-0.31001
-6.36813
0
-2.36222
-1.40409
-3.78366
-1.71122
-1.98704
-2.56437
-4.32929
-0.185247
-5.23919
0
-7.19067
-0.673682
0
-2.66253
-1.16317
-0.655442
0
-1.96868
-5.29029
-8.45682
-1.92308
-1.2832
-4.3133
-1.20074
-2.76939
-5.4266
-6.68333
-2.11748
-4.54616
0
-1.28192
0
-0.00615408
-0.6124
-4.90376
-2.792
-3.57277
-0.604128
-2.27889
-0.397691
-1.20665
-8.68894
0
0
-5.41616
0
-5.48075
0
-2.27244
0
-4.17196
-1.30533
-2.85886
0
-0.663326
-5.76912
-4.05988
0
-4.31505
-0.976886
0
-1.24252
-8.06946
-2.3991
-0.320681
0
-2.97295
-1.00758
-2.30244
0
-1.94952
0
-0.705108
0
-3.54868
0
-6.51997
0
-2.2513
-3.75035
-7.07961
-0.781713
-5.76656
-1.199
-1.3238
0
-3.76748
-3.09943
-3.49565
-1.18857
-4.50694
-1.88221
-4.75067
-1.20252
-0.425402
-2.91684
-1.0639
0
0
0
-3.03463
0
0
-0.758985
0
-3.37657
-3.93795
-0.257714
-9.0737
-3.97862
-10.7265
0
-2.80553
-0.713021
0
-4.97449
-0.827286
-1.8819
-0.642357
-1.84356
0
-2.76502
-0.123356
-0.475594
-3.39017
0
-5.50827
-0.423599
0
-7.35989
-2.1759
-6.29066
-2.89196
-0.298316
-4.10522
-0.951444
-3.42628
0
-1.44654
-3.73299
0
0
0
0
0
0
0
0
0
0
0
0
0
0
0
0
0
0
0
0
0
0
0
0
0
0
0
0
0
0
0
0
0
0
0
0
0
0
0
0
0
0
0
0
0
0
0
0
0
0
0
0
0
0
0
0
0
0
0
0
0
0
0
0
-0.458704
-1.67229
0
-1.02851
-1.59614
-0.168449
-0.894052
-1.13914
-0.285694
-0.509352
0
-1.21612
-1.73157
-0.126567
-1.52572
-1.2235
-0.0321673
-3.2471
0
-1.40148
-1.39288
-0.520155
-1.85191
-1.42772
0.132477
-1.84154
0
-1.35132
-1.83365
0
-2.1638
-0.45624
-1.44799
-0.133323
0
-2.29318
0.0685486
0
-2.63037
-0.401095
-0.170216
-1.25518
0
-0.394737
-1.85484
0.0472739
-0.564381
-1.41829
-0.89947
-0.524506
0
-1.99506
-0.346121
0
-3.35353
-0.0246061
-1.30948
-1.44714
0
-0.798008
-2.12333
0
-2.52591
-2.19375
-6.05509
-2.51345
-0.124658
0
-1.40916
-1.2631
0
-2.14878
-5.07902
-3.44346
-0.503166
-1.45195
0
-1.81674
-2.84979
-2.6633
-1.86023
-6.77996
-1.31137
-2.07936
-2.89925
-3.17572
-1.24251
-1.54539
-1.81389
-6.45897
0
0
0
0
-2.94075
-1.08568
-1.01734
-0.608425
-2.45706
-2.15958
-2.57703
-1.54366
-0.907534
0
-2.37924
-3.15456
-2.4797
-7.35494
-2.25335
-0.395605
0
0
-0.492898
0
0
-1.92882
-7.72077
0
-2.23158
-1.89018
-2.4903
-4.24784
-3.40268
-7.14052
-2.31258
-2.87538
-0.101885
-2.57221
-3.11263
-0.530977
-5.13651
-0.973977
-8.10229
0
-0.183345
-0.426964
-1.17258
-0.220143
-2.72986
-3.2713
0
-2.30044
-1.07437
-3.8252
-1.04435
0
-7.11897
-2.22793
-2.39759
-0.743446
-0.332313
-1.24814
0
-0.90561
0
0
-3.79271
0
-0.0929339
-0.183675
-0.139844
-0.684826
0
-0.739624
-0.0154231
-7.73782
-0.46247
-4.13107
0
-4.11094
-0.182949
-4.11061
0
-4.16321
-0.750912
0
-4.60417
0
0
0
-4.94649
0
-8.16662
0
-8.81741
-0.128544
-6.44406
-0.208809
-1.87256
-6.10586
-0.957505
-2.52514
-0.646341
-2.29287
-2.36114
0
0
-2.7833
-1.6475
-0.186691
-1.12017
-1.70363
-9.35261
-0.1452
-5.5779
0
0
-4.90361
-1.68266
-2.37744
-2.17089
-3.20027
-2.34038
0
-2.35513
0
0
0
0
-3.60144
-1.86743
-0.392378
-1.69994
-5.39283
0
0
0
0
-2.29091
-2.03562
-0.90019
-4.21644
-4.70814
0
-2.11697
-4.86814
-1.60696
-4.99782
-0.427586
0
-0.251774
-0.925908
-0.0855967
-0.636288
-3.15297
-1.5904
0
0
-2.58938
-0.795348
-1.12004
0
-1.88454
-2.59135
-0.339069
0
0
-0.612064
-1.80113
-1.20497
-2.52415
0
0
-6.57831
0
-2.67163
-0.23611
-3.02179
-3.58466
0
-2.24397
0
-4.02866
0
-1.44817
0
0
-0.945339
0
-1.58031
-4.90731
-1.54315
-4.35222
-2.87563
-2.52418
0
-3.50891
0
0
0
0
-5.73291
-3.20122
-4.05462
-1.12886
-2.29574
-2.3168
-2.03144
-0.806542
-4.09967
-0.237358
0
-0.718974
-7.16598
-1.65437
-1.68578
-3.10443
-1.98582
-0.300572
0
-1.61733
-0.395143
-0.710178
0
-4.33969
-3.37567
-1.2059
-3.12822
-0.0158378
-7.15327
-0.999132
-3.06189
-2.01557
-5.58931
0
-3.14012
0
-4.6462
-1.80268
-3.95785
-2.4586
-0.162292
0
-0.19481
-1.05719
-1.84677
-2.88684
0
-3.24537
-2.90687
0
-5.35297
0
-4.94121
-1.92629
-1.63597
-0.143224
-1.04863
-3.89137
-2.22049
-4.42958
-1.62547
-1.84561
-2.12543
-2.08839
-2.4046
-0.289408
-4.50338
-2.82344
0
-0.129863
-2.29675
-2.87088
0
0
-4.72264
-2.55682
-7.69714
0
0
-5.55629
0
-1.94515
0
-1.58295
-2.506
-6.02844
-1.8635
0
-0.402127
-2.5162
-0.472949
-6.32522
0
-4.35671
-1.85489
-2.42501
-3.00712
0
-5.87055
0
-6.42973
0
-0.499775
0
-1.03272
-3.48664
-1.04285
-3.90436
0
-3.15524
-3.03743
-2.55566
-1.07814
-3.77231
0
0
-6.95076
0
-2.51121
-0.579338
0
-2.66506
-1.7017
-1.94312
-0.608855
-4.41706
0
0
-2.01727
-7.51892
-2.37212
-1.79288
-0.0649137
-1.47978
-0.457554
-4.56041
-0.76535
-4.88636
-2.77835
-0.477212
0
-0.203592
-3.75467
-0.900187
-2.47804
0
-0.800251
-5.02695
0
-1.15156
-2.28385
-1.46261
-4.10921
-1.79703
-0.84867
-0.462591
0
-0.818965
-6.56472
-1.35338
0
-0.50617
-2.24149
0
-2.18535
-6.54368
-0.809865
-7.58158
0
-4.67431
-0.866719
-5.91881
-0.0513694
-5.82664
0
0
-1.34056
-1.02874
-4.55547
0
-6.08495
0
-7.16104
-1.01029
-3.67258
0
-3.39639
-1.08637
-6.04827
-6.0656
0
0
0
0
0
-2.94999
0
-0.083475
0
-4.94596
-1.67738
0
-2.38032
0
-2.91149
-1.12688
-1.61863
-1.84981
0
-1.0674
0
-5.35238
0
-4.2047
0
-2.05281
-1.09752
-2.79804
-0.278141
-6.70313
-1.90016
-0.630946
0
0
-0.639724
0
-4.6762
-4.3696
-1.65416
-1.96119
-2.03694
-8.03768
0
-0.359289
-5.69088
-0.763983
-2.07741
-1.61886
-1.62754
0
-1.82815
0
-3.85872
-3.78587
-0.711764
-0.556917
0
-4.04861
-2.57534
-6.25883
-5.78114
0
-6.55157
-1.88446
-7.19069
-2.18204
-6.53431
-6.31146
-1.7507
-5.54874
-1.56888
0
-2.24786
-1.25123
-3.04441
-2.30913
0
0
-0.394992
0
0
0
-3.58264
0
-1.22406
-1.70816
-4.38135
-0.502066
-2.14796
0
-0.698301
-0.389258
-0.130539
-2.20184
-1.31155
-5.51016
-0.0685521
-0.831042
0
0
-3.49928
-0.259519
-1.07862
0
-4.58477
0
-4.09633
-4.977
0
-8.72305
-3.40512
-1.32162
-5.19441
0
0
-0.193102
-0.0415212
0
-1.40913
0
-3.80915
-1.8526
-1.58144
-2.48427
-0.227776
-2.93339
-0.13894
0
-1.26203
-3.32031
-3.59114
-3.27454
-2.59893
-1.4638
0
-1.85346
-0.15332
-2.70706
-0.864052
-3.5622
-0.102144
-1.67719
-2.03744
-0.998098
-4.36506
-1.64075
-3.81877
-1.47702
-6.53306
-0.480758
-4.56186
0
-6.07965
-0.224883
-1.12316
0
-2.77821
0
-1.53033
0
-1.74666
-2.20345
0
-4.40504
0
-0.84819
-4.09051
-0.665464
-2.45479
-1.59356
0
-2.59422
-4.0649
0
-4.6764
0
0
0
-0.937508
-1.22145
-0.815033
-4.37719
-4.27022
-0.427299
0
-5.73159
-0.659037
-5.41641
-2.23875
0
-4.59512
-8.34058
0
-0.78408
-1.13246
-3.62663
-0.154319
-2.73595
-1.92174
-1.80695
-1.87446
0
-1.96787
0
-3.84435
0
-2.26894
-0.329318
-6.78777
0
-3.5356
0
0
-1.6428
-0.905998
-3.24694
-0.557691
-1.71047
-1.49013
-1.54433
-2.41096
-2.85931
0
-4.44407
-0.417727
-0.306836
0
-2.02634
-0.698309
-3.38925
-2.42522
-1.04007
-3.10079
-0.132376
-1.58185
-3.86679
0
-7.79529
0
-1.46943
-0.513703
-0.184856
-1.17967
-1.82663
-1.53708
-0.0600042
-0.227191
0
-2.63059
-1.46464
-6.0718
-0.0526438
-0.234276
-6.75782
0
-0.993606
-3.7383
0
-4.37808
-2.02804
0
0
-2.00359
-2.87702
-0.424351
-6.42812
-1.42592
-1.63588
0
-5.67433
-3.51714
0
-0.055369
0
-1.09286
-6.41046
0
-4.01937
-3.71074
-1.65032
-4.60888
0
-3.7641
0
-7.31552
-0.587973
-3.47751
-3.15885
-0.511358
-3.05247
-0.0666766
-4.00853
-7.03415
0
-7.2489
-1.30981
-1.16857
-0.795269
-0.0905949
0
-3.88792
-3.94521
-3.89493
-0.046212
-0.295458
-0.615438
-2.6769
0
-4.29033
0
-0.757919
-4.85659
-4.58059
-1.47727
-2.15343
0
0
-4.62196
-0.430159
-1.0813
-1.63434
-4.84548
-6.0083
0
0
0
-1.574
-1.71753
0
0
-3.46557
-2.09156
-6.97641
-0.832039
-5.4474
-3.57241
-4.06931
-2.10606
-0.588999
-6.86622
0
-3.69844
-4.91737
0
-3.67666
-0.0772234
-4.82457
0
-4.11932
0
0
-1.04316
-8.24522
0
-9.50294
-0.612995
-7.76169
-7.27798
0
-6.61279
-0.116829
-0.0913704
-2.73656
0
0
-0.243104
-0.990577
-1.32448
0
-8.15128
-1.16143
-2.76041
-4.07452
0
-3.83776
-1.60466
-4.09244
0
-7.43663
-0.740689
0
0
-8.82532
-3.09865
-1.15472
0
0
-8.03267
-1.48184
-1.45899
0
-3.00085
-7.32693
-8.66124
0
0
-0.945614
0
0
-0.546749
-6.02119
0
-2.38348
-3.78787
-10.4055
0
-5.46506
0
-5.78592
-2.6053
-3.49643
-3.30673
-5.52222
-8.26237
0
-0.922696
0
-5.6325
-0.23948
0
0
-2.24457
0
-7.43138
0
-2.56516
0
-3.11474
-4.19389
-1.00466
-0.891925
-2.31119
-1.3816
-0.879646
0
-1.27884
-2.93768
-3.17441
-4.03225
-0.495788
-4.02364
-2.50511
-3.51233
-2.87826
0
-1.26438
-0.46623
-0.088704
-0.396198
0
-2.95393
-6.73773
-3.72995
-9.87234
-2.86078
-1.50269
0
-2.51537
0
-0.750471
-1.2235
-0.254226
-1.32392
0
-4.71247
0
-8.96943
-5.54713
-7.82003
-2.00061
-3.64144
-8.34691
-1.61133
-8.54281
-1.21157
-6.00135
0
-1.21315
-3.34826
0
0
0
0
0
0
0
0
0
0
0
0
0
0
0
0
0
0
0
0
0
0
0
0
0
0
0
0
0
0
0
0
0
0