<?xml version="1.0"?>
<VTKFile type="RectilinearGrid">
<RectilinearGrid WholeExtent="0 32 0 32 0 32" Origin="0 0 0" Spacing="1 1 1">
<Piece Extent="0 32 0 32 0 32">
<PointData>
</PointData>
<Coordinates>
<DataArray type="Float32" format="ascii">
0 0.524874 1.04975 1.57462 2.0995 2.62437 3.14924 3.67412 4.19899 4.72386 5.24874 5.77361 6.29849 6.82336 7.34823 7.87311 8.39798 8.92285 9.44773 9.9726 10.4975 11.0224 11.5472 12.0721 12.597 13.1218 13.6467 14.1716 14.6965 15.2213 15.7462 16.2711 16.796 
</DataArray>
<DataArray type="Float32" format="ascii">
-5.03879 -3.62163 -2.20447 -0.787311 0.629849 2.04701 3.46417 4.88133 6.29849 7.71565 9.1328 10.55 11.9671 13.3843 14.8014 16.2186 17.6358 19.0529 20.4701 21.8872 23.3044 24.7216 26.1387 27.5559 28.973 30.3902 31.8074 33.2245 34.6417 36.0588 37.476 38.8931 40.3103 
</DataArray>
<DataArray type="Float32" format="ascii">
0 0.524874 1.04975 1.57462 2.0995 2.62437 3.14924 3.67412 4.19899 4.72386 5.24874 5.77361 6.29849 6.82336 7.34823 7.87311 8.39798 8.92285 9.44773 9.9726 10.4975 11.0224 11.5472 12.0721 12.597 13.1218 13.6467 14.1716 14.6965 15.2213 15.7462 16.2711 16.796 
</DataArray>
</Coordinates>
<CellData>
<DataArray type="Float32" Name="Scalar" format="ascii">
0
0
0
0
0
0
0
0
0
0
0
0
0
0
0
0
0
0
0
0
0
0
0
0
0
0
0
0
0
0
0
0
0
0
0
0
0
0
0
0
0
0
0
0
0
0
0
0
0
0
0
0
0
0
0
0
0
0
0
0
0
0
0
0
0.423541
-0.101717
0
-0.0679846
-0.529619
0
-0.313076
-0.759103
-0.326795
0.0188574
0
-0.756869
-0.562682
-0.0790737
-0.692179
-0.28893
0.00548842
-0.472122
-0.00337339
-0.88595
-0.40427
0.00314242
-0.381081
-0.274724
-0.26036
-0.748074
-0.130718
-0.68615
-0.456731
0
-0.56252
-0.0798711
-0.144816
-1.83715
-0.0785854
-1.97823
-0.0561403
0
-2.39579
-0.258821
-0.182248
-1.15603
0
-0.117709
-0.362721
0.00813561
-0.451135
-1.5381
0.161802
-0.350811
0
-0.114047
-0.144138
0
-1.1435
-0.635706
-0.17719
-1.4478
0
-0.227564
-1.03364
0
-0.016842
-1.21391
-3.59208
-3.51115
-1.21918
-0.380826
-1.65771
0
-2.98559
-3.89856
0
0
0
-0.812381
-0.0285222
0
-2.40564
-3.59566
-0.849543
-7.94545
0
-2.05469
-2.74758
-0.268801
-0.818502
-0.625779
-1.27141
-1.55052
0
-2.50361
0
-0.710091
-2.06789
-0.85427
-1.69953
-3.09066
0
-0.819096
-4.80314
-0.0254679
-2.90507
-3.88122
-2.10971
-0.820525
-3.33567
0
0
0
-0.208582
0
-5.14583
-4.19169
0
-5.66921
-1.39042
-4.73664
0
-0.0748167
0
-3.79132
-0.0584875
-0.212185
-1.09535
-5.28484
-4.58927
0
-0.366227
-1.8037
-0.696271
-4.85727
-5.35628
-0.586501
-1.68265
-0.97276
-0.0533
-6.11923
0
0
-4.45235
0
-7.14988
-2.66801
-6.10534
-0.0855201
-0.7467
0
0
-0.823361
0
-3.7117
0
0
-10.6126
0
-0.066874
-1.13836
-2.28926
0
-5.37906
-1.54319
0
-1.67527
-3.39329
-2.43495
-1.22764
-7.80014
-1.83343
0
-5.20626
0
-5.89605
-0.905847
0
-0.835045
0
-3.8161
0
-2.8514
-0.177119
0
-5.30921
-1.55418
0
-2.32876
0
-6.17064
-3.63591
-3.74183
-1.2276
-1.66931
-0.452976
-0.965125
-1.91858
-1.36524
-4.47999
-2.20395
-4.30553
-2.81996
-0.952547
-4.34257
0
-0.651061
0
-2.70584
0
-8.38854
0
-4.08636
0
-7.32718
0
-1.22728
0
-3.42044
-1.39155
-0.289158
-2.55789
-1.94149
0
-8.19113
-0.52803
-3.57227
-0.939252
-5.58763
-2.13093
0
-8.48952
0
0
-0.537834
-3.41815
-3.64028
-0.16934
-2.82941
-3.69592
-3.20035
-3.20757
-2.19869
-4.14738
0
-6.45659
-0.429169
-3.62789
-1.83458
-1.42787
-2.72643
-6.68578
0
-1.58738
0
0
-0.48698
0
-2.62257
0
-0.717293
-2.29974
-4.92478
-0.95639
-5.16418
0
-6.21007
-1.07862
-1.07267
-4.60445
-0.224238
-1.68049
-1.88006
0
-0.570035
0
0
-5.884
-3.51199
-4.68811
-0.585531
-0.475704
-3.76381
0
-3.5576
0
-7.35545
-2.03498
-6.3336
0
0
-0.405598
-1.06172
-0.482521
-3.35193
0
-1.71727
-0.763644
-3.46244
-8.44564
-9.10719
0
-1.35386
0
-1.91431
0
-2.99276
0
-5.33993
-2.73241
-1.87694
-1.46896
-0.203397
-5.15014
-4.84825
-0.524963
-1.61699
0
-1.74379
-2.21577
0
-7.03231
-6.09084
-0.0354955
-2.2561
-4.24173
-2.43682
-1.24359
-3.98338
-2.42748
-2.65378
-3.92845
-1.90304
-1.45296
-7.08629
-1.34666
-0.127455
-0.0324308
-1.10152
0
-2.81758
-0.825621
-2.24522
-2.5398
0
0
-11.1529
-2.88902
-5.76889
0
0
-1.86116
-1.55958
0
0
-0.0596807
-5.50009
-2.3356
-7.1999
0
-0.49452
-3.99666
-3.39657
0
-1.98819
0
-6.65997
0
0
-4.27617
-0.429157
-3.82904
-3.38102
-2.21701
-0.72524
-5.9154
-1.57553
-4.46884
0
-5.19849
0
-6.86731
0
-3.14205
-2.93471
-0.970615
-4.51896
0
-0.481004
-6.50832
-0.225115
-7.19069
-2.32133
-1.26
-1.62173
-1.08085
-2.37207
0
-4.40065
-0.950351
-1.02232
-3.22993
0
-1.04458
0
-0.697215
-5.87
-3.76149
-3.48064
-3.17643
-2.86117
0
-1.88139
-2.28562
-0.13605
-2.92122
-5.08066
0
-8.84627
-0.797267
0
-1.74832
0
-6.16379
-0.676771
-6.71321
-0.760005
-2.46984
0
-10.034
-3.56607
-2.7248
-2.44331
-0.652971
0
-1.29208
-6.37023
-1.71469
-6.45505
-2.27856
-0.085699
0
-0.413562
0
-0.617194
-3.73297
-1.90992
-4.43085
-4.24796
-2.04284
0
-5.18946
-5.31202
-4.84533
0
-2.59499
-1.68035
-4.4662
0
0
0
-0.742032
-0.903525
0
-2.84114
-1.1758
-5.79349
0
-0.696998
-3.77595
0
-3.25158
-1.60584
-0.634753
-3.68194
0
0
-4.40912
0
-5.52925
0
-5.48018
0
-2.1803
-5.50008
0
-1.28081
-0.257289
0
0
-5.28255
0
-3.85649
-1.82695
0
-0.821647
0
-1.261
0
-0.859435
-2.60342
-2.14551
-4.05605
-4.59052
-0.232854
-3.8749
-0.80826
-1.00507
-0.986999
0
-1.14218
-0.699857
-6.77567
-2.0119
-8.39114
-2.07962
-3.3933
-2.78658
-0.775941
-2.72164
-0.532096
-3.3892
0
-4.55705
-2.34892
-3.25837
-0.0266259
-1.63559
-0.553181
-1.75217
-4.36687
-0.701354
-1.52742
-1.49678
0
-0.850022
0
-1.14321
-2.46271
0
-0.720137
-0.966224
-5.44613
-2.22205
-4.92189
-0.994571
0
0
0
-5.3082
-1.2933
-3.14794
-0.763543
0
-6.18317
-1.17122
-2.62276
0
-8.81959
0
-4.60699
-0.425856
-5.47769
-1.92245
-2.87117
0
-0.636981
-0.483378
-6.12524
0
-0.150676
-2.36226
0
-4.09891
-1.81516
0
-7.12572
0
-9.04982
-0.703537
-9.35804
-1.19877
-0.658977
-5.85554
0
0
-4.85915
-2.71882
-2.17274
-5.12495
0
0
-4.46624
0
-1.20586
-0.882453
-1.10409
-3.16605
-3.23924
0
-1.42154
-0.700657
-14.1439
-0.550891
-6.69589
-0.870626
0
-0.519123
0
0
-6.31145
-2.81787
-2.3723
-6.90338
-2.97725
-2.12255
-1.42995
0
0
-3.47175
0
-3.80435
-1.70657
0
-0.942876
0
-3.30724
0
-0.0342214
-5.35704
0
-8.3843
-0.00117684
-7.11817
-3.55107
0
-2.35365
-0.984185
-1.16411
-1.47465
-6.68902
-8.09893
-0.0842059
0
0
-0.950403
-2.54878
-1.8745
-0.653778
0
-1.6671
-2.08731
0
-0.557286
0
-1.69099
-0.179737
-4.28701
-2.19848
0
-5.73566
-5.72457
-0.100749
0
0
-5.61948
-3.49207
-0.711188
-1.16956
-0.882553
-3.59545
-5.24324
-2.11605
0
-4.19415
-3.9507
-2.08698
0
-0.652336
-3.00352
-4.44451
0
-2.71456
-0.194431
-6.9093
-0.179593
-0.162101
-6.13353
-1.1853
0
0
-0.0192563
-0.069723
-1.9681
-5.23944
-0.447114
-5.89685
0
0
-1.48732
0
0
-5.50063
-0.978878
-5.86674
-0.187201
-9.97169
-3.32248
0
-5.03759
-7.44241
-6.51852
-2.26423
-4.47279
-0.652749
-6.7738
0
-6.45443
0
-0.101208
-0.903055
-0.556567
0
-2.59348
-0.981037
-5.47717
-0.600828
-1.79459
0
0
-0.92037
-3.26039
-4.39006
-3.81145
-4.09779
-4.46156
-2.88281
-0.128081
-3.97114
-3.56217
-2.08865
-3.82409
-1.43081
0
-4.81142
0
0
-4.69424
-2.77573
-7.71504
0
0
-0.841319
-0.394235
0
-0.286403
0
-4.93477
-2.80496
-0.0416134
-0.986597
-3.81657
0
-2.35566
0
-5.40481
0
-0.685028
0
-4.9936
-1.14256
-3.03875
-0.884818
-3.70636
-3.6488
-3.42516
-6.486
0
0
-3.60007
-2.50878
0
-0.405974
-3.16895
-4.5994
-0.25185
0
-4.00549
-2.95063
0
0
-1.76813
0
-1.13234
-1.35171
-7.70879
0
0
-1.56916
-5.16388
0
-5.42702
-1.54886
0
-5.07776
0
-6.17517
0
-3.49271
0
-4.90764
-0.901351
-1.36649
-2.67123
0
-2.37886
0
-3.83752
0
-7.19393
0
-6.21439
-0.318094
-1.00346
-3.6163
0
-7.74591
-1.17133
-1.06948
-0.727475
-0.113437
-3.81663
-0.515896
-0.964092
-8.10915
-0.0753073
-0.976997
0
0
-2.06706
-0.562762
-1.10286
0
-0.105994
-0.657597
-1.93232
-1.3867
-2.36917
-1.24131
-2.46582
-2.78228
-1.50139
0
-1.02612
-0.28511
-6.37901
-1.20038
0
-5.56087
0
-5.22318
-5.44559
-1.57139
-4.67905
-3.9408
-5.45204
-1.27914
0
-3.84062
-2.77563
-2.08429
-0.928093
-0.159093
-3.28658
-0.718012
0
-4.33403
-1.24038
0
-2.19898
0
-4.72771
0
-2.80459
0
-1.7968
-5.89176
0
0
-5.40162
-1.6442
-5.35949
-0.818035
-6.24731
-0.171725
-1.738
-4.29368
-1.24831
-7.72653
-1.65882
-2.04131
-5.92668
-1.25287
0
-2.76789
-1.39168
-0.470655
0
-1.81953
0
-0.534313
-7.09638
0
-4.12557
-0.907857
-6.83967
-7.17857
0
-0.622106
-1.62011
0
0
-2.24879
-1.78874
-4.16952
0
-0.428533
-0.408672
-7.55019
0
-6.85899
-7.49092
0
-6.3289
0
-1.45571
-3.84468
-6.70501
0
-7.20675
-5.39882
-4.40072
-1.74298
-1.34679
-2.34085
0
0
-5.33903
-0.239012
-4.28869
-0.385053
0
0
-8.35132
-0.0427541
-3.20899
-0.785224
-3.1628
0
-8.77008
-0.588144
-6.96693
0
0
0
0
0
0
0
0
0
0
0
0
0
0
0
0
0
0
0
0
0
0
0
0
0
0
0
0
0
0
0
0
0
0
0
0
0
0
0
0
0
0
0
0
0
0
0
0
0
0
0
0
0
0
0
0
0
0
0
0
0
0
0
0
0
-0.298492
-1.23652
0
-1.45622
-0.835669
0
-1.65048
-0.37186
0.15512
-1.29524
0
-0.898222
-0.916028
-0.00317643
-2.01604
-0.707006
0.521138
-1.72474
0
-1.23107
-1.75868
-0.547275
-1.45886
-1.38935
-0.887727
-1.754
0
-1.41949
-1.1012
0
-0.830834
-0.883039
-0.10713
-2.98043
0
-0.167326
-2.63485
0
-0.26775
-1.33819
-0.419052
-0.751846
0
-3.11038
-1.25613
0
-4.96061
-0.068092
-0.0582679
-0.899381
0
-0.125951
-3.2576
0
-0.827076
-0.593312
-0.518857
-0.535646
0
-2.79881
-0.304881
0
-1.77311
0
-2.99409
-0.221194
-7.7338
-5.02312
-4.59672
0
-0.807376
0
-1.06293
-4.88767
-0.394881
-7.37317
-4.39133
-9.3279
0
-8.96451
-1.7927
-0.9075
-2.46006
-4.69537
0
-2.28919
-3.13668
-3.02532
-1.6763
-4.72161
-0.708783
-6.55233
-2.92133
0
-4.11123
-0.195361
-2.1951
-2.16369
-0.861867
-1.895
0
-1.85623
-2.40071
-0.339544
-1.293
-2.70868
-0.19921
-4.70343
-0.532793
-4.98144
-3.85918
0
-4.3937
-2.95715
-5.53309
-2.79683
-2.57415
-2.53615
-0.622573
-5.12206
0
-7.12328
-2.33624
-5.50081
-0.68201
-0.0893122
-3.44331
-2.99388
-4.4779
-2.81313
-1.79884
-2.42541
-1.20291
-4.84675
-0.542572
-4.82781
-3.12433
0
-0.890239
-7.29276
0
-2.73165
-2.10601
-2.70699
-1.95588
-4.17306
-0.85545
-3.75016
0
-5.20384
-3.26104
-5.44606
-7.25123
0
-2.23149
0
-8.15811
-0.82202
-1.58169
-4.60494
-0.638305
0
-0.627338
-0.697494
-0.306556
-4.05575
-1.04814
-0.101353
-7.40889
-0.769045
-8.51645
-0.35253
-8.05741
-0.317338
-6.31369
-0.447252
0
-0.816129
0
-5.93881
-1.09774
-3.89725
0
0
-6.20594
-0.131507
-3.16966
0
-0.172365
-3.89848
-1.66954
-4.22364
-3.66367
-3.30855
-4.43117
-1.07061
0
0
-4.03679
0
-3.06306
-6.44151
0
-3.75296
0
0
-0.568903
-1.99073
0
-5.2064
0
-2.50449
0
-6.27193
-2.46806
-2.04137
-1.20538
-3.12052
-2.48581
-0.278277
-3.88442
-1.93509
0
-0.721735
-1.38259
-1.57189
-4.49637
0
0
0
-9.28011
-1.38106
-2.5361
-4.31381
-2.58272
-4.02922
-3.50249
-0.532351
-1.23157
-4.80117
-0.368918
-4.43934
-0.580907
-0.609997
0
-3.66338
-8.73865
-2.35281
-3.7971
-4.26208
-4.42442
-2.868
-2.52556
-10.1425
0
-7.78617
-3.23886
-1.72544
-0.768584
-0.893675
-1.57176
-2.60322
-4.16433
0
0
-3.58765
0
-2.2512
-4.63008
0
-0.538146
-4.00513
-3.96503
-11.1284
-0.245221
-0.798705
-2.39023
-1.85307
-0.662747
-0.366893
0
-6.20584
0
-3.78662
-2.3109
0
-2.96218
-4.52116
-3.25372
-4.67136
-1.73438
-0.497869
-2.1037
-2.33447
-7.76647
-1.79002
0
0
-7.46661
-0.131293
-4.02995
-3.20306
0
-4.67411
0
0
-1.09401
-1.98516
-5.70197
-0.430721
0
-3.0054
-0.834437
-5.83847
0
-4.08891
-4.48658
-1.06773
-4.75795
-1.2859
-2.80293
-4.70328
0
0
-5.29223
0
-3.37426
-0.302266
-2.50872
0
-1.60549
-0.1977
-4.4264
-2.81208
-3.6318
-3.99147
-9.36448
-0.563433
-1.39459
0
0
0
-8.96971
0
0
-1.6244
-0.833467
-13.2131
-1.11507
-10.6741
0
-5.69189
0
-1.63581
0
-0.88989
0
-1.68567
0
0
-3.95356
-7.49124
-3.48083
-3.48542
-2.14554
0
-5.92332
-1.0612
0
-1.45858
-0.0363356
-4.79445
-0.0258549
-1.23191
-4.48247
0
0
-7.05567
0
0
-5.84457
-3.08798
-2.66486
-0.720979
-0.519545
-4.05986
0
0
-5.87692
-3.80709
-3.77966
-8.8123
-2.33521
-5.26978
-0.120737
-2.14667
-2.01938
-3.69571
-0.478221
-0.0189258
-8.47452
-1.22419
-6.84879
-2.39819
-0.802045
-2.98097
-3.30203
-5.28219
-7.64936
-1.18563
-4.07767
0
-6.63686
-4.63718
-0.995401
-3.78326
-3.6378
-3.08703
-3.89735
-4.52562
0
0
-0.913243
-1.28613
-7.18218
0
-0.930872
-0.0281165
-5.70452
0
-2.59947
-1.21818
-2.08704
0
-2.32145
0
-0.39702
-1.47884
-4.81852
-2.05162
-1.82741
-6.16906
-1.03803
-2.40032
-4.08083
-0.0364392
-4.3956
-1.3312
-4.3052
0
-2.41155
-0.469857
-4.85805
0
-0.0868992
-10.9028
-1.27945
-3.86381
-1.82696
-3.15876
-2.65948
-3.8317
0
-1.66195
-5.74044
-4.12758
-0.827055
-4.53679
0
-7.23795
0
-0.255657
-6.14288
-1.28655
0
-0.895468
-2.30064
-2.24172
-2.16165
0
0
0
-2.11494
-2.96471
-5.26135
-1.5164
-3.76235
0
-0.258271
0
-0.491067
-1.47074
-3.6324
-4.51272
0
-4.88578
-4.31668
-1.45143
-6.52334
-0.469141
-0.0460483
0
-0.778857
-1.5122
-1.78104
-3.57676
-3.63773
-7.04361
0
0
0
-3.26176
-3.59824
-0.339802
-5.43026
-0.679262
0
-1.51316
-2.28869
-0.924311
-2.32606
-1.74787
-2.90477
0
-5.88053
-2.25893
-5.28159
0
-10.7244
0
-3.34037
0
-3.52606
-0.571521
-0.205064
-3.99437
-2.75298
-0.931339
-3.34963
0
0
-1.55562
-3.51635
-3.4086
-0.131071
-1.9523
-6.06444
0
-0.820315
-2.25271
-2.54435
0
-1.8387
-2.08869
-0.485338
-3.73883
-2.34889
-2.72976
-0.0158192
-1.5863
0
0
0
-5.80743
0
-6.88844
-3.48338
-5.33276
0
0
0
-5.35526
-3.83612
0
-1.55186
0
-0.00923718
0
-4.1732
-0.849702
-0.0915211
-8.42113
-1.48719
-1.50999
-0.665629
-0.428664
0
-6.94313
0
-4.62364
0
-7.37904
-0.888908
-8.83913
0
-3.03509
0
-6.83856
-2.19629
-0.468547
-0.318364
-2.05667
-1.13394
-5.27283
0
-4.06861
-2.39137
-3.22176
-4.393
-4.07378
-0.939727
0
-1.76047
-2.0309
-1.90126
0
-1.64367
-3.10208
-0.819532
-4.05167
-2.89058
-5.22363
0
0
-5.5593
-1.35978
0
-0.585139
-0.51078
-0.0487743
0
0
-1.81636
-6.00357
-1.80921
-5.30509
-0.654687
-2.20792
0
-3.20347
-3.16282
-0.798164
-0.206667
0
-2.78668
-0.769696
-3.17699
-0.924149
-1.63828
-5.75922
0
-6.88795
0
-3.97194
-1.02425
-5.41013
-0.0239669
-1.99252
-0.347917
-6.55002
-3.44707
-4.12758
-0.625922
-3.16754
-8.85033
-1.19926
-1.66136
-3.48088
0
-2.97223
-3.26465
0
0
0
-6.49353
0
0
0
-5.93725
0
-0.869868
0
-1.45841
-2.76561
-1.72554
-0.572075
-4.4727
-1.03591
-3.50539
-2.80782
-0.505845
-1.50333
-2.45649
0
-2.09729
-1.85429
-5.23111
-4.85851
-5.65291
-2.64823
0
-4.18133
0
-4.96931
-0.323302
-5.14306
-4.90894
0
-0.594618
-3.35751
-0.130264
0
0
-1.25933
-2.84265
-1.3114
-5.58913
-1.18233
-0.299072
-4.81818
-6.0996
-2.77573
-4.95571
-1.04971
-4.03581
-0.0666644
-7.80262
-3.10119
-0.347478
0
-3.02056
0
0
0
-4.94771
-0.33603
0
0
-1.23812
0
-6.28549
-1.56887
-4.67318
-2.02026
-1.86856
-2.30559
-0.459843
-3.5797
-1.14582
-3.23919
0
-1.78874
-3.51455
-0.751182
0
0
-1.78459
0
0
-8.42134
-3.76686
-2.40325
0
-6.28068
-0.0688897
-6.26127
-1.1151
-1.0846
-1.58539
-0.145209
-2.73244
0
-0.689611
0
-2.85268
-4.33134
-1.14957
-0.716075
-3.38636
-1.3513
-3.56127
-2.38952
-2.25999
-3.57691
-1.69327
0
-2.96369
0
-8.06629
-1.8434
-8.71992
0
-0.656923
-0.727044
-6.84368
0
-7.63196
-0.782237
-1.15319
-1.18549
-3.6781
0
-2.82068
-7.96207
-6.63513
-0.114901
-6.5794
0
-0.452954
-1.27382
-2.39679
0
-4.94514
-1.17032
-7.07644
0
-3.97653
-0.181223
-0.581303
-7.46256
-1.49474
-2.82151
-1.31504
0
-2.86131
-5.57041
-5.05328
-2.98668
0
-1.35427
-10.0024
-5.31581
-4.96275
-5.44174
0
-2.19118
0
-6.82354
-0.160333
-3.23218
-3.38813
-7.87336
-0.195705
-11.1564
0
-3.8759
-1.85658
-0.851237
-2.60722
-3.09673
-5.98001
-0.477292
-1.04148
-8.18447
-1.09946
-1.56493
0
0
-0.707099
-0.183201
-1.14638
0
0
-1.31669
-5.91244
-2.96548
0
0
-0.0696614
0
-0.564266
-2.39923
-3.54001
0
-2.75495
-2.03243
-3.80481
-0.452118
-1.70416
0
-2.78852
-6.24807
-0.0882117
-0.170424
-2.33056
-4.98914
0
-0.72173
-6.79609
-2.25264
-6.53362
-1.3665
-5.75608
-3.15422
-4.41623
0
0
-0.752636
0
-0.447435
-7.37564
-1.82911
0
-3.1369
-0.984994
0
-5.33758
0
-2.09807
0
-3.88216
-1.85218
-0.782628
-1.07203
0
0
0
0
0
-7.10623
0
-1.09377
-1.03701
-5.97594
-0.397572
0
-1.08644
-0.887444
0
-5.54042
0
-6.17937
0
-1.2495
0
-5.28595
0
0
-1.35111
-0.138267
-8.11624
-0.881737
-3.52162
-9.4073
0
-7.48093
0
-9.59508
-7.23106
-8.22016
0
-3.05593
-10.554
0
-10.755
0
-3.6268
0
-6.07061
-3.2107
0
0
0
0
0
0
0
0
0
0
0
0
0
0
0
0
0
0
0
0
0
0
0
0
0
0
0
0
0
0
0
0
0
0
0
0
0
0
0
0
0
0
0
0
0
0
0
0
0
0
0
0
0
0
0
0
0
0
0
0
0
0
0
0
0
-0.0430343
0
0
0
0
0
0
0
-0.00719269
0
-0.469173
-0.122637
0
0
0
0
-0.0204299
0
0
-0.0590618
0
0
0
0
-0.501047
0
0
0
0
-0.0208282
0
0
0
0
0
0
0
-0.887975
0
0
0
0
0
0
0
0
0
0
0
0
-0.313873
0
0
0
0
0
-0.0408147
0
0
0
0
0.00326808
0
0
-3.25898
-0.996214
-1.81613
-0.343391
0
-5.05949
0
-3.5864
0
-3.76519
-0.463186
-1.21966
0
-1.84441
-4.19979
-4.30847
-4.57634
0
0
-3.42239
-3.74791
0
-0.175927
-0.353656
-0.79309
0
-0.408628
-2.93234
0
-4.06261
-3.56095
-4.3373
-1.79482
-2.70331
-0.417085
-7.64942
-0.101069
-3.35817
0
-4.92174
-1.601
-0.613179
-2.04073
-2.95806
0
0
-3.2632
-0.856996
0
-3.60506
-5.10387
-1.40657
-1.54289
-1.7202
0
-2.5675
-1.85745
-0.11673
-1.61675
0
-7.02755
-2.03229
-0.0269525
0
-0.733248
-0.351411
-5.37088
-1.70605
-1.00842
0
-7.69859
0
-7.81378
-0.661429
-0.861456
-5.15627
0
0
-0.941606
-1.64013
-2.14844
0
0
-5.78773
-0.55814
-2.2546
-0.239768
-2.12807
0
-0.572484
-6.00023
0
-0.409722
-5.09959
0
-5.83949
-2.76356
-4.09218
-1.15496
-6.5587
0
-0.600515
0
-0.0958172
0
-5.83669
-0.418797
-2.33071
-0.231328
0
-2.1484
-3.52459
-1.84099
-2.48122
-2.85189
-2.70942
-6.49226
-5.47951
-9.00806
0
-7.22768
-5.71936
-0.472279
-4.40693
0
-1.37663
-0.450334
0
-0.860494
-1.60898
-4.75845
-5.12107
-1.82677
-3.06968
-2.99682
-2.66888
0
-0.629388
0
-1.59048
0
-4.7727
-0.560515
-6.66978
0
-3.43217
-1.80738
-3.42398
0
-3.05079
0
-6.5246
-0.896049
0
-10.3969
-1.17081
0
-2.85757
-1.20798
-4.29397
-1.29584
-4.30082
-0.329172
-0.967723
0
0
-5.90401
-1.72549
-1.54287
0
-4.94617
-1.39729
-7.09589
-2.18755
-2.16078
0
0
0
-6.80805
-2.93177
-4.21206
0
-1.98014
-0.940991
-0.484645
-4.87252
-1.93983
0
-3.33966
0
-2.02411
-2.41344
0
-8.72324
0
-4.52264
-1.61761
-0.219778
-4.2997
0
-0.299113
-0.439657
-2.49249
0
-5.95275
-0.691871
-3.01682
-0.320904
-0.125328
0
-5.83255
-5.26643
-1.73889
-0.385784
-0.352895
-6.59806
0
-7.57585
-2.46566
-4.15378
-2.38946
0
0
0
0
-3.24194
0
-1.91411
0
0
0
-7.67133
0
-0.764563
0
-0.86641
-0.784698
-1.41551
-4.69836
-2.20009
-3.58729
-5.35789
-3.65275
-1.03955
-4.23967
-1.69527
-1.12251
-4.77347
0
0
-3.99741
0
-2.91005
0
-7.26049
0
-3.03141
-1.34404
-3.33645
-6.43941
-1.97979
-1.34756
0
-7.56617
0
-5.60302
-0.0996879
0
0
-2.833
-0.0693957
0
-0.78495
-3.6279
-3.63022
-6.25899
0
-0.144125
-0.820395
-13.2836
-2.84073
-7.89745
0
0
-0.186972
0
0
-4.18315
-2.22921
-7.90343
-0.370685
0
-0.385874
-0.709447
-2.9273
0
0
-0.421372
-1.96456
-4.72443
0
0
-2.87992
-4.26615
-3.15185
-3.64012
-1.44055
-5.14704
-2.94778
-4.1641
-2.22811
0
-1.3115
-2.21789
-1.48587
0
-0.457974
-6.20762
-1.39415
-4.11517
0
0
-10.8595
0
-3.50584
-1.52396
0
-4.45944
-1.3432
-4.98118
-2.65863
0
0
-7.01735
0
0
-6.93328
0
-4.006
-1.33653
-3.37764
0
-2.90726
0
-0.670792
-4.67748
-0.176643
-7.61139
0
-6.17644
0
0
-5.59849
-2.17725
-3.85529
-1.03979
-5.43426
-0.0607769
-0.523634
0
-2.21811
0
-0.271707
-2.68341
-2.51052
-0.329638
-3.27531
-4.54313
-4.54485
0
-7.73091
-0.695424
-0.203866
-2.34861
-1.35992
-0.670239
-3.04428
-3.81069
-3.51987
0
-3.00681
-2.82048
-10.0041
-2.9707
-1.72266
-3.72955
-1.71583
0
-9.48745
-1.8356
-0.425775
0
-2.24087
-2.0845
-1.73364
-0.617474
-0.316223
-6.01451
0
0
-1.91097
0
-0.909721
0
-4.13468
0
-3.78619
-0.429367
0
-7.93056
0
-0.433224
-6.79477
-3.13337
-2.16355
0
-5.82834
0
-2.66028
0
-0.944347
0
-2.263
-4.75707
-0.325812
-2.32232
-0.298803
0
0
0
0
0
-0.74626
-0.361844
-3.70204
-0.365591
-2.99507
-1.12851
-2.62701
-2.50776
-0.0327762
0
0
0
-6.67539
-1.36832
-3.31178
-1.96459
-4.96994
-0.988465
-1.33974
-2.96439
-1.35304
-0.857039
-2.57935
0
0
0
-2.73891
0
0
-2.04488
0
0
-3.9443
-2.37874
-5.21537
0
0
-7.78082
0
0
-1.06589
-1.93579
-0.0245115
-2.5538
-1.66872
-0.381321
-3.29648
-3.09875
0
-2.85713
-1.59073
-0.228382
-2.01965
-2.20221
-1.38545
0
-2.84487
0
-2.01602
-7.94682
0
-11.2969
-1.34765
0
-2.13755
-3.99642
0
-1.7008
-0.21678
-2.43495
0
-2.85595
-1.74371
-4.49329
0
-5.09668
-4.14814
-4.12485
-1.89775
-2.73596
-7.97471
-0.74692
0
-11.7549
0
0
-6.32865
-0.409195
-4.51261
-2.50663
0
0
-0.96976
-1.21395
-0.914151
-1.68758
0
-2.32177
-3.8972
-5.60765
-1.54546
-0.45192
-4.82023
-3.55878
-4.80034
-0.985544
-2.77978
0
-0.735907
-2.83162
-5.79423
-1.02468
-0.573274
-0.582424
-6.47711
-0.75331
-0.400998
-6.51819
-2.45787
-10.8603
-1.03188
-2.83876
-1.39731
-0.300212
0
-5.2396
-4.46644
0
-1.07205
0
-2.00831
0
-1.10909
-0.63629
-4.59281
0
0
0
-0.20576
-6.59864
-0.724884
-6.69948
0
-1.17261
-1.79446
-4.64278
-1.28928
-2.59625
-1.60261
0
-6.90203
0
-3.23405
0
-1.55631
-4.30477
-2.0702
0
0
-4.75097
-2.9391
-3.65976
-0.261237
-3.38775
0
-3.52889
-0.766008
-2.27029
-3.03268
-2.32891
-1.254
0
-6.18569
-0.00717295
-4.7019
-5.00328
-1.32638
0
-0.600254
-7.82965
-4.27174
-4.68146
-5.44589
-1.19831
-5.7519
0
0
-2.82637
-4.87669
0
0
-0.414782
0
-0.742598
-2.79837
0
-3.59784
-5.23341
-0.690408
-0.194559
-0.577047
0
-3.4622
-2.37268
0
-0.23633
-1.63131
-4.96765
0
-0.44774
-4.0939
-0.581171
-2.97955
0
-7.52004
-0.456475
-3.39638
-0.0755436
-1.55142
-2.7157
-0.91922
-5.13367
0
-2.35569
-3.06503
-0.510373
-2.90255
-0.0247303
-3.90025
0
0
-5.83048
-2.1876
-6.97184
0
-6.95183
-3.63327
-1.13762
-0.344938
-0.729636
-2.45265
-6.61288
0
-0.553454
-2.34755
-0.285809
0
-0.109345
-0.709694
-1.37909
-2.17241
0
-0.677302
-4.99738
0
0
-0.165497
-3.39222
-2.40521
0
-5.18102
0
-1.62402
-1.13354
-2.71913
-6.06123
-0.575901
-0.338655
0
0
-3.8912
-3.22834
-3.15726
-1.1663
-1.87397
-2.89398
-2.83951
-1.48089
0
-2.25984
-2.01581
-3.90071
0
-2.16177
-0.509248
-0.0277736
0
-3.57903
-2.99689
-2.40631
-3.49021
-1.9046
-1.50635
-0.69559
-1.94519
-0.0814176
-1.64569
-0.713157
-1.05696
-1.67882
-0.146666
-2.62084
-0.479714
-2.99036
-7.55578
0
0
0
0
0
0
-6.09079
0
-1.50369
0
-3.06218
0
-1.80552
-2.7272
-1.59209
-5.119
-1.70559
0
0
-0.880846
0
-6.12179
0
-2.97137
0
0
-10.9669
0
0
-1.93373
-1.33478
0
0
-4.51138
-1.14628
-4.15073
-0.0688168
-1.36665
-3.36437
-0.824482
-0.24577
0
-0.841456
-7.31188
-2.34691
-6.39635
0
-0.0303181
0
0
-7.34285
0
-0.522223
0
-3.97301
0
-2.35103
0
-6.1817
0
-7.65465
-0.149698
-0.347779
0
-8.0554
0
-7.29708
0
-6.68017
-0.0537571
-0.399047
-0.668644
-5.09555
0
0
-3.14993
-3.69663
-6.03763
0
-0.856099
-0.410941
-8.01634
0
-0.23965
-13.2514
-6.65326
-7.88756
0
-1.10841
0
-5.26151
0
-2.9351
-0.395615
-0.700318
-1.38626
-1.9775
0
0
-0.094162
-3.27116
-0.0930187
-6.53848
-2.90293
-3.60061
0
-3.61892
0
-1.22057
0
-3.83934
-4.42174
-3.5016
-4.59874
-1.16266
-6.756
0
0
-1.53496
-3.984
-5.33751
0
-1.3295
-2.32767
0
-2.16477
-4.95484
-0.0831422
-5.86608
0
-4.23671
-1.09249
-3.00568
-0.545093
-2.96408
-6.5576
-3.89793
-3.31752
-1.33336
-0.484874
-2.4066
0
-1.94644
-2.82881
0
0
0
-2.09295
-10.1132
0
-3.14294
0
-0.292674
0
-3.74096
-5.17062
0
-4.61135
0
0
0
0
0
0
0
0
0
0
0
0
0
0
0
0
0
0
0
0
0
0
0
0
0
0
0
0
0
0
0
0
0
0
0
0
0
0
0
0
0
0
0
0
0
0
0
0
0
0
0
0
0
0
0
0
0
0
0
0
0
0
0
0
-0.443606
-0.695595
0
-0.604468
-1.07312
-0.623545
-1.67321
-1.61438
-0.585264
-1.17716
-0.351414
-1.5478
-1.56089
0
-2.01271
-1.1294
-0.236134
-0.821167
-0.0395345
-0.778789
-1.01547
-0.00130256
-0.403328
-0.390081
-0.235584
-1.32659
-0.456417
-1.32664
-1.72395
0
-1.59879
-0.763963
-0.934093
-0.37908
0
-2.13145
-0.76575
0
-3.61634
-0.129839
-0.927523
-6.25194
-0.0815474
-0.276159
-1.75224
-0.5566
-0.429914
-1.3081
-1.12438
-3.41714
0
-3.33583
-1.19273
0
-3.16964
-0.386155
-0.19386
-0.959769
0
-0.665272
-1.47069
0.0345054
-0.428091
-0.512694
-6.68292
-2.69046
0
-1.99699
-7.03223
0
-5.75011
-1.6043
-6.35884
-2.29095
-3.47088
-2.77377
-7.64872
0
-6.76488
-0.481811
0
-3.58115
-2.92277
0
-1.93756
0
-5.51558
-4.67322
-8.52617
-3.12385
-1.56971
-4.78116
-4.35128
-1.1635
-0.910088
-1.37342
0
-1.47189
0
-0.516931
0
-5.02449
-3.28314
-0.609668
0
-0.884237
-6.10295
-3.13565
-2.81543
-5.19111
0
-0.0797851
-5.12031
0
-5.45259
0
-6.51582
-0.501783
-4.92112
0
0
0
-6.17307
-2.3198
0
0
0
-6.60043
-3.53646
-2.20953
-2.64811
-0.288186
0
-8.79704
-1.0912
-5.10889
-3.49073
0
0
-0.241203
-3.40336
0
-7.21972
-4.97958
-1.54488
-3.68523
-5.39182
-3.4812
-3.23744
-3.71381
-0.19147
-2.33523
-0.922088
-2.00942
-0.643059
0
-1.02136
-2.33869
-1.04118
-1.4224
-0.734097
0
-2.59739
-1.57945
-0.563474
0
-1.09726
0
-2.95082
-1.44045
0
-1.29433
-1.65666
-3.3745
-2.90282
-1.31521
0
-0.0823225
0
0
-0.674748
0
0
0
-2.94577
-1.8438
-0.217917
0
-4.2164
-4.20285
-5.66797
-6.0054
-7.83444
-4.07891
-1.71139
-2.33108
0
-5.32925
-0.617697
-1.39129
-0.399869
-5.22837
-3.83844
-4.8534
-4.31029
-3.53361
-1.65481
-0.554962
-0.0873443
-0.12583
-5.36094
0
-3.05703
-1.58967
-3.09761
0
0
0
-1.76647
0
-2.50946
-2.57649
0
0
-0.954474
-2.17909
0
-3.96782
-5.73777
-6.02432
-3.32468
0
-0.8683
-3.8026
0
-2.22859
-2.24431
0
-1.95894
-0.243423
-5.09098
-0.604839
-5.44124
0
-2.66152
-1.42065
0
-4.70807
0
-6.85606
-0.0663892
-4.91313
-1.93068
-3.91834
0
-5.34189
-2.16135
0
-2.55437
0
0
-2.75898
-1.7415
-3.01671
-1.50272
-3.74972
0
-8.10631
0
0
-0.38495
-7.99829
-0.753798
-7.47062
-0.414543
0
0
0
-8.33119
-0.449562
0
-2.8329
0
-1.10804
0
0
-1.7839
-2.37374
-1.45638
-4.46436
-0.285286
-2.72634
-3.81911
-1.01516
-7.35843
0
0
-1.61165
-3.53264
-6.09648
0
-9.31833
-1.89793
-1.93902
-1.85037
-1.97765
-1.51453
-4.27159
-1.28065
-3.95073
-1.60699
-1.89333
0
-8.16801
-2.43557
-3.54742
-4.92673
-3.51068
0
0
-5.3887
0
-2.23738
-0.0541243
-0.453229
-1.00979
-0.282898
-5.73376
0
-0.966097
-0.286961
-1.61695
-5.0111
-6.80551
0
-4.76569
0
-1.05733
0
0
-0.768829
-1.83413
-5.0908
-2.11434
0
-1.26861
0
0
-7.44763
-0.388111
-9.77208
-0.0373063
-0.655065
-0.030319
-2.22122
-1.37491
-1.03129
-2.72705
-0.908874
-1.86043
0
-6.74981
0
-2.56044
-0.24266
-2.62945
-7.34072
0
-0.193134
-11.7786
0
-2.11922
0
-3.37504
-1.19373
-6.31477
-0.792085
-0.179841
-0.164062
-5.65377
-1.39278
-6.36426
-1.1303
-0.522989
-10.0043
-3.88143
-4.43487
0
-1.37351
-3.85953
-1.8325
-2.15871
-0.616431
-6.42492
0
-5.49799
-3.72771
-8.54013
0
-9.8436
-2.8062
-1.56591
0
-6.91031
-1.691
-4.33132
-0.960771
-1.82414
0
-5.47037
0
-2.04614
-1.13805
0
-1.10072
-0.155893
-3.59873
0
-3.57374
-5.06577
0
0
0
-5.42701
0
-4.62094
-2.02784
-4.33549
0
-0.868358
-3.46162
-0.325088
-3.17155
0
-3.59653
0
0
-5.66337
0
-6.36356
0
-6.18682
0
-2.84671
-5.30932
0
-3.14078
0
-0.0178463
-8.64673
-1.13065
-1.24167
-2.2729
0
0
0
-3.59715
0
-4.3996
-1.73712
-5.19221
-3.62666
-1.20115
0
-4.13222
-1.35059
-0.404794
-1.7757
-3.65769
-0.612513
-1.54805
-0.884924
-1.63489
0
0
-0.554029
-5.30474
-0.338341
-1.1981
0
0
-0.131858
-2.12729
-3.73482
-1.22433
-1.62304
-3.27991
-3.24881
0
-3.39846
-2.84091
-1.1171
-6.61796
-4.13671
-5.42535
-5.03231
-3.84945
-5.64706
-2.17242
-5.25083
-1.86048
-0.0764618
-4.86852
-0.456738
-0.789381
-6.71866
-1.67672
-6.48315
-0.250935
-0.139584
-2.14449
-8.19725
-0.120844
-4.4406
0
-1.97336
0
-1.24903
-3.39773
-0.152259
-6.93132
-1.82202
-3.36746
-3.4939
-0.124537
-4.968
0
-2.21448
-1.6378
-2.40663
-0.347403
0
-6.46228
-1.90413
0
-1.53805
-1.56533
-3.07021
-1.42957
-1.8956
-0.465696
-1.18448
-1.87116
-1.49962
0
0
-0.754046
-2.8283
-0.0648483
-2.5017
-5.15421
-1.64833
-5.15899
-6.39165
-5.69239
-4.82055
-5.11762
-3.42671
-0.804796
-6.68291
-0.156944
0
-0.218434
-2.64884
-1.65977
-4.31313
-0.184537
-2.18795
-5.06859
0
0
-7.84704
-1.23835
-0.703231
0
0
-0.0947378
0
-7.79582
0
-3.40702
-13.2138
-0.155618
0
-3.23073
-0.559031
-4.68138
-1.48572
-7.10072
-0.303794
-3.71699
0
-9.4854
-3.59042
-7.02244
0
-1.27781
-1.50193
-0.25522
-0.722093
0
-0.715323
0
-1.82347
-1.38401
-2.56259
0
0
-2.72674
-4.66587
-2.17499
0
0
-7.10646
-4.0821
0
-0.922506
-1.24319
-4.92252
0
-1.61065
-8.25237
0
0
0
-3.54425
-1.62003
0
0
-8.03855
-0.0774816
-0.65855
0
-0.045907
-3.63153
0
0
0
0
-1.05147
-1.13716
-1.97697
-0.290184
-4.87983
-0.487506
-5.32091
0
-1.2552
-4.12906
0
-4.90779
-2.13061
-1.18316
-0.57745
-10.7241
0
-1.90201
0
-1.00656
-3.97112
-4.34158
-1.0228
-6.95114
0
-1.11352
0
-2.70514
-5.80826
-5.94274
-0.658239
-6.53413
-2.16987
-2.92411
-0.522624
-1.25799
-0.532966
0
-2.81814
-2.32264
0
0
-1.94274
0
-6.57206
0
0
-5.56211
-1.85209
-5.56431
-0.329563
-4.29692
0
-5.08587
0
-0.809794
-6.94248
-1.92527
-3.10368
0
-0.0280175
-1.78459
-3.56275
-4.18774
0
0
-7.13525
0
-9.49122
-1.34765
-0.127029
-6.47741
-3.31904
-1.8576
-0.405027
0
-1.93312
-0.0232021
0
-0.160532
-0.477447
0
-4.67807
-1.61078
-0.694564
-1.83495
-3.05608
0
-2.35686
0
-2.17875
-1.39058
-1.2287
0
0
0
-6.0043
-2.67677
-2.31576
0
-3.52896
0
-7.91045
-0.900726
-5.446
0
-4.39455
-1.46454
-4.02869
-3.78421
-3.84827
0
-1.30326
-0.81711
-4.66462
0
-8.17729
0
0
0
-6.53121
0
-4.96887
-0.604714
-2.80172
-7.13174
0
-1.50868
-0.862644
0
-0.841536
-0.292478
-1.78586
0
-1.63458
-0.161394
-8.83617
-5.34204
0
0
-3.7867
-0.738776
0
-3.56225
0
-2.8851
0
-1.87724
0
-0.612838
-1.64154
0
-3.65926
0
-1.58336
-1.26057
-0.217261
0
-0.860716
-1.42731
-3.24552
-1.50473
-4.19079
-1.35351
-7.76408
-0.633983
-10.961
-6.51907
-5.13729
0
-0.977552
-6.49859
0
-0.634417
-0.583355
0
-0.241829
-3.25029
0
-1.23019
-4.29032
0
-4.51926
0
0
-1.78391
-2.09987
-4.20684
-5.44174
0
0
-10.0962
-2.0182
-4.54857
-1.9486
-2.54678
-0.257828
-3.21758
-0.478654
-6.15321
0
-4.35903
-1.58155
-0.542037
-5.14134
0
-0.36231
-0.429506
0
-8.51169
-2.26293
-8.91555
-1.0439
0
0
-6.46638
0
0
-8.28851
0
-3.01535
0
-1.73794
0
-1.49192
-5.46838
0
-0.911921
-0.102165
-2.67853
0
-1.71052
-1.42751
-9.21099
-0.0436361
0
-1.9155
-3.05736
-1.12363
-0.132484
-2.90354
-0.441052
-0.747939
-0.461772
-2.71432
-2.52165
-5.30378
0
0
0
-0.662004
-1.40517
-0.708449
-2.3674
-1.78139
-4.73034
-0.488688
0
0
-0.630884
-6.96963
0
0
-1.27405
-1.15027
-1.73346
-0.514549
-9.21209
0
-4.13402
0
-4.93914
-0.616954
-2.03774
-1.08175
-2.00168
-1.0805
-0.132166
0
0
-3.88649
0
-1.12108
-0.0546468
-0.49192
-4.06786
-1.49545
0
-1.25818
-1.72391
-4.30699
-5.05961
-3.20331
-1.04488
-2.64871
-3.62519
-2.01412
-1.23151
-1.51564
-3.20774
-1.94448
-6.43835
-5.18446
-3.52131
-5.4784
-3.26792
-0.20062
-4.82296
-5.0595
-3.68861
-3.87778
-2.20378
-1.54274
-6.46694
-0.395229
-9.12312
-0.781382
0
0
0
-6.34918
0
0
0
0
0
0
0
0
0
0
0
0
0
0
0
0
0
0
0
0
0
0
0
0
0
0
0
0
0
0
0
0
0
0
0
0
0
0
0
0
0
0
0
0
0
0
0
0
0
0
0
0
0
0
0
0
0
0
0
0
0
0
0
0
0.0845408
-0.958217
0
-0.93226
-0.945701
0
-0.903002
-1.3796
-0.479518
-1.49645
0
-2.13017
-1.85057
0
-0.634272
-0.367776
-0.241139
-0.824759
-0.000960955