<?xml version="1.0"?>
<VTKFile type="RectilinearGrid">
<RectilinearGrid WholeExtent="0 32 0 32 0 32" Origin="0 0 0" Spacing="1 1 1">
<Piece Extent="0 32 0 32 0 32">
<PointData>
</PointData>
<Coordinates>
<DataArray type="Float32" format="ascii">
0 0.524874 1.04975 1.57462 2.0995 2.62437 3.14924 3.67412 4.19899 4.72386 5.24874 5.77361 6.29849 6.82336 7.34823 7.87311 8.39798 8.92285 9.44773 9.9726 10.4975 11.0224 11.5472 12.0721 12.597 13.1218 13.6467 14.1716 14.6965 15.2213 15.7462 16.2711 16.796 
</DataArray>
<DataArray type="Float32" format="ascii">
-5.03879 -3.62163 -2.20447 -0.787311 0.629849 2.04701 3.46417 4.88133 6.29849 7.71565 9.1328 10.55 11.9671 13.3843 14.8014 16.2186 17.6358 19.0529 20.4701 21.8872 23.3044 24.7216 26.1387 27.5559 28.973 30.3902 31.8074 33.2245 34.6417 36.0588 37.476 38.8931 40.3103 
</DataArray>
<DataArray type="Float32" format="ascii">
0 0.524874 1.04975 1.57462 2.0995 2.62437 3.14924 3.67412 4.19899 4.72386 5.24874 5.77361 6.29849 6.82336 7.34823 7.87311 8.39798 8.92285 9.44773 9.9726 10.4975 11.0224 11.5472 12.0721 12.597 13.1218 13.6467 14.1716 14.6965 15.2213 15.7462 16.2711 16.796 
</DataArray>
</Coordinates>
<CellData>
<DataArray type="Float32" Name="Scalar" format="ascii">
0
0
0
0
0
0
0
0
0
0
0
0
0
0
0
0
0
0
0
0
0
0
0
0
0
0
0
0
0
0
0
0
0
0
0
0
0
0
0
0
0
0
0
0
0
0
0
0
0
0
0
0
0
0
0
0
0
0
0
0
0
0
0
0
0.043899
-0.830155
0
-0.355455
-0.108173
0
-1.24073
-0.567735
-0.544416
0.143609
0
0.0611652
-0.320219
0.0159515
-0.329581
-0.821297
-0.0997101
-0.667414
0
-0.0401018
-1.12089
0
-0.397832
-1.09667
0.242886
-0.0287157
-0.262775
-0.855976
-0.502306
-0.143307
-0.524363
-1.00991
-0.188303
-0.104384
-0.191545
-1.38283
-0.240653
0
-1.54306
-0.148059
0
-1.27479
0
-0.252064
-0.79539
0
-0.0541936
-0.623935
-0.87305
-0.0995166
0
-2.07848
-0.570902
0
-0.994866
0
-0.0383539
-1.25492
0
-0.154166
-0.0323047
0
-0.492157
-1.14717
0
-3.07079
-0.80351
-4.88695
-2.23848
-0.661079
-9.09056
-5.26842
-2.97575
-2.32647
-4.03174
-5.95714
-0.547847
-4.30407
-2.69334
-1.62384
-5.53738
-2.36959
-3.57458
-1.16169
-2.76146
0
0
-1.29706
-7.97865
-1.07742
-3.24514
0
-4.31732
0
-0.993095
-5.82586
0
-1.76411
0
-0.02254
0
-2.97055
-3.60446
-7.42913
-0.103794
-2.79431
-1.1206
0
-0.271765
0
-0.242997
-4.77923
-0.383877
-2.71924
-1.49454
-0.765924
-1.64908
-0.914286
-2.36603
-0.383316
0
-1.75017
-3.40552
-3.43213
0
-1.33143
0
0
-0.385071
-2.21953
-5.07897
-3.7639
-0.865544
-0.100027
-3.69556
-0.207886
-5.30411
0
-6.3217
0
-2.85729
-4.38159
-0.0813016
-0.444075
-2.09728
-1.48774
-1.6535
-1.20519
-8.15988
0
-3.07543
-2.10561
-0.0486883
0
0
-0.673824
-5.39079
-2.0996
0
-1.3083
0
0
-0.0721597
0
0
-8.07545
-3.79598
0
0
-0.235634
0
-5.73935
-0.0462475
-1.02609
-0.764059
-1.84721
-1.46684
-3.59467
-5.25404
-0.534872
-1.1048
-0.879487
-6.8119
-0.28549
-2.80503
-2.32107
-3.59983
-1.84418
-0.448201
-0.907562
0
-2.17941
-6.86759
-5.04743
-3.48311
-4.52659
-1.05823
-5.07442
-0.0971504
0
-0.494031
0
-0.138842
0
0
0
-0.972981
-0.617833
0
-4.61283
0
-5.23741
-1.53876
-5.98504
-6.52809
-0.473727
-1.86378
-1.28028
-3.09673
0
0
0
-9.15288
-5.22901
-4.45537
-0.175663
-2.01838
-0.0268628
-0.720344
-0.0631214
-0.455611
-2.80716
0
-1.69418
0
-0.453356
0
-0.719738
-3.55718
-2.9414
-5.36496
-0.00797483
-4.52386
-2.94124
-1.12664
-1.1566
-5.28924
-1.09879
0
-2.01646
-6.86351
-3.14675
-3.70726
-5.89816
-5.03826
0
-4.37777
-2.75996
-5.64418
-1.24784
-2.993
-4.59902
-0.745719
-6.48232
0
-1.58401
0
-0.546974
-2.22648
-1.84403
-0.357444
-10.4116
-2.9829
0
-9.16746
0
-1.78702
0
-1.49121
-1.54904
-2.28337
-2.59079
-2.39315
0
-0.752123
-5.29854
-1.82454
-1.96691
-3.76871
-1.03799
-2.2325
-2.34981
-0.904267
-1.02947
-3.34079
-0.939232
0
0
-1.55495
-2.82069
-2.99909
-1.06219
0
-1.30518
-1.91414
-2.85428
-1.44924
-2.07068
-1.71949
-4.38159
-1.70991
-3.7129
-1.17858
-0.644377
-0.359585
-3.56103
-2.05611
-0.839889
-2.27912
0
-2.28075
-4.61048
-0.889863
-4.41902
-1.64049
-1.44787
0
0
-3.13727
-2.70204
0
-2.75489
0
0
-5.94158
-3.87391
0
-5.38696
-0.243406
-3.56038
0
-0.0976059
0
-0.445572
-5.26946
-2.42692
-2.96984
0
-4.36145
0
-3.01767
0
-0.471899
0
-0.443467
0
-2.40997
-1.93422
-5.70103
-0.518558
-7.15436
-2.29121
-2.22623
-2.54291
-1.16817
-6.69819
-0.796739
-2.3438
-2.73779
-3.73763
-1.56217
-4.30681
0
0
-5.09095
-2.31685
-3.4537
-6.53017
-1.62489
-5.24318
0
-2.8749
-2.29795
-0.0854028
-2.06525
0
-2.34224
0
0
-1.14399
-3.75886
0
-2.84931
0
-4.42149
-0.966537
-3.82961
0
0
-0.997281
-0.645032
-2.16677
-1.15085
-0.514405
0
-6.71099
0
-2.00976
-0.0177621
-4.414
0
-5.10723
0
-5.12518
0
-5.45347
-5.71799
-0.31193
-1.32764
-0.645042
-0.348626
0
-10.464
-2.55267
-3.38575
0
-1.54905
-3.453
-0.200727
-0.223021
-6.10051
0
-1.69468
-4.55043
-0.455533
-5.1201
-2.15898
-6.50717
0
-9.70744
-0.161155
-1.1922
0
-1.28946
0
-0.99684
-0.916364
-3.30373
0
-6.1283
-0.811457
-8.96573
0
-7.44251
-0.846304
0
0
-0.994616
-6.04076
0
-0.631936
-1.6267
-0.0692733
0
-4.19097
0
0
-6.29873
-3.42188
-1.85644
0
0
-3.0192
-2.55952
-3.04765
0
-9.45092
-0.486404
-2.01591
-1.17169
-3.33166
-1.76679
-2.97292
-0.894118
-3.91576
-0.428817
-0.105882
-6.10717
-2.26482
-3.87834
0
-3.15938
-1.41961
-4.2877
-2.55173
0
0
-3.95611
0
-2.57816
-3.76736
-2.51332
-2.79317
0
0
0
-3.6869
-3.50635
-0.701629
-3.94801
-5.1203
0
0
-1.34289
-0.759277
-1.11794
-0.246506
-0.205019
-0.686011
-3.51625
-3.50019
0
-7.29628
-0.438958
-6.04121
0
-0.931054
-3.35399
0
-4.37282
-2.51108
-0.126234
-3.10011
-4.714
-0.890266
-0.780734
-1.65384
-5.64001
-2.94342
-0.0569551
-2.7238
-2.24557
-1.56997
-4.62511
-0.621345
0
-1.56031
-0.533862
0
-0.935957
-5.98107
0
0
-1.96732
-4.83396
-0.167531
-1.70499
-0.978263
-1.89504
-1.32255
0
0
-1.647
-2.46406
-4.16765
0
-4.02425
-2.23015
-0.460011
-2.74473
-3.55683
-0.0423446
-3.71047
-4.24429
-2.61364
-8.51999
-1.22668
-7.41596
-2.58167
-3.4739
0
0
-4.20159
0
0
-1.30875
-1.46732
-7.62334
-0.694453
0
-6.34215
0
-5.31441
-3.59054
-2.86373
0
-2.78976
-7.35725
-2.33544
-4.28838
0
-3.58459
0
0
0
0
0
-1.56744
0
0
-3.21017
-1.55808
0
-6.80245
-0.843326
0
-1.51748
-4.67979
0
-7.05184
-0.760445
-2.1791
-3.5309
0
-0.413835
-1.79143
-7.44238
-1.67036
-4.83736
-0.160154
0
-1.59493
-3.82364
-1.1083
0
-4.26988
0
-5.19833
0
-4.79613
-3.65614
-2.94553
-1.22687
-7.24442
0
-3.45574
-0.637151
0
0
-1.28105
-0.298565
0
-1.15767
-0.0811934
-2.82676
0
-6.95833
0
-5.06497
0
-3.46979
-1.9845
0
0
-1.89763
-0.0111491
-4.40978
-0.376686
-0.348168
-1.47936
-4.63197
-2.94915
-0.857726
-2.25005
-3.48477
-1.90778
-3.86624
0
-5.09477
-1.0574
-10.3359
-4.56474
-8.61652
0
-0.847004
-0.803544
-4.16844
-0.573434
-2.63005
0
0
-10.717
-1.36628
-3.15305
-1.67591
-1.62399
-1.18691
-0.678643
-1.17829
-0.534965
0
-1.25746
-2.83993
-3.93256
-1.67321
0
0
-0.632964
0
-4.1252
-0.527979
-4.02443
-0.618625
0
-1.0798
-0.23405
-0.109101
0
-2.92565
0
-1.12658
-3.2902
-0.225061
-1.41535
-0.0809945
-7.8932
-1.5553
-10.4323
-3.58772
-2.64295
-8.61201
-0.184431
0
-0.0524725
-3.64756
-1.66283
-4.15876
0
-1.19632
-1.77855
-7.33309
-4.17755
0
-1.08972
-0.382497
-2.98502
-8.43759
-2.00697
-0.804513
-1.79252
-1.5252
0
-5.84986
-0.000289591
-3.20139
-0.0592661
-0.629933
-0.77516
0
-0.658433
-6.62342
-2.07601
-1.87536
0
-5.52551
-4.214
-0.933482
0
0
-0.986592
0
-2.46351
-1.21281
-1.1525
0
-7.02005
-2.69314
-1.42321
0
-0.634832
-0.811594
-4.13464
-1.59389
-1.22661
-0.451862
-2.73623
-5.25478
-4.00714
-1.66096
-3.4105
0
-1.38408
0
0
-6.5639
-1.67162
-1.25833
-0.278852
-2.75604
-0.860043
-12.2754
-6.77402
0
-7.25019
-0.194636
-2.70709
-0.225839
-2.72221
-0.935862
0
-1.36288
-2.82413
-1.10693
-3.12779
0
-2.93879
0
-0.0110681
0
-4.87919
0
-0.562787
-1.14342
-2.86682
-2.89122
0
-4.40812
-1.27818
-4.35794
0
-1.93773
-2.43297
-2.7261
0
0
-0.661846
-0.71224
-3.73694
-1.74514
-3.44973
-0.255204
0
0
-0.148605
-10.1312
-0.270998
-5.02587
0
-2.76153
-6.76339
-1.01089
-0.121398
-5.73978
0
-6.50094
-1.14674
-2.7069
-6.65055
0
0
-2.75697
-0.392508
-6.46317
0
-2.41727
-7.04528
-1.7974
0
-5.23394
0
-0.535874
0
-4.31621
-0.096523
-5.32288
0
-2.7975
-6.13154
0
0
-2.01944
-1.74687
-6.25065
0
0
-1.52438
-2.61808
0
-4.18649
0
0
-2.88107
-5.28722
0
-1.10813
-1.63447
-4.99526
-0.275644
-3.39409
0
-9.58214
-3.88219
-1.39644
-4.63271
0
-2.68367
-2.25995
0
0
-5.47734
-0.729457
-2.38202
-0.315508
-0.102698
-3.04088
0
-0.641362
-6.84464
-4.76425
0
0
-5.75921
-4.31484
-1.75169
-0.888332
-6.48835
0
0
-0.737808
-1.94073
-15.1822
0
-2.23514
-3.46481
-7.26432
0
-4.9426
-0.817894
0
-5.79383
0
-5.99067
-0.445107
-2.23462
-1.5932
-1.37022
-5.29369
-0.671677
-3.65139
-2.81624
-1.20841
-6.22667
-5.51571
-2.20791
-6.70863
-2.07787
-4.61489
0
-0.750611
-0.333398
0
0
0
0
0
0
0
0
0
0
0
0
0
0
0
0
0
0
0
0
0
0
0
0
0
0
0
0
0
0
0
0
0
0
0
0
0
0
0
0
0
0
0
0
0
0
0
0
0
0
0
0
0
0
0
0
0
0
0
0
0
0
0
0
-0.530668
-1.24918
0
-2.19702
-1.89181
0
-0.809696
-1.03273
0.04481
-1.6795
0.017803
-0.894645
-1.73396
0
-2.04865
-1.46315
-0.637263
-0.521632
0
-1.43229
-0.681385
0
-2.32215
-1.37133
0.0889376
-1.41649
-0.151568
-1.29985
-2.35027
0
-2.2569
-0.992199
-0.539445
-2.11601
0
-0.163075
-2.77032
0
-0.842196
-1.52632
-1.77125
-2.3407
0
-2.35189
-0.303544
0
-2.17906
-0.465458
-0.473252
-2.63936
0
-0.911627
-3.71989
0
-0.117671
-2.32634
-0.660446
-1.34963
0
-2.5096
-0.148405
0
-1.16439
-0.122334
-2.29941
-2.90876
-1.81738
-3.56088
-6.05133
-0.245047
-4.58475
-1.62916
-4.69594
-6.83416
0
-1.03082
-2.54799
-0.766312
-2.3733
-3.53754
-1.22891
-6.4114
-1.4398
-4.18943
-2.91076
-3.22228
-4.66556
-1.47592
-1.03297
-4.52825
-1.69724
-1.27371
-2.51474
-2.6811
-1.31124
-3.99807
0
-3.60575
-1.02519
-5.65726
0
0
0
0
0
-2.77753
-1.60942
0
-6.969
-0.0703809
0
-2.89639
-0.808074
-0.411246
-0.061511
0
-2.5115
-5.44103
-4.32744
-2.26974
-0.818253
-3.54422
-2.53816
0
-2.66827
-0.44186
-0.631997
-6.34925
-1.23065
-0.0804818
-1.98895
-2.55534
-6.35166
0
0
-2.99469
-2.31054
-1.71887
-1.62405
-3.76324
-2.17018
-4.72706
-4.12754
-2.5129
-0.0488926
-2.00919
-4.30527
-0.753052
0
-4.81396
0
0
-3.40841
-1.15872
-2.98468
-2.12307
0
-1.10765
-4.71343
-0.99645
-5.22024
0
0
-4.90962
-1.63514
-3.20846
0
-4.45401
-4.85658
-5.94244
0
-4.98143
-0.811644
0
-5.13107
-0.897729
-6.56115
-2.236
-2.25678
-0.812507
-2.96876
-6.07618
-3.2029
-2.73665
-0.568445
0
-0.317268
-2.32809
-0.13099
-2.65951
0
-2.18129
-1.26765
0
-2.47655
-4.36988
-1.06143
-1.63843
-0.837573
-6.4255
-0.919455
-9.66466
-2.65797
-4.18997
-2.90687
-8.19724
-0.657968
-6.23317
-0.0813356
0
0
0
-0.689178
-1.14036
0
-0.563928
-5.53665
-1.61277
-0.328507
-1.00871
-4.8404
-0.672896
-0.314981
-2.26127
0
-4.2388
-3.41777
-5.32151
-1.11181
-4.15516
-0.210775
-4.25995
-1.92888
-0.617284
-1.32907
-9.54819
-1.88544
-2.82776
-0.030204
0
0
-0.794354
-3.73765
-2.78024
-3.33244
-0.288497
-1.21412
-0.623859
-7.72013
-0.991549
-1.40494
-1.51501
-1.49936
-0.0959669
-1.40375
-7.59286
0
-1.58223
-0.00791426
0
-1.11539
-3.48335
0
0
-9.44173
0
-6.76925
-1.81868
-0.328114
-3.03271
-4.1778
0
-3.13169
-2.6536
0
0
-4.66816
-0.628843
-0.894281
-1.92595
-0.803518
-3.26728
-1.31768
-0.352223
-2.4099
0
-2.99991
-2.22571
-0.790862
-1.03781
-1.03814
-0.576889
0
-1.01412
-3.19743
-0.239178
-5.30222
0
-4.11012
-1.71416
-0.366535
-5.40814
0
-4.59325
0
-2.43442
-2.70216
-6.61907
-0.771374
-4.28144
-0.585957
0
-3.79407
-1.80282
-7.82219
-0.841907
0
-2.88291
-1.81387
0
-1.25846
-1.69111
0
0
0
-3.8257
0
-3.23549
-0.636224
-0.665517
-4.84325
-3.37448
-6.10499
-2.73363
-6.18483
-0.259833
-2.71529
0
-2.35923
-4.33979
-2.28389
-3.72502
-1.01475
-2.52612
-0.631844
0
-1.10616
-3.17065
0
0
-0.75575
-4.68161
-1.5397
-0.643819
-0.161478
-5.18503
-1.94759
0
0
-1.59723
-1.6939
-2.36172
-2.04251
-7.03094
0
-2.10564
-0.321338
-1.57242
-1.63113
-1.89208
-1.91126
0
0
0
-2.70869
-0.636624
-4.13725
0
-2.35087
-3.24363
-4.62539
-6.1423
-1.25054
-5.33339
-8.39941
-5.46271
-2.2901
-2.01691
-1.57754
-4.86759
-2.98205
0
-0.93528
-1.80291
-0.428582
-0.999033
-4.56865
-1.08986
-4.67674
0
0
-3.14183
0
-1.14971
-0.31625
0
0
-3.92734
-0.251507
-1.34208
0
-1.45975
-1.53992
-0.305323
-3.56154
0
-2.5746
0
-0.707017
0
-7.47377
-1.36445
0
0
-2.92107
-4.02882
0
-1.49875
-3.46397
-1.20434
0
-2.8283
-3.16459
-2.68321
0
-0.918346
0
-1.88308
-2.43642
-0.398077
0
-3.47726
-0.224733
-3.254
0
-2.06342
-6.46617
0
0
-1.545
-1.46975
-3.14446
-0.333981
0
-0.857551
-4.39031
-1.14243
-1.20439
0
-0.412661
-0.898924
-3.42561
-4.84831
-4.57699
-0.615312
0
0
-0.101871
-0.710375
-2.42966
0
-5.80173
0
-4.60297
-2.13645
-2.47981
-0.854477
-1.25148
0
-1.80102
-2.61748
-0.105725
-1.25797
-5.28481
0
-5.30981
0
-2.92572
-0.203308
-1.42726
0
-1.1293
-0.309786
0
-1.79452
-2.28933
-4.61547
-1.46946
-6.72776
-2.61192
0
-1.2507
0
-2.70198
-2.63817
-3.54181
-0.117681
-1.85973
-1.61407
-0.749231
-0.295074
-7.77676
-1.35812
-2.86321
0
0
0
-5.24108
-4.81261
0
0
-5.66651
-2.7335
0
0
-0.191772
-1.83551
-1.15838
-4.57915
-2.71617
-2.49969
-0.940778
-0.0329185
-2.21966
-1.73249
0
-3.97904
0
-2.65878
-5.17573
0
0
-0.0917852
-0.656049
-8.14667
-1.61881
-1.26196
0
-4.87954
0
-0.556606
-1.47079
-7.13749
0
-0.461649
-3.98673
-5.73746
0
-7.76092
-1.0043
-9.19841
0
-1.54557
0
-0.503596
-3.90899
0
-3.82563
-0.230187
0
0
-4.87125
-1.75075
-0.274895
-0.0561734
-2.55779
-1.55644
-1.42326
0
-1.93612
-6.76291
0
0
-0.988869
-3.28236
0
0
-0.56305
-0.84031
-6.96992
-0.64315
-0.816118
-4.9153
0
0
-5.34989
-2.24451
0
-0.688386
-4.17332
-2.44902
-7.46908
0
-6.39725
-0.667693
-8.98152
0
-2.63726
0
-4.84881
0
-3.36459
-3.72986
0
-0.765831
-6.3298
-2.35911
-0.794694
-0.696515
-0.30778
-0.344326
-6.87475
-2.96105
-4.43828
-2.95366
-1.02206
-0.757967
-1.45105
-0.868573
-1.41004
-6.72517
-0.278473
-3.67991
-6.0665
-2.08035
-0.327715
0
-0.458962
-2.38857
-1.19158
-0.371169
-4.17993
-0.185793
0
0
-1.61984
-1.11816
-4.23081
-1.64703
-2.829
-4.35413
-1.64664
-4.50354
-5.81588
0
-2.09057
-0.383662
-0.962793
-1.3749
-0.91873
-0.216725
0
-3.20149
-5.92279
-3.1799
0
-1.06795
0
-3.2317
-4.61513
0
-1.33847
0
-3.89015
0
-0.102757
0
0
-1.42571
-2.91087
0
0
-0.345875
-6.28508
-6.83017
0
-2.41334
0
-0.506581
-1.92745
-1.94865
0
-1.03594
0
-4.68132
0
-4.15224
-0.0716158
-6.8431
0
-5.42944
0
-1.98807
-4.14151
0
-5.0429
-1.56924
0
-6.37571
-2.17266
-4.93933
-2.24626
0
-3.45273
-0.583464
-2.55837
-3.39341
0
0
-0.226079
-5.87475
-3.84404
-0.400295
-6.79725
-1.73811
-4.82025
-2.44944
0
-5.30801
0
-0.409625
0
-8.273
-0.993202
-2.52378
-0.72456
-6.39632
0
-4.34744
-1.21043
-1.54376
-0.0147238
0
-5.23453
0
-7.50661
-1.04986
0
-8.51853
-1.89272
-8.2501
-2.71107
-0.655838
-2.85867
-0.250941
0
-3.29837
0
-5.62038
0
-1.53998
-5.52731
-1.68112
-5.07749
-3.61714
0
-4.60754
-0.999382
0
-2.32992
-2.13059
-5.22922
-3.48348
-9.57142
-1.13921
-7.28622
0
-0.115304
-1.67576
-1.4839
-2.98651
0
0
-3.92012
0
0
-0.374072
-1.87773
0
-2.05215
-5.3268
0
-3.22726
-1.26969
0
0
-0.19062
-4.58983
-1.3716
-1.9896
-0.502298
-6.01493
-3.64032
0
-0.842499
-1.84235
-0.483731
-2.47246
0
-0.0432878
-0.381833
-1.41159
-1.20105
-0.476639
-3.66824
0
-6.62692
0
-2.07275
-1.27567
-1.7435
-8.0433
-1.23077
-4.69467
-3.60079
-1.30986
-0.273817
-5.70709
-1.88397
-3.69651
-1.1168
-1.47872
-0.896768
0
-3.90269
-3.91447
-6.65282
-2.04703
-2.44782
-3.43057
-1.90288
-5.67059
-1.28873
-1.30589
-0.393617
-0.0200453
-3.33832
-5.56999
-3.6127
0
-7.50905
-5.33416
0
-0.827208
0
-1.14684
0
-1.02154
-9.021
-0.689091
-1.97953
-1.23071
-1.75468
0
-0.997899
0
-1.69563
0
-0.219075
0
-6.29696
-0.0651196
0
-4.28508
-2.26077
-4.95874
-3.79492
-0.545764
-7.86365
-1.31261
0
0
-0.750261
0
-9.52292
0
-3.99496
-1.57845
-3.8741
-1.7601
-5.52944
0
-0.466648
-0.927072
-1.88026
-0.68722
-1.20294
-5.47382
0
-1.91761
0
-1.58376
0
-6.8957
0
-4.74201
-1.9418
-3.78572
0
0
-1.66696
-5.43715
-6.81456
-4.42828
-1.32205
-2.32655
-3.67999
-0.0599573
-0.421024
-6.89677
-0.440441
-0.653336
0
-3.12429
0
-1.33693
-2.10306
-6.8412
-5.83233
0
-0.199983
-2.87247
-7.41734
-0.228209
-3.24046
-2.81338
-0.380077
-5.04956
-5.64645
-2.0341
-7.25087
-0.393565
-8.64723
0
-8.75131
0
-2.33059
-3.04334
-1.46294
-0.965433
-0.690685
-5.06803
0
-2.29824
-4.08876
-4.91212
-1.06194
-7.72148
-4.52398
-2.39217
0
0
0
0
0
0
0
0
0
0
0
0
0
0
0
0
0
0
0
0
0
0
0
0
0
0
0
0
0
0
0
0
0
0
0
0
0
0
0
0
0
0
0
0
0
0
0
0
0
0
0
0
0
0
0
0
0
0
0
0
0
0
0
0
-0.00175238
0
0
-0.0519499
0
0
-0.0788964
0
0
0
0
0
0
0
-0.184317
0
0
-0.275823
0
0
0
0
0
-0.0185032
0
0
0
0
0
0
0
-0.0395913
0
0
0
0
0
0
0
0
0
0
0
0
0
0
0
0
0
0
0
0
0
0
-0.225563
-0.0137882
-0.0640068
0
0
0
0
0
0
0
0
-1.7665
-0.437107
-0.0872517
-3.10395
-1.96782
-1.7572
0
0
-4.03298
-1.05167
-3.70326
-3.47542
-3.24251
-0.827513
-4.77735
0
-3.07045
0
-3.34146
-0.385111
-0.813988
-0.150517
-6.26164
-0.048969
-5.04939
0
-1.95389
0
-3.78609
-0.503494
-0.909369
-0.828943
0
-0.928226
0
-9.26315
-1.00372
-9.23503
-0.655894
-0.421201
-0.631872
-2.20922
-4.33514
-0.869539
0
-6.36504
0
-5.32197
0
-2.76118
-4.91544
0
-0.14345
-0.283151
-7.1171
0
0
0
-1.25829
-3.9046
-2.53995
-2.75645
0
0
-3.77584
0
-0.111704
0
-5.29295
-2.06881
-3.19287
0
-1.39045
-0.0404153
-2.54768
-1.63094
-3.9894
-0.334549
-4.48928
-3.53896
-2.58077
-2.83801
-2.54712
-0.812546
-2.76099
-1.69099
0
-3.19371
-2.64419
-0.750079
-1.54455
-1.13522
-5.2519
-0.245096
-0.40972
-3.04598
-2.27123
-4.82403
-0.337978
-2.07287
0
-3.61321
-0.680209
-0.171187
-1.17489
-0.821774
-1.20463
-3.26161
-0.208746
-0.574611
0
-1.14189
-0.0969344
-2.21091
-3.64933
-2.2854
-2.7831
-3.71088
-4.66806
-1.47874
-3.68123
-2.98171
-0.120711
-4.95794
-0.199211
-5.61759
0
-1.60924
0
-2.01411
-1.43444
0
-2.42054
0
0
0
-1.87719
0
-6.36145
0
0
0
0
-7.1684
-1.87857
-7.46982
-0.738369
-10.0943
-2.96376
-3.33803
-0.800223
-0.199991
-4.55255
-3.71352
-4.9638
-0.550625
-0.950871
-3.68459
-1.1876
-6.67534
-2.32868
0
-0.904608
-0.667042
-2.67869
-2.50825
0
0
-6.96399
-0.251164
0
0
-3.0355
-3.73528
-2.76431
-9.70467
-0.214029
-3.42838
-2.81281
0
-1.70299
-4.94581
-3.8206
0
-2.29958
-1.20786
-1.63788
-1.18107
-2.13742
-0.948882
-3.48298
0
-2.40966
-1.46664
-2.30551
-1.69085
0
-5.71189
0
-2.19526
0
0
-0.237875
-3.23854
-0.253821
-1.06409
-0.917326
0
0
-7.07183
0
-0.129528
-3.06682
-3.35627
-2.96995
0
0
0
-3.32342
0
-2.21968
-0.405216
-3.64785
0
-3.61054
-1.3799
-0.129446
-4.16794
0
-0.271975
0
-4.45266
0
-2.94243
-2.42726
-4.23172
0
-2.84604
-3.43047
0
-1.58208
-4.03191
-0.216959
-2.11965
-0.63803
-6.63356
-0.593558
-0.76176
-2.21266
-1.15939
0
-10.8137
-5.02149
-2.90134
-7.3852
-4.34004
-4.24968
-5.86459
-1.62003
-5.09696
0
0
-1.44938
0
-2.63931
-1.65018
-0.590142
-1.59753
0
-4.09013
-0.482902
-1.7113
-0.159195
-2.77986
0
0
0
-0.604694
-0.799084
-1.36823
-1.08345
-0.274054
-4.70744
-5.34813
-5.32346
-3.91269
-1.70894
0
-3.00182
0
-0.470512
0
-4.9123
0
-1.27326
-3.53608
-2.60772
-3.93659
0
-1.08146
-11.5602
0
-6.49541
-4.52523
-2.2158
-2.78778
-4.60457
-1.21496
-8.8703
-2.19974
-4.95713
-4.06012
-5.9048
-5.1556
-0.580145
-1.00187
-4.80923
0
-0.73463
-1.16669
-2.47172
-6.74114
-0.810957
0
-4.848
-1.14527
-3.93502
-0.249163
-1.37049
-2.26058
0
0
-0.563365
0
-1.32117
-3.10027
-0.353688
0
-2.12527
-1.49343
-3.92089
-3.30874
0
-3.95072
-2.71913
-3.17392
-4.29293
-1.42651
-3.00951
-1.42307
-8.47457
0
-7.01481
-1.99427
-3.30601
-0.41623
-3.02798
-5.65056
0
0
-1.11239
-0.463002
-4.80995
-0.993087
-1.94271
-3.79919
-2.16431
-0.987567
-4.64364
-5.74794
-2.29894
-5.40181
-1.24595
-0.706503
-2.73031
-1.13625
-3.44725
-5.64707
-1.37157
-7.2908
0
-2.11716
-8.48896
-2.34233
0
-8.8212
0
-6.09566
-0.753983
0
-1.35204
0
-2.90842
-1.29418
-5.5149
-3.21458
-2.26277
0
0
-3.85943
-1.80525
-4.30648
-4.26365
-2.35257
-3.79868
-0.797935
0
0
-7.91562
-1.04006
-4.68759
-4.80114
-2.42871
-0.0607909
0
-1.3516
-5.66705
-1.69614
-4.35336
0
-3.26833
-1.90022
-3.2
-5.0226
-3.8947
-7.32195
-0.241172
-0.237651
-5.84144
-3.63323
-0.452818
0
-6.20386
0
-2.1951
0
-7.46701
0
0
-1.83362
-0.5041
-0.998136
-2.23691
-1.38545
-1.73734
-0.575179
0
0
0
0
-4.7287
-11.681
0
0
0
-5.9643
-1.35449
-0.341574
-2.70846
0
-1.07453
-1.15337
-3.07973
-0.208903
-2.62727
0
-6.73273
-3.10447
-0.168324
-5.67903
-5.55897
-2.31213
-7.50492
-0.417077
-1.70125
-2.77301
-3.74116
-1.04614
-4.58369
-0.124075
0
-12.3469
-1.10476
-1.67733
-0.112482
-1.36867
0
0
-8.97499
0
0
0
-0.661315
-1.00059
-6.18267
0
-6.01812
0
-8.17077
0
-3.20687
0
0
-0.751673
-3.26245
-0.22416
-5.0718
0
-8.52849
-0.562062
-8.18899
0
-1.60722
-1.58923
0
-0.841465
-2.66664
-10.5876
0
-1.21656
-4.56843
-0.468562
-3.61612
-2.01169
-0.15778
-6.15621
-0.354895
-1.93577
-3.894
-11.5993
0
-2.37346
-2.15741
-5.17829
-5.15249
-0.714582
0
0
0
0
0
0
-0.301358
-5.2691
0
-2.19715
0
0
-6.22864
0
0
-1.93956
-2.32028
-4.86272
-0.0414123
-1.67295
-0.503709
-3.23524
-1.51182
-0.259365
-0.0905226
-1.05742
0
-9.42645
-0.279202
-0.114987
0
-2.5345
0
-2.56554
-6.38364
0
-1.329
-1.42011
0
-0.97096
-2.72882
-0.800964
-2.71672
-1.10987
-4.05038
0
0
-1.2936
-2.86017
0
0
-1.03416
-0.463251
-2.33112
-5.20112
0
-8.76239
-0.611522
-6.03133
0
-8.75618
0
0
-4.74836
0
-1.23515
-0.218638
-3.13726
-0.041592
-0.969824
-3.92094
-0.841995
-3.09146
-0.832665
-3.33198
0
-4.12205
-0.629232
-2.20093
0
-5.10114
0
-2.45217
0
-1.33928
-4.15851
-5.29366
-2.24649
-1.93728
-2.46451
-1.88705
-10.8283
-0.699506
-4.03274
0
-1.5248
-0.996751
-0.738566
0
0
-0.571596
-1.56351
-1.30159
-1.98611
0
-3.20595
-0.211772
-2.64543
0
-2.77815
0
-0.0228604
0
-0.366628
-2.78811
0
-7.05452
-0.781965
-4.32267
0
-2.09486
-2.84727
-1.18237
-2.46999
0
-1.03949
-4.10092
-1.15568
-5.63025
-0.780909
0
-1.64236
-0.302045
0
-4.31514
-2.96861
-0.580165
-6.51354
-2.3644
-5.04386
-4.4692
-1.62964
0
-2.38773
-1.79436
-1.0069
-9.85652
-0.878901
-5.56849
0
-1.21122
-1.39333
-3.44559
0
0
-2.87402
-3.27034
0
0
-5.73948
-0.552049
-0.565206
-2.44945
0
-5.66886
-1.16254
0
-0.538976
0
0
-1.50641
0
-0.562817
0
-1.66361
-1.3355
-2.88976
-0.0262868
0
-5.18038
-6.59344
0
-1.2867
-0.471383
-3.81644
0
-5.71896
-1.09407
0
-0.0846608
-8.04061
0
-0.573818
-3.60967
-5.4665
-1.15218
-1.2548
-2.71406
-2.22997
-6.44235
-0.311519
0
-2.58453
0
-0.654877
-1.3374
-0.903196
-7.92546
-0.268635
-8.41611
0
-7.45773
0
-3.18159
0
0
-6.07116
-3.08481
-3.68033
-2.97754
-1.70169
0
-5.97505
0
-4.35051
0
0
-1.6167
-0.625563
-0.36136
0
-5.83947
0
-2.68889
0
0
-7.52724
-0.492793
-3.48662
0
0
-2.96059
-2.44625
0
-4.75841
-1.63301
0
0
-3.17967
-0.14055
-1.85734
-1.05709
-8.27269
0
-8.33182
-0.384904
-6.72501
0
-3.4005
-4.55301
0
-8.49474
-3.68966
-0.0431261
-7.79946
0
-6.81972
0
-1.81964
-1.91298
0
-3.19332
0
-4.38506
0
-1.82268
-1.07166
0
-1.83705
0
-9.47868
0
-1.14921
0
-1.20579
-3.71758
-2.60102
-6.40573
-1.89105
0
-3.96329
-8.12231
0
0
-0.920123
0
-1.5003
0
-3.47137
0
-3.44288
0
-3.06068
0
-5.69293
0
-1.19804
0
-6.12066
0
-0.041643
-0.70657
-2.02439
0
-6.30661
0
-0.38616
-1.9904
0
0
-4.40033
0
-1.50909
0
-1.40022
0
-1.33379
0
-3.6138
-1.01563
-2.41159
-0.361764
-2.49738
-1.96732
-3.36781
-5.51174
0
0
-5.51298
0
-3.29424
0
-1.03685
-2.29394
-1.35955
-3.54479
-0.751563
-1.70486
-7.78938
-4.34057
-0.590062
-7.65464
-4.6406
-1.7598
-5.14694
-2.15089
-1.42493
0
-3.54554
0
0
0
0
0
0
0
0
0
0
0
0
0
0
0
0
0
0
0
0
0
0
0
0
0
0
0
0
0
0
0
0
0
0
0
0
0
0
0
0
0
0
0
0
0
0
0
0
0
0
0
0
0
0
0
0
0
0
0
0
0
0
0
0
-0.750339
-2.3634
-0.105063
-1.18674
-1.129
-0.0299996
-1.78726
-1.48668
-0.210939
-2.03214
0
-1.32086
-1.2745
0.0223853
-1.01504
-0.75255
-0.240953
-1.15804
0
-1.8363
-1.35315
-0.284612
-1.51257
-0.940264
-0.669691
-0.564361
-0.0856551
-1.59303
-1.38072
-0.0792574
-2.66398
-0.379604
-0.955779
-2.13024
0
-2.03321
-0.529999
0
-3.62734
-1.85802
-0.701885
-1.59076
0
-2.30217
-2.02244
0
-0.150339
-1.60005
-0.628539
-1.94579
0
-1.81198
-0.839521
-1.35503
-3.49174
0
-0.180689
-2.03187
-0.062938
-0.707726
-1.95861
-0.0416861
-0.430654
-0.904262
0
-3.541
-3.27487
-0.928409
-5.44421
0
-1.9566
-0.877651
-2.53526
-0.557093
-1.03659
-2.32561
-3.46397
-1.7953
-6.90997
-0.581553
-5.78562
-1.79992
-3.94828
-1.54201
-2.68246
-4.42624
-2.01404
0
-2.97023
0
-2.42352
-0.385466
-1.89416
-1.21338
0
-5.71685
-6.70308
-0.717413
-9.58983
-0.470507
-0.963667
0
0
0
-5.52334
-5.23204
0
0
-1.36716
-0.233321
0
-0.596561
-1.95398
-4.76198
-0.221193
0
-3.62849
-0.947356
0
-5.2945
-1.87978
-4.99824
-9.33053
-0.469038
0
-1.09315
-3.80538
-1.27851
0
-1.19985
0
-3.25394
0
0
0
-4.69813
-0.823346
-0.0278265
0
-6.42378
0
-3.8331
-2.82701
-1.06185
0
-2.6149
-3.2885
0
-4.37279
-0.612072
-2.18918
-2.0648
-2.73403
-1.48275
-1.67757
-3.83796
0
-0.129646
0
-4.50826
-4.13008
-0.0575313
-1.40591
-3.29962
-0.446748
-6.75679
-4.11515
-3.06608
-5.22577
-9.13541
-2.35338
-3.02744
0
0
-4.2943
-0.770549
-5.40818
-0.237875
-7.60078
-2.27903
0
0
-3.033
-4.6028
-0.599257
0
-2.42902
-0.375071
-0.0873831
0
-1.46566
-0.367899
0
-4.16584
-1.99973
-4.11158
-1.27615
-2.98761
0
-3.46569
0
-1.80419
-1.41453
0
-4.01984
-4.13275
-4.60651
-3.16675
-3.79749
-0.802045
-0.997673
0
0
0
0
-0.162317
-0.56642
-0.18789
-2.04868
-0.977127
-4.21704
-0.320368
-1.74544
0
-0.806899
-0.926945
-5.9522
0
-4.8037
-0.51617
-5.88156
-2.077
-6.67182
-2.11842
-1.80651
-2.24994
-2.05457
-2.3384
-1.37811
-1.71605
0
-0.909885
-1.40155
0
-5.21529
-4.70838
0
-0.548356
-3.93521
-0.75011
-1.30112
0
-8.57164
-2.70263
-1.11598
-1.39572
-0.261684
-3.61886
0
0
-1.33906
-0.792355
-0.84682
0
-0.966703
-5.00479
-1.97575
-10.0469
0
-8.5979
-1.81646
-8.94607
-7.12855
-3.43039
0
-1.1864
-8.37117
-3.41092
0
-3.41094
-1.60259
-6.14817
0
-0.755385
-0.0933127
-1.86737
0
-3.69388
-0.736987
-2.28129
-12.3828
0
0
0
-2.70893
0
-2.27409
-0.521232
-4.98872
-2.37665
-0.481388
-4.78298
-2.66767
0
-3.53288
0
-3.83296
0
-1.33064
0
-1.41422
-0.147486
-6.0825
-0.526354
-8.53212
-3.41092
-0.156885
0
-0.757329
0
-3.73397
-0.511008
-2.14288
-0.0966434
-7.65237
-7.91941
-3.74726
-5.42037
-1.09242
-3.31676
0
-5.58267
-0.499797
0
-0.00960435
0
-0.765132
-3.72222
-0.410189
-4.75
-0.828402
-3.85123
-6.1127
-2.7122
-2.57855
0
-8.44295
-2.30316
0
-4.109
0
-10.0369
-2.10347
-1.4673
-3.31116
-2.02036
-1.8596
0
-4.97409
-0.566626
-9.16286
0
-2.35724
-3.05763
-7.18617
0
-5.79863
-0.0560777
0
-2.02272
0
-8.23578
-3.4482
-0.569198
0
-1.30746
-3.79451
-0.0403421
-3.05962
-1.75792
-3.03554
-3.40825
-1.33589
-6.61523
-9.02008
-1.5805
0
-4.05294
-2.09215
-3.29661
0
0
0
-0.906347
0
-5.41633
-0.134485
-4.25162
0
-3.82227
-0.145914
0
-6.92479
0
-1.1031
0
0
-2.62244
-2.94971
0
-10.7911
-0.027376
-4.01537
-2.7188
-3.14137
-1.30975
0
0
-5.13124
0
-3.26671
0
0
-9.52575
-3.85843
-6.87115
-3.05191
-4.44556
0
-2.41529
-0.829539
-1.73572
-1.50513
-3.98694
-1.21996
-0.423156
-0.760383
-0.775854
-1.18372
-4.40917
-3.27565
-3.39638
-1.92163
-0.890695
0
-1.21011
-6.60039
0
-1.91723
-0.257672
-0.440432
-2.45964
-1.89785
-0.89842
-5.95513
0
-0.946811
-0.479005
0
-0.667997
-2.80657
-1.32055
-1.96409
-4.55559
-4.53421
-2.16793
0
-5.57223
-0.300386
-3.88149
0
-8.23302
0
-0.0316908
-0.410314
-2.01742
-1.76243
-1.56074
-5.05816
0
-5.72967
0
0
-3.84882
-0.933043
-1.87443
-4.68681
-0.395284
-1.9772
0
-0.69888
-7.6697
-0.0429198
0
-5.67383
0
0
-2.67032
-1.11916
-9.26984
-0.0586399
-5.00982
-0.868396
-6.68424
-2.35776
-5.97508
-0.579231
-0.246823
-3.69411
-1.95242
-3.18596
-0.0987562
0
-6.72538
0
0
-1.18946
0
-8.81458
-4.96881
0
-0.596432
-3.98184
0
0
-1.44032
-0.382978
-4.69729
0
-2.9956
-0.491626
-0.236961
-2.10095
-4.75136
0
-1.86106
-5.70367
-2.99755
0
0
-4.97378
0
-0.387837
-2.69642
-2.61074
-3.45873
0
-6.97754
-3.29665
-6.29955
0
-3.90526
-3.49722
0
0
-10.6034
-1.3653
-10.6309
-1.92889
-0.189421
-4.37949
-2.85617
0
0
-2.26327
-8.46017
0
-5.80496
0
-6.82819
-0.259045
-6.77165
0
-0.169502
0
-1.23652
-2.08084
-0.597528
0
0
-2.92988
0
-1.65258
-5.6946
-6.72508
0
-5.11073
-4.41381
-3.77491
-0.0927666
-0.0786451
-6.66284
-1.76492
0
-0.750077
-3.77624
-1.01723
-0.848173
0
-1.96005
-0.0180265
-4.39344
-1.35672
-0.296062
-1.42082
-1.40086
-4.61923
-1.99551
-7.5686
-0.67625
-4.57475
-0.463488
-2.44539
-0.309489
-4.82003
-2.51899
-0.334059
-0.819773
0
-0.819923
-5.46903
-0.506256
-2.77578
-4.20017
-4.79264
-2.03403
-1.6905
-1.43549
-1.06048
0
-7.59538
0
-3.99819
-3.76748
-3.34072
-0.751426
-6.86093
-0.245833
-10.1028
-3.9851
-0.131093
0
-0.595983
-0.106894
-0.122557
0
-5.36184
0
-1.01003
-1.14701
-7.0258
-0.515172
-1.70135
-1.96257
-4.88276
0
-8.84198
-0.81759
0
-2.25632
0
0
0
-10.5136
0
0
-5.58176
-1.31518
-1.84721
0
0
0
-2.65775
-4.06879
0
0
-1.13061
0
-5.59506
-2.29773
0
-0.847751
0
-5.23972
-2.75309
-1.13697
-3.82748
0
-1.67737
-6.78584
-3.69135
-9.62281
0
-6.83228
-2.04076
-3.69996
-2.63816
-5.91672
0
-5.63393
0
-4.46427
-0.0181232
-1.87869
-0.0834359
0
-5.02117
0
-2.78914
-4.41956
-1.64109
0
-6.64409
0
-6.7656
0
-2.02131
-2.2191
-0.345659
-0.517059
0
-0.0200715
-1.05835
-1.60217
-1.18692
0
-5.38457
0
-3.25138
-0.148446
-0.580718
-3.50732
-0.139538
-3.3199
-3.13312
0
0
-1.00097
-5.21442
0
-2.29634
0
0
-4.29633
0
-2.26009
0
0
-0.0186274
-0.30315
-1.36949
-4.0953
-7.43795
-2.81594
-6.74371
-7.57113
0
0
-6.03982
-0.746151
-5.6951
-2.67294
-4.97242
-5.67645
-2.42006
0
0
-2.87161
-3.41718
-2.5268
-7.05507
-0.365835
-0.0581663
-2.5793
-1.3801
-2.5926
-1.25255
0
0
-1.78804
-2.25932
0
-0.406497
-6.3973
0
-0.606795
-1.37084
-0.214965
0
-7.05091
0
-0.192046
-4.41366
-1.01923
0
-0.727143
-3.62339
-1.57088
-0.848762
0
-0.188116
0
-0.142581
-1.48623
-0.503632
-2.90371
-2.32217
-4.25009
0
-0.472655
-6.86982
0
-3.902
-6.79811
-2.22323
-11.8485
-1.69688
-4.3378
0
-2.93968
-0.155433
-4.32738
-6.66068
0
-1.67376
0
-2.74506
-0.031398
-4.26216
-1.07319
-3.80701
0
0
-0.821301
-1.71244
-3.84162
-3.97771
-1.66904
0
-1.64615
-2.78384
-4.7676
-1.06108
-0.957305
0
-2.48079
-1.00912
-0.00405808
-0.951963
-0.815492
0
-1.80887
-8.05272
-0.88374
-1.41439
-0.533443
-0.201127
0
0
-2.9442
0
-4.38883
0
0
-0.996033
-0.241716
-2.59592
0
-0.682393
-4.95519
0
0
-1.24487
-0.580787
0
-3.7494
-2.65672
-1.55473
-5.24842
-3.13651
-7.39086
-0.613024
-2.93496
-4.44831
-1.14719
-4.45555
-5.83372
-4.54662
-1.22525
-8.01189
-9.03847
0
0
-4.99437
-5.2987
-1.9251
-6.21369
0
-1.73519
0
-2.19387
-0.0664966
0
-1.00683
0
-3.43846
0
-4.46161
-0.765212
0
-1.41752
-3.35405
-0.166544
-4.41145
0
-1.12497
-1.7171
-3.40745
0
-2.43793
-0.0861662
-0.548469
-7.0642
0
0
-4.23087
-0.75779
0
-1.90295
-2.42854
-3.56235
-3.39095
-6.04944
-1.14144
-9.03158
-0.847941
-3.30138
-2.60896
-3.42133
-0.709879
-4.49099
-1.60998
0
-3.20296
0
-3.49635
-0.409557
-1.93886
-5.4119
0
-1.58157
-4.20123
0
0
0
-0.192313
-6.56453
-2.10246
-8.03831
-7.75774
0
0
0
0
0
0
0
0