<?xml version="1.0"?>
<VTKFile type="RectilinearGrid">
<RectilinearGrid WholeExtent="0 32 0 32 0 32" Origin="0 0 0" Spacing="1 1 1">
<Piece Extent="0 32 0 32 0 32">
<PointData>
</PointData>
<Coordinates>
<DataArray type="Float32" format="ascii">
0 0.524874 1.04975 1.57462 2.0995 2.62437 3.14924 3.67412 4.19899 4.72386 5.24874 5.77361 6.29849 6.82336 7.34823 7.87311 8.39798 8.92285 9.44773 9.9726 10.4975 11.0224 11.5472 12.0721 12.597 13.1218 13.6467 14.1716 14.6965 15.2213 15.7462 16.2711 16.796 
</DataArray>
<DataArray type="Float32" format="ascii">
-5.03879 -3.62163 -2.20447 -0.787311 0.629849 2.04701 3.46417 4.88133 6.29849 7.71565 9.1328 10.55 11.9671 13.3843 14.8014 16.2186 17.6358 19.0529 20.4701 21.8872 23.3044 24.7216 26.1387 27.5559 28.973 30.3902 31.8074 33.2245 34.6417 36.0588 37.476 38.8931 40.3103 
</DataArray>
<DataArray type="Float32" format="ascii">
0 0.524874 1.04975 1.57462 2.0995 2.62437 3.14924 3.67412 4.19899 4.72386 5.24874 5.77361 6.29849 6.82336 7.34823 7.87311 8.39798 8.92285 9.44773 9.9726 10.4975 11.0224 11.5472 12.0721 12.597 13.1218 13.6467 14.1716 14.6965 15.2213 15.7462 16.2711 16.796 
</DataArray>
</Coordinates>
<CellData>
<DataArray type="Float32" Name="Scalar" format="ascii">
0
0
0
0
0
0
0
0
0
0
0
0
0
0
0
0
0
0
0
0
0
0
0
0
0
0
0
0
0
0
0
0
0
0
0
0
0
0
0
0
0
0
0
0
0
0
0
0
0
0
0
0
0
0
0
0
0
0
0
0
0
0
0
0
0.276043
-0.191651
0
-0.227108
-0.826574
0
-0.382968
-0.248205
0.005212
-0.219927
0
-0.334298
-0.603973
0
-0.409231
-0.164906
-0.0461583
-0.848033
0
0.0759911
-0.135339
0
0.161703
-0.665768
-0.26983
-0.656461
0
-0.966112
-0.622083
-0.0726848
-0.563057
-0.3602
-1.90486
-0.0966932
0
-1.10059
-0.832635
0
-0.754293
0
0
-1.63346
0
-0.57909
-0.341698
0
-3.26393
-0.557064
-1.24453
-0.311266
0
-0.671714
-0.0710057
-0.426388
-0.678309
-0.141985
-0.223611
-1.08646
0
-0.472344
-1.35059
-1.0977
-0.448521
-0.538045
-1.16786
-6.12086
0
-8.06924
-3.80931
-6.57933
-2.29883
-2.96087
-0.0183457
-0.198578
-2.01777
-5.84377
0
-0.558747
-2.11707
-0.221068
-6.21836
0
-1.2762
-1.24562
-1.57379
-1.22885
-5.54436
-0.0208315
-4.11377
0
-1.22805
-2.34969
-3.65189
-2.61521
-1.51202
0
-3.59354
-0.0120729
0
-2.37546
0
-1.19692
-0.29982
-1.83013
0
-5.92273
0
-4.85348
-1.29521
-2.89149
0
-5.37682
-0.513582
-2.37903
0
-2.00346
-1.35707
0
-0.575091
-8.34158
-2.33252
-5.39448
-5.0173
-0.635762
-0.317581
-3.35843
-0.706156
-3.93631
0
0
-3.48949
-5.90166
-4.22484
-5.80492
-0.00816962
-3.19701
0
0
0
-0.259604
-5.32548
-1.76699
-1.84898
-1.69564
-0.710471
-3.25742
-1.27391
0
-0.906755
-9.41633
-6.77602
-3.00524
-8.23477
0
0
-0.766442
-6.28314
-0.459527
-5.12271
-3.74227
-1.3944
-3.09032
-3.09386
-5.65885
-2.30767
-2.19639
-3.87034
-0.376816
-8.30496
0
-8.29444
-0.404611
-0.156914
-3.87088
-0.724174
0
-1.37223
0
0
-1.76079
-5.79082
0
-0.787776
-0.769854
-0.886346
0
-1.50963
-5.84441
0
0
-0.546422
-4.27983
-3.37898
-7.15596
-0.351371
-0.972081
-4.32875
0
0
-5.30348
-4.89253
-4.1562
-0.0327481
0
-1.28371
-0.810735
0
-3.59656
-2.45571
-4.94252
-0.359277
-0.934869
-0.408033
-7.31237
-4.57556
0
-1.42834
-2.54384
0
-7.8177
-0.052498
-5.27982
-0.31939
-7.43819
-6.95843
0
0
-2.20347
-2.38546
-1.44494
-1.94606
0
0
-1.142
-0.940176
-8.83305
0
-1.32342
0
-1.20721
-7.19264
-0.101835
-0.129808
-0.502344
0
-3.50025
-0.412674
-4.92006
-5.62935
0
0
-4.06464
-0.493628
0
-5.10258
0
-0.0156127
-2.09861
-9.11376
0
-1.83676
-3.86791
-5.173
-5.04427
0
-4.07932
-1.09618
0
-2.64207
-1.41148
-1.97325
-3.95029
-2.77245
0
-4.6373
-5.47356
-4.05961
-8.96546
0
-3.20816
-1.63846
-1.14177
-4.42426
-6.34987
-0.208584
-2.02841
-0.411559
-7.05085
-6.45218
-0.723237
0
0
0
-1.84135
0
-4.27858
-1.37501
0
0
-3.30462
0
-1.2657
-4.20211
-0.592108
-0.471348
-1.50777
-0.618309
-0.570167
-7.35844
-0.479543
-1.25941
-4.01258
-1.33737
-4.71005
0
-0.396747
-6.15563
-1.32526
-4.54166
0
-4.62444
-1.64873
-2.78316
0
0
-2.10438
0
0
-1.61252
-1.11312
-1.79709
-2.48566
-1.68907
-10.5465
-3.5573
0
-0.282372
-4.77466
-2.74718
-3.60174
-1.34647
-1.05697
-1.20315
0
-4.15587
-0.938972
-4.30853
0
-4.56059
0
-6.11557
0
-1.08297
0
-1.19409
-2.75346
0
-1.17498
-0.32663
-3.56719
0
-10.0121
-0.303371
-6.11623
0
-3.13134
-0.450678
-3.40858
-0.513672
-4.26499
0
-3.75862
0
-3.49367
-1.38541
-4.60788
0
-4.81592
-0.141066
0
-0.423061
-0.984275
-0.729648
-0.235742
-4.14234
-1.71398
-3.60442
-1.94196
-4.51226
-0.236061
-4.10405
-0.425071
-0.399441
0
-0.0960444
-1.13845
-3.37025
0
-4.75482
0
-2.36924
-3.06239
-3.09239
0
0
-0.265296
0
-0.649198
-6.69237
0
-11.8723
0
-0.668685
-5.01432
-1.98662
-6.00254
0
0
-2.9684
-2.32421
-0.917125
-0.80629
0
-4.01329
0
-4.50513
0
-2.44775
-1.57586
-0.822955
-2.49423
-0.38363
-3.30693
-1.19044
0
-2.77518
-4.09624
-1.96639
0
-5.00752
0
-5.21858
0
-6.42614
0
-2.75381
-3.23889
-3.34383
-2.7443
-2.6109
0
0
-8.45192
0
-5.2839
-1.50409
0
-1.22795
-4.74881
-1.70358
0
-3.18538
-6.73715
-1.99137
-0.723642
-1.55074
-0.422015
-3.82403
-1.02066
0
-8.28282
0
-11.4915
0
0
-7.89246
-1.11528
0
-2.20511
0
0
-1.60408
-0.5812
-1.35761
0
-5.45233
0
-3.51179
0
-0.827891
-5.40289
0
-0.0922753
-0.193087
-0.75297
-2.35486
0
0
0
0
-6.63431
0
-1.3397
-0.519087
0
-1.46416
0
-0.0885427
-3.16764
0
-0.29736
-1.49673
0
-3.59034
-5.01969
-0.40063
-0.0663833
-6.64109
-2.66271
-1.04249
-0.412176
0
-2.22636
0
-0.128335
-1.26266
-1.72291
-2.8018
-9.21157
-0.838542
0
-0.87539
-0.520568
-2.53573
-7.73142
-5.65205
0
0
-0.0298522
-2.07171
-0.988059
0
-8.83388
-0.614136
-2.03071
-3.24514
-0.400023
-6.28268
-3.35068
-4.93826
0
-1.56254
-1.07878
-2.33543
-0.697067
0
-0.236111
0
-1.82577
-2.32349
-2.97668
-0.836367
-1.12355
-2.92016
-0.733267
0
-0.562378
-4.76487
-2.00157
-9.95034
-2.85026
-2.57875
-1.07784
-2.25109
-0.699866
-1.01145
0
0
-6.56968
-0.9068
-6.76095
-1.64048
-5.61895
-4.11442
-3.07748
0
-7.90501
-0.0281077
-3.07563
-2.23191
-1.05844
-4.91499
0
-9.78885
-0.432398
-8.15522
0
-6.19531
-0.443574
-1.85556
-0.917436
-2.04113
-0.395676
-0.87569
0
-8.12889
0
-3.69824
-3.43447
-2.95128
-2.92488
0
-4.04457
-2.28423
-0.33118
-6.54241
-1.12341
-0.813152
0
0
-0.86938
-3.02671
-0.0524513
-0.213635
-0.15542
0
-0.974309
0
0
-2.04466
0
-3.46317
0
-0.850715
-2.30086
-0.733471
-0.499467
-0.129055
-2.63451
-1.89548
-1.63973
0
-1.66116
-6.42976
-0.256584
0
0
-5.25052
-2.41561
-0.581934
0
-6.17259
-0.236738
-6.46411
0
0
-3.66702
-1.25522
-8.22445
0
-0.492258
-0.781729
-5.62253
-4.3798
-2.19101
-3.65838
-3.1667
-0.640795
-0.977822
-3.4521
0
-3.31539
0
-1.2996
-1.84482
-2.72317
-1.21417
-3.90697
-0.416473
0
-2.35606
-6.01387
-0.779881
-1.43617
-3.38861
-4.75432
-3.11081
0
-9.06675
0
-7.10067
-1.12852
-5.37959
-1.25372
-9.46105
-6.5
-6.83394
-1.14208
-10.2224
0
-10.6143
-2.84483
-4.6246
-4.3434
-0.402666
0
0
-2.99948
-4.09327
-4.31413
-0.267917
0
-1.70431
-1.62544
-3.25333
-5.66186
0
-1.49603
-3.73007
-0.237782
-5.94597
0
-1.38196
0
-0.441568
-0.0382982
-0.410336
-2.52993
-2.16298
-4.81293
-1.25568
-8.90478
-4.08077
-0.508489
-0.0484678
-1.38167
-2.74852
0
-2.67678
-3.47399
-2.32097
0
0
-0.391621
-0.831658
0
-1.4314
0
-4.41534
-0.149481
-7.418
0
0
-2.90849
-3.89514
-2.65499
-3.30822
-2.5365
-8.42797
-1.61023
-2.05204
0
-3.32617
0
-0.260599
0
-10.5799
-1.2019
-11.2941
-0.4004
-1.5395
-2.01298
-5.31699
0
-4.9725
-1.20288
-3.15765
0
-0.333149
-2.99467
0
-0.0926003
0
-1.75481
-5.36744
-4.8237
-0.495106
-2.77948
-1.0115
-7.59014
0
-2.21201
-4.02446
-1.16514
-6.50542
0
-2.98056
0
0
0
0
-0.587566
0
0
-2.39667
0
-3.64931
-1.60877
-3.42586
-2.70178
0
0
0
0
-6.08365
0
-1.16596
-7.72281
-0.122307
-4.23162
-0.302565
-0.423565
-1.5716
-2.31992
-3.214
0
-0.695073
-2.95718
0
-0.618564
-3.16231
-2.12087
-0.531616
0
-0.298588
-2.80884
-3.16277
0
-1.82155
-0.388682
0
0
-0.161311
-5.28427
-0.451289
-0.751344
-2.56344
-4.18821
0
0
-1.60342
-1.14964
-0.170525
-0.63309
-1.57391
-0.239398
-3.10409
-1.18945
-7.50418
-0.379528
-5.05731
-1.63071
-1.0515
-0.536763
-0.679407
-5.72376
-0.342219
-4.4118
-1.0751
-1.86728
0
-1.99504
0
-2.93695
-3.03236
-4.83297
-1.25001
-2.81125
-5.49539
-2.86183
0
-2.35648
0
-3.30007
-1.2055
-5.48678
-6.99486
-0.203996
-1.17103
-5.52902
0
-0.923063
-2.49564
0
-0.624755
0
-2.42493
-3.71652
-1.69158
-2.04433
0
0
-0.337247
-6.11441
0
-7.93919
-1.15799
-2.20766
-0.571425
-7.15196
-4.15297
-3.4475
-5.56289
-1.74065
-7.21228
0
-3.27176
-0.799679
-4.08644
-0.290706
-3.88506
-1.83667
0
-1.00474
-1.36964
-1.29901
-2.45438
-6.44189
-0.158712
-1.48094
-2.57628
0
-5.1622
0
-4.56234
-2.9989
-3.80467
-7.93014
-1.81372
-1.94582
-2.70892
0
-2.26635
-0.408236
-2.70032
-4.13951
-1.04992
0
-2.38109
-0.923681
-3.08875
-0.55443
-5.79399
0
-0.782166
-2.89688
-0.543851
-2.13171
-2.88068
-3.08284
0
0
0
0
0
0
0
0
0
0
0
0
0
0
0
0
0
0
0
0
0
0
0
0
0
0
0
0
0
0
0
0
0
0
0
0
0
0
0
0
0
0
0
0
0
0
0
0
0
0
0
0
0
0
0
0
0
0
0
0
0
0
0
0
-0.257349
-0.715407
0
-1.38263
-0.879352
0
-1.0509
-0.88082
-0.391866
-1.32604
0
-1.14456
-1.37666
0
-1.38339
-1.35654
-1.22336
-0.737303
-0.00075058
-1.5238
-0.861575
0.012181
-2.19553
-0.7149
-1.11487
-1.62611
-0.104261
-1.04905
-1.38506
0
-1.31895
-0.918581
-0.059398
-2.35634
0
-0.640127
-2.49017
0
-0.280411
-2.40526
-1.10067
-0.481987
0
-1.99679
-0.508796
0
-2.26029
-0.03999
-0.11407
-1.37205
0
0
-2.60228
0
-2.92742
-0.645661
-1.10467
-0.400436
0
-2.45462
-0.937033
0
-4.74206
-0.304064
-2.09913
-3.97281
-4.40592
-6.02474
-1.70946
-0.335172
-6.29294
-4.96816
-1.6144
-6.48351
-2.83449
0
-7.2886
-3.44717
-1.30701
-0.985285
0
-2.85981
-4.97893
-5.97692
0
-0.801615
-3.23237
-2.36705
-2.89925
-5.30451
-0.655385
-2.26284
-3.87472
-8.58262
0
-10.4793
-0.108498
-8.54183
-1.75536
-0.413466
-8.22987
0
-7.7882
-4.24741
-6.59524
0
-0.831882
-1.33585
-2.38034
-1.39473
-3.56503
0
-4.98434
-0.23558
0
-1.91784
-2.86611
-5.27534
-4.07035
-1.89742
-1.30388
-3.90276
-0.337109
-1.70233
-2.25456
0
0
-4.49404
-1.11355
-0.801476
-1.15265
0
0
-1.52735
-1.98241
-1.9642
-3.35205
-3.76379
-7.08526
-0.855091
0
-0.510373
-2.78754
-0.842953
-0.677793
-3.94885
-1.02836
-12.7481
0
-3.08556
0
0
-2.30663
-0.11295
-8.75861
-4.11602
-3.39339
-4.34863
-2.21184
0
-2.77949
-1.20875
0
0
-6.7152
-2.4429
-1.40308
-3.07477
0
-3.77826
0
-3.31559
-0.338119
0
-4.24701
-4.21614
0
0
-7.8184
0
-0.706788
0
-1.75544
0
0
-5.133
-0.0373816
-2.00155
-2.61505
-8.35212
-0.638849
-2.73367
-1.95575
-0.352598
-3.23076
0
-1.09284
-0.148431
-7.37534
-1.29143
0
-2.17644
0
-1.94935
-0.787037
-1.89362
-1.43755
0
-1.21687
0
-4.31937
-3.61415
-2.45899
0
-2.88657
-2.28537
-0.153834
-5.6017
-0.543855
0
-1.36049
-5.21804
-0.504112
-0.74408
0
-0.141003
-1.55574
-4.90625
-0.116898
-2.96925
-1.12599
0
-4.82031
-0.0100842
-4.58061
0
-3.39963
-0.650009
-5.97467
0
-1.2637
0
-5.16468
-0.123574
-6.03012
-2.33805
-2.85583
-0.865152
0
-6.86808
0
-2.87621
0
-6.18427
-0.445124
0
-0.721416
-5.41465
-0.107717
0
0
-1.60017
-5.87088
0
0
-3.58006
-0.858948
-2.86464
-0.317626
-1.95305
-1.22939
0
0
-7.06979
0
0
-3.538
-0.542589
-9.72683
0
-3.42722
-4.77076
-1.09608
0
-5.18195
-2.30409
-4.01688
0
-3.52414
0
-6.40699
0
-13.0886
-1.83029
-1.27105
-5.41399
0
-5.00538
-0.565628
-2.37127
-4.03206
-0.405992
-0.0412223
0
-3.21554
-2.80486
-3.64382
-4.43794
-0.800587
-1.26554
-1.15024
-1.56892
-1.68837
-2.05211
-2.05909
-5.72127
0
-2.06261
-2.37685
-0.537462
-5.4581
-1.11144
-0.854496
-0.31751
-6.48069
0
-4.50723
0
-3.06305
-0.473426
-0.954738
-3.91584
0
0
0
-5.7109
-5.07877
0
0
-0.247142
-4.55855
-0.157039
-1.19077
-4.64268
-0.787313
0
0
0
-0.169497
-1.00949
0
-0.284735
0
-3.40505
0
-4.07981
-4.02323
-4.73585
-1.68974
-4.27162
0
-0.334722
0
0
-0.162774
-0.420053
0
-0.796693
-4.15012
0
-1.25415
0
0
0
0
-0.690178
-7.8616
-2.76438
0
-4.35664
-0.644313
-4.11296
0
-3.81418
0
-3.68653
-0.756533
-2.71519
-0.454126
-2.35922
0
-1.58714
-4.40649
-3.33509
-2.47805
-2.23598
-4.84634
-1.92544
-1.89057
-4.36576
-4.86319
0
-3.80197
0
-7.14212
0
-7.40393
0
0
-8.20869
-0.715203
-5.73934
-1.4855
0
-3.15702
0
-6.93895
0
-1.75623
-2.00358
-3.11142
-2.56524
-4.41695
-4.48965
-1.50807
0
-5.24038
-0.643795
-3.33935
-2.79333
0
-1.89301
0
-1.42555
-4.57622
-0.97619
0
-4.00987
-1.05416
-0.537227
-1.0462
0
0
-0.938856
-1.05474
-6.33462
-0.131094
0
-0.637269
-2.31935
-2.18795
-2.45973
-0.0942621
-0.34545
-1.17596
0
-0.134521
-6.62633
-2.84488
-0.0859776
-0.529378
-2.40542
0
-4.3379
-6.45168
-1.32363
-3.56158
0
0
-2.41945
0
-6.1635
-0.118556
-0.496182
-7.65264
-0.924588
-5.80616
0
-0.316093
-2.92466
-0.220886
-3.92834
-1.96719
-4.34491
-2.02556
0
-0.670618
-1.07905
-5.64225
-0.294242
0
-8.58045
-0.104496
-9.62318
-0.452934
-2.25669
-1.61484
-4.94813
-2.90478
-8.3296
-0.201185
-6.46325
-0.990165
-5.51292
0
-5.80938
-1.48936
-3.69857
-1.88904
-0.679846
-3.97909
-5.12782
-0.25831
-1.86436
0
-0.028488
-3.04174
-0.000977787
-2.93222
-4.68303
-5.03288
-1.72788
-2.23574
-0.458314
-8.41572
-0.028221
-5.73836
-0.539226
-2.36508
0
0
-5.6461
0
-2.89111
-0.450775
-0.2825
-1.6069
-1.49768
-8.2485
-0.437559
-3.28044
-6.71721
0
-3.77071
-3.55699
-3.02827
-1.23672
-0.360418
-2.9907
-3.80686
0
-4.45142
-1.71857
-7.03584
0
-8.22656
0
-6.94458
-1.10434
-2.55049
-0.712803
-1.67605
-4.59748
-1.20848
-2.36223
-4.78492
-4.12757
-1.96514
-0.909491
0
0
0
-3.15385
0
-1.86874
-6.20697
0
-0.6306
-1.54796
0
-0.44084
0
0
-1.70185
-1.59306
-1.19431
-0.465622
-2.90023
-2.44315
-2.86738
0
-1.29399
0
-3.20269
0
-4.70218
0
-5.19686
0
-8.99842
-1.82042
-7.66558
0
-5.29962
0
0
0
-2.21537
-1.35752
-0.38035
-0.164197
0
-0.187721
0
-0.928746
-1.56579
-1.75503
-4.16356
-3.99936
-0.769455
-0.621586
-2.13122
-2.57223
-3.55071
-0.181424
-1.62567
-7.20313
-1.36958
-4.22374
0
0
-0.923423
-2.71731
-3.06956
-0.0834294
-0.166959
-2.00398
-1.2417
-1.43043
-1.55824
0
-1.46245
-0.755642
0
-1.3009
-0.697041
-5.52562
0
-1.07618
0
-5.20974
0
0
0
-0.955698
-2.49302
-4.77668
-0.771317
-4.20476
-1.69062
-3.07444
-6.59695
0
-4.03866
-1.41643
0
-1.66999
-4.00575
0
0
-0.929292
-1.09812
-0.525242
-2.34765
0
-2.97083
-6.16714
-0.410755
-5.87244
-0.0280527
-7.02267
0
0
-7.24672
0
0
-3.32599
0
-4.94171
0
0
-0.689336
-1.79668
0
0
0
0
0
-0.919335
-3.1623
-4.56627
0
-4.92557
0
-0.608665
-4.15163
-4.12431
-0.281305
-1.73174
0
-4.0182
-2.21827
-2.19585
-3.9566
-0.276798
0
-7.67206
0
-2.03616
0
-0.161483
0
-5.66192
-0.494584
-6.07108
-8.24744
0
-0.694153
-3.74741
-5.32134
-1.18587
-0.400909
-0.166312
-0.920148
-2.78099
-3.09533
0
0
0
-0.165962
0
-6.51845
-0.878477
-7.88999
-5.48004
-0.900295
-0.254141
-3.45539
0
0
-1.67858
0
0
-4.45953
-2.06188
-1.66362
-0.459058
0
-2.25572
-7.77517
0
-4.01358
-1.29832
-1.89316
-5.46343
-1.61393
0
0
-3.70649
-0.328315
-4.83222
-1.4676
-0.405665
-2.00629
-1.46697
0
-0.4095
-0.521083
-5.04193
-5.06106
-5.07979
-6.34397
-4.5613
-5.4691
-0.332012
-0.819315
-0.742406
-6.27607
-2.03021
0
-0.223526
0
-2.18418
-0.90857
0
-0.643941
-2.19208
-2.99264
-7.7232
0
-1.26765
-0.137549
-6.43919
0
-4.53091
-0.63317
-7.92902
-0.238892
-1.97215
-1.43909
-9.12989
-2.00952
-6.75271
-3.1734
-3.08713
-1.62749
-3.82741
0
-0.110993
-2.60407
-2.93352
-5.03975
-5.88935
-0.0477857
-3.86326
-3.37096
-1.67026
-3.81577
-3.41419
-6.37011
-0.32503
-1.39309
-9.46998
-2.15813
-11.0956
-2.89707
-4.51393
-2.98453
0
-6.06047
-1.0698
-6.45787
-1.83452
-1.71599
-0.89984
-1.66738
0
0
-1.2119
-2.36672
-3.96818
-6.34993
-5.31692
-2.4658
0
-1.64189
-0.0927865
-3.0255
-0.176385
0
-0.971882
-0.475713
-6.93247
-1.01129
-0.882114
-7.98458
0
-3.92363
0
-4.93097
-1.69606
-4.16269
0
-0.793275
-3.10567
0
-2.72395
-0.163633
0
0
-5.55797
-0.513715
0
-1.30663
-1.06824
-1.82417
0
-4.40403
-6.86059
-0.065523
-1.79818
-2.28111
0
-4.79661
0
-8.48539
-0.517229
0
-1.72457
-1.37671
-0.497238
-5.40641
-4.78331
0
-2.21926
-2.52616
-0.0475124
-2.92471
-0.0985505
0
-5.06782
-0.0750448
-2.12824
-0.936069
0
-0.804297
-2.92428
0
0
-1.99259
0
-2.99009
-8.82798
-0.216423
-5.10379
0
-7.35366
0
-2.2073
-3.84894
0
-5.30131
0
-7.26505
0
-4.57669
-0.0636129
-0.911431
-2.7483
-3.4393
-4.95804
-3.24056
-0.558873
-0.966665
-3.62569
-3.1153
-0.674762
-6.86683
-3.43223
0
-6.41585
0
-0.263367
-3.98199
-1.54042
-2.17682
-3.15815
-1.72601
-0.207661
-3.09073
0
0
0
0
0
0
0
0
0
0
0
0
0
0
0
0
0
0
0
0
0
0
0
0
0
0
0
0
0
0
0
0
0
0
0
0
0
0
0
0
0
0
0
0
0
0
0
0
0
0
0
0
0
0
0
0
0
0
0
0
0
0
0
0
0
0
0
0
-0.227919
0
-0.0588526
-0.0269963
-0.037501
-0.180526
0
-0.604275
0
0
0
-0.311389
0
0
0
0
0
0
0
-0.326111
-0.022206
0
0
-0.178557
0
0
-0.159391
0
0
0
0
-0.119175
-0.0265001
0
-0.11471
0
-0.024575
0
0
0
-0.543258
0
0
0
0
0
0
0
0
0
0
0
0
0
0
-0.0832377
0
0
0
0
0
-2.829
-2.49698
-1.05588
-8.10716
-0.971941
-0.568623
0
0
-4.78408
-0.148279
-8.20229
-0.228304
-1.04299
-2.67191
-3.19782
-1.77083
-4.54681
-3.98468
-3.48804
0
-2.14258
-0.214674
-1.92961
-0.296836
0
0
-3.97408
-0.733515
0
-1.16886
0
-1.24918
-1.006
0
-3.97896
0
-0.343565
-2.39756
0
-2.27797
-2.95395
-3.14557
0
-1.23581
0
-0.519929
-0.123518
-0.588018
0
-4.60074
0
-3.24301
0
0
-0.673193
-5.08694
0
-3.82971
-3.83983
-5.84373
-0.269875
-3.93745
-2.25637
-1.56909
-1.36383
0
-2.58538
-2.44744
-4.20754
-1.18723
-1.22289
-0.0468655
-6.51616
-0.537192
0
-4.26385
-1.11041
-3.06482
-1.91378
-8.86368
-4.33475
-1.88446
-0.842308
-0.842965
-10.2704
-4.122
-8.56517
-7.62658
0
0
0
0
-4.39275
-3.41696
-2.11604
-3.12542
-7.04833
0
-3.96926
0
-0.268848
-2.52099
-1.55735
-4.15414
-2.29522
-2.05558
-1.26307
-4.26818
-8.80318
0
0
-4.84351
-1.98733
0
-3.0687
-5.81688
0
-2.58548
-0.689155
0
-3.97661
-1.69507
-3.62416
-5.37977
-0.926283
0
-7.85566
-3.92994
-1.31779
-5.26571
-5.34966
-4.28843
0
0
-7.77715
-0.328573
-2.3948
0
-6.43783
0
-0.0369477
0
-4.00037
0
-8.24744
-3.73034
-0.492672
-4.33452
-1.67261
-4.40325
-3.66783
-4.97783
-0.177577
-2.3758
-3.18501
-0.836444
0
-6.07423
0
-5.05822
-7.58109
0
-3.6087
-1.00865
-3.58683
0
0
0
0
-6.59615
0
-3.73704
-1.53894
0
-0.730079
-4.42939
0
-2.98665
-3.16247
-0.271549
0
-6.91475
-0.5937
-3.48989
-2.04138
0
-3.11455
-1.39985
-0.408895
-0.62159
-6.3378
-4.12232
-0.152038
-5.34672
0
-2.4813
-3.56397
-7.01747
-5.66562
-5.93433
-3.30101
0
0
-2.82773
-3.99639
-1.14184
-3.62449
-0.349521
-0.415109
-4.14754
-2.78212
-2.64365
-0.754017
0
0
-5.53915
-2.12966
-1.72812
-3.61427
-0.986464
-0.0375078
-1.49327
-3.88312
-1.31884
-3.85353
-0.168077
-7.12667
0
-4.23484
0
-2.52487
-0.335342
-0.652992
0
-9.5158
-1.19525
-2.0356
-2.60762
-5.12923
-0.408076
-7.60444
0
0
-0.0579878
-3.74963
-3.09098
-1.92573
-2.17662
-8.65103
-1.05968
-3.03349
0
-5.16793
-0.757082
-1.44596
0
-3.32875
-5.36443
0
0
-7.45686
-1.2432
-2.86176
0
-4.2415
-3.02281
0
-6.68071
-1.14968
-6.02197
0
-1.82521
-2.37318
-1.1873
-5.14936
0
-0.28458
0
-0.197028
-2.31958
-2.82942
-8.01592
-3.94661
-4.19801
-0.509498
-4.84077
-1.97043
-1.63214
-5.11864
-0.850319
0
-0.164527
0
-8.85951
-1.38729
-10.0124
0
-12.0846
-1.47966
-7.91492
-1.15172
-2.53673
-1.03386
-2.05567
-5.31067
-3.66087
-1.55891
-4.78903
-0.672235
-8.22524
0
-0.799676
0
-1.77087
-2.47458
0
-7.47002
0
-1.72443
-1.36639
-1.74324
-1.06569
-2.64367
0
-4.27976
-0.343797
-1.3693
-1.42837
0
0
0
0
0
-8.54942
-0.0474016
0
-7.40676
-0.910706
-4.08004
-4.26377
-1.15684
-2.51186
-0.946532
-3.00294
-0.167633
0
-0.46106
-2.18301
-4.77401
-3.54578
-8.51941
-2.68793
-0.0138775
-2.83434
-0.155007
-0.822245
-0.129598
-0.814405
-1.52706
-0.0952478
-6.31277
-0.835539
-1.93153
-0.364986
-6.23384
-0.838033
-3.42911
0
-0.377784
-0.208285
-1.53671
-6.77249
-1.56538
-0.902607
-4.99649
-1.26115
-10.9249
-2.43697
-7.26856
-5.49986
0
-7.48479
-1.96716
-7.89836
0
-0.0875033
-0.496536
-1.00376
-8.45543
-1.24357
-7.20614
0
0
-1.4559
-2.51377
-1.48987
0
-2.46808
-1.42909
0
-4.85838
-1.89766
-7.22557
0
-2.45197
0
-3.07887
-1.32395
-1.12357
0
-1.91446
0
-1.30308
-5.70058
0
0
-2.22717
-0.617137
-0.700409
-0.582749
-2.24212
-0.934503
-1.23598
-1.10405
-6.36269
-2.63881
-1.16185
0
0
-4.78232
0
-5.22527
0
0
-1.22869
0
-4.41146
0
-1.95381
0
-2.19451
-0.577163
-3.42905
0
-0.856041
-3.7027
0
-0.434068
0
-0.602338
-4.032
0
-2.1657
0
0
-5.47565
-0.298528
-0.0254176
-5.37395
0
0
-0.718023
0
-1.9294
-4.58874
-4.70034
-1.27561
-3.63738
-2.40771
-0.984723
-1.97491
-3.04666
-0.601658
-0.794139
0
-6.76696
-1.8476
0
-1.56067
-5.07483
-2.82921
-11.6468
0
-1.78425
-0.861309
-1.98379
-0.12697
-1.68934
-1.38263
-0.343288
-3.14771
0
0
-1.91987
-1.18935
-5.70343
-0.920822
-4.34774
0
-2.65579
0
-1.17221
-2.68507
-0.736248
-5.07372
-0.168215
-4.29339
0
-8.01869
-0.411442
-0.500921
-3.45316
-1.0712
-4.0841
-2.89317
-1.36033
-6.6964
-3.90615
-3.92036
-3.01639
-3.31886
-0.963632
0
-0.494206
0
-6.04208
-1.30648
-4.54158
-1.55673
-6.31918
0
-7.40353
-1.54023
-0.48578
-2.48249
-1.24632
0
0
-4.0025
-1.92699
-4.35855
0
-1.35252
-0.655618
-0.921034
-3.99166
0
-2.98027
0
-1.60104
-0.751467
0
0
-0.0560074
-4.06276
-1.0109
-6.51452
-0.847106
-2.01723
-2.02462
-1.28005
0
0
-7.47823
0
-5.7559
-0.372558
0
-0.612167
-1.3243
0
0
0
-1.45362
-4.26698
-1.85675
-3.82728
-6.26273
-5.10923
-4.98805
0
0
-2.66562
-4.21359
0
0
-3.98007
-4.74663
-1.48544
-2.65228
-0.244435
0
0
-1.2865
0
-1.3032
-0.388124
-1.87171
-1.02964
0
-5.94391
0
0
-4.44038
-2.91176
-2.93927
-0.716355
-3.00292
-1.14287
-2.4674
-2.66507
-0.153041
-1.15055
-7.26811
-0.330791
0
-7.07089
-4.39954
0
-1.53866
-2.98119
-0.140634
0
-0.155177
-1.54672
-4.69243
-2.37989
-3.27375
-4.17073
-2.94755
-1.39417
-2.74325
-3.38237
-1.90431
0
-3.11305
0
-1.17316
-1.89744
-1.81915
0
0
0
-2.33185
-1.71578
0
-3.75399
-2.14326
0
-5.43356
-1.23531
-0.720493
-10.6957
-0.0489329
-8.13117
-0.107858
-3.77243
0
-2.85697
-2.38899
0
-1.4558
-2.36639
0
-2.29933
-2.23592
-3.2946
-2.80028
-1.87317
0
-3.09576
-2.4153
-5.46458
-1.40631
-2.30667
-4.33097
-2.55555
-0.117741
-0.236319
0
-8.8207
0
-5.18933
0
-0.0368679
-1.47399
-6.46972
-6.67367
-0.901487
-3.64404
-2.99378
-1.33572
-7.51095
-3.0855
-0.829297
-2.24022
-0.458672
0
0
0
-3.80632
0
-4.19475
-4.44303
-0.483016
0
-5.1583
-2.92164
-7.40356
0
-5.57063
-0.344386
-1.07725
-0.148476
0
-5.30563
0
-0.0455445
0
-3.64649
0
-9.25414
0
-2.33346
0
-7.58983
0
-1.12683
-1.6025
-2.31393
-2.44644
-0.78884
-1.92058
0
0
0
0
0
-0.130155
-1.46972
-5.15198
0
-0.661591
-5.07307
-10.2857
0
0
-1.38956
0
-0.614473
-2.03316
0
-7.94317
-1.19757
-3.62499
0
-0.66774
-2.41215
-3.01725
-1.22158
0
-0.418978
0
0
-1.01705
-0.954154
-6.52732
-3.22631
0
-0.781446
0
-0.480786
-5.34034
-0.178367
-5.91725
0
0
-2.65329
-1.17315
0
-0.18609
-3.79868
0
-4.20625
0
-2.2542
0
-0.0912812
0
0
-4.25232
-1.16458
-4.76282
-3.29935
-5.25692
0
-0.521935
-0.489632
-3.8161
0
0
0
-7.45678
-0.934648
0
-1.97002
-0.585382
-3.58009
0
-6.06204
-0.548206
-2.89372
-0.0575917
-6.41511
-1.73179
-4.90005
-0.342244
-6.45068
0
-1.85166
-4.15953
-1.44593
-5.43763
0
-2.7267
0
0
-8.01437
0
-1.10179
-0.343834
-1.12363
-6.50254
-7.57995
-1.01839
-5.83459
0
-1.77282
-1.04686
-6.29922
-2.02288
-0.648221
0
-5.50926
-0.0591025
-1.35346
-0.559866
-4.58211
-2.88511
-2.75089
-4.16532
-2.46422
-6.22693
-0.083248
-4.32072
-0.700973
-1.63159
0
0
-0.205244
0
-4.08298
-3.84093
-5.67949
0
-8.24744
0
-5.71383
-0.53464
-2.65539
-0.99975
-4.9397
-1.72689
-3.9884
-1.04548
-3.05581
-1.78754
-4.74418
-3.72729
-2.76078
-3.58441
-1.99794
-1.44618
0
-4.59401
0
-4.08064
-5.11412
-0.909906
-0.922661
-1.99955
-0.0622035
-3.63886
-3.23146
-6.06537
0
0
0
0
0
0
0
0
0
0
0
0
0
0
0
0
0
0
0
0
0
0
0
0
0
0
0
0
0
0
0
0
0
0
0
0
0
0
0
0
0
0
0
0
0
0
0
0
0
0
0
0
0
0
0
0
0
0
0
0
0
0
0
0
-0.0723053
-1.15557
-0.355714
-1.2398
-1.31875
0
-0.717713
-0.872993
-0.219255
-1.83925
0
-0.955486
-1.20439
0
-1.18742
-0.497754
-0.161112
-0.805386
0.0481264
-1.49211
-1.12957
-0.0424081
-0.835045
-1.00537
-0.0138545
-1.95708
0
-1.22721
-0.963596
-0.205394
-1.04143
-0.668928
-0.455061
-1.80689
0
-2.13485
-0.440766
0
-2.91494
0
-0.62938
-0.910326
0
-0.464933
-1.76548
0
-0.374813
-0.317415
-0.0739106
-0.107339
0.0205922
-2.17497
-0.485318
-0.755504
-2.39196
-0.577127
-0.187552
-2.04417
0
-0.648197
-1.88521
0
-0.728404
-2.3951
-3.93559
-5.14732
-2.12435
-1.61298
0
-0.602647
-7.41577
-7.86233
-11.3286
-6.39896
-4.3051
-5.9458
-1.98638
-5.14332
-1.43605
-5.26949
-1.66429
-4.65925
-0.585006
-1.79985
-5.75581
-2.93364
0
-1.50314
-1.53291
-3.30832
-1.14414
-6.09248
-4.74757
-1.56957
-3.05997
-0.45508
-1.73624
-0.57215
-0.0390186
-2.33576
0
-4.01897
0
-3.55049
-1.95198
0
-2.62998
-1.82694
-2.19862
-4.85645
-7.06693
-2.43759
-5.52713
0
-1.24146
-1.61386
-1.64313
0
-6.86996
0
-2.96924
-3.27433
-5.51578
-0.314189
-0.0324088
0
-7.30048
-0.855152
0
-6.14596
-5.32232
0
-0.619906
-4.3666
0
-5.36191
-2.06628
0
-5.31187
-2.51919
-3.67866
0
-2.75152
-2.16023
0
-0.432144
-4.41442
-2.71604
-1.41523
-1.35408
-3.30341
0
0
-4.46084
0
-5.88331
0
-2.40722
-0.309129
-0.495987
-0.922574
-1.22062
0
-1.08754
-1.36482
-1.97331
-0.398125
0
-1.89571
-1.1754
-1.01792
-6.76093
0
-0.945884
-4.19731
-4.39577
0
-0.817182
-2.189
-3.38436
0
-0.232036
-3.07186
-0.521237
-1.45968
-1.07057
-2.39565
-0.848287
-2.12081
-3.96598
-0.349619
-0.256146
-4.33318
0
-5.56548
0
-5.22091
-3.51536
-2.34671
-1.11921
-1.49407
0
-1.65856
-1.20773
0
-2.65558
-1.90408
0
-0.882586
-1.65807
0
-5.35491
-0.239508
-3.84359
0
-0.641077
-1.61224
-7.82785
-0.323453
0
-4.95343
0
-4.23196
-0.109724
-2.30592
-1.3603
-0.397357
-2.23394
-0.625705
-1.84648
-0.0772589
-4.76256
-0.450118
-6.19772
0
0
-8.02886
-0.0631561
-5.4118
-1.59756
-3.20688
-0.574198
-1.04637
-4.55277
-3.3416
-8.79428
0
-3.36671
-1.87646
-1.7318
-4.02967
0
-7.52483
0
-4.81999
0
-0.599431
-5.96869
0
-3.81437
-3.56696
-0.59056
0
0
-0.830921
-0.662674
-6.10743
0
0
-1.58311
-6.62014
-0.389657
0
-4.36166
0
0
-1.05425
-0.760965
-5.61571
-0.428423
0
-2.12049
-2.06291
0
-2.18105
-3.29812
-4.21756
0
-0.841833
-1.72764
0
-0.980997
-1.77548
-7.95776
-6.9901
-1.85706
-6.87244
-10.2032
-6.1585
-1.35524
0
-1.33735
-2.38529
-2.4728
-1.35678
-7.25443
0
-6.69976
0
0
0
-6.04225
-0.449821
0
0
-4.28363
-3.95399
0
-4.86612
-1.835
0
-7.86932
-0.479102
-11.3303
0
-4.38691
-1.14243
-6.12647
-3.99461
-0.836015
0
-1.54676
-1.7138
-0.569686
-5.80377
-1.41791
-1.94824
-3.5547
-3.57104
-3.03565
-6.44563
-2.64194
-3.66483
0
-0.86865
0
0
0
0
-0.342865
0
-1.43543
-8.70131
0
-0.372877
0
-0.933428
-1.57967
-1.33965
0
0
0
0
-2.20031
-3.07553
-3.29588
-3.13558
-2.35766
0
-0.676074
-0.424833
0
0
0
0
-5.5174
0
-1.21142
-1.47994
0
-5.87614
0
-5.81851
-0.0596272
-1.13112
-3.90016
-5.53607
-0.944635
-5.9874
-0.681154
-4.09179
-1.52204
-3.39256
-1.52218
-3.02424
0
-5.96502
-0.848123
-6.30111
-6.40484
-4.71942
-0.179543
-1.13543
0
-3.74708
-0.954485
-2.68161
0
-0.865417
-0.337725
-6.17004
-4.35896
-2.02422
0
0
-1.60088
-5.98594
-2.14345
-6.72093
-2.01825
-6.50752
-0.523229
-0.310325
-2.40542
-3.98816
-0.624667
0
-7.72992
0
-2.45123
-1.12841
0
-7.32195
0
-5.08989
0
-1.67386
-0.146685
-6.36867
-2.7512
0
0
0
0
0
-0.139661
-3.68359
-0.0869775
0
-3.55207
-0.37513
0
0
-0.776496
0
-0.0622573
0
-4.66907
-1.67455
-0.854893
-0.780385
-3.28001
-5.04291
0
0
-2.08617
-5.38126
0
-0.0631897
-7.07252
-0.98452
-7.84642
-6.87378
0
-7.79594
0
-8.20836
-0.18638
-0.876472
0
-3.107
-2.07412
-1.81845
-0.297762
-5.23698
-1.40638
-1.07747
-8.9195
0
-1.19717
-0.0531126
0
-6.67859
-0.754427
-2.29704
-0.980135
-2.98755
-0.0879122
0
-3.95473
-1.56503
-0.612339
-6.46101
0
0
-4.59603
-1.84501
-0.365139
-2.36745
-0.738928
0
-5.23605
-0.540715
-2.77551
-3.7047
-0.835825
0
-0.269802
0
-1.29487
-0.968925
-8.15897
0
-0.1374
-6.40662
-3.89382
-1.92295
-0.72339
-6.75013
0
-0.605679
0
-3.90546
-1.45073
-1.55823
-0.0348464
-4.19262
-0.221065
-7.53737
0
0
-0.78325
-3.45709
0
-0.421924
-0.435628
-2.80458
-5.70314
-5.69222
-3.93122
-5.10388
-4.14162
-4.50843
0
-10.4706
-1.4116
-7.76612
0
-7.95973
0
0
0
-6.41087
-0.214375
-5.47138
-3.57446
0
-2.92058
0
-0.562967
-0.025467
-0.0506266
0
-1.37592
-0.127193
-4.58849
0
-1.06268
0
-0.150417
-2.38767
-4.08115
-1.25191
-2.53237
0
-3.90858
0
-2.27023
-3.24512
-1.47257
0
0
-2.8615
0
0
0
0
-4.84187
-8.14348
-0.711824
-6.15718
0
-5.53757
-1.09556
-2.04646
-1.29516
-4.61738
-1.50514
-1.0094
0
-0.152147
-0.765203
-1.50878
-2.64765
-1.27061
0
-3.23745
-4.67864
-5.19514
-1.06798
-0.764352
0
0
-4.97
-8.22498
-0.237265
-9.35458
-3.00006
0
-4.71664
0
-2.04576
-3.27345
-4.6405
-1.6286
-10.2546
-1.72261
-4.36975
-1.6769
-1.34116
-5.49766
0
-1.16246
-0.661379
0
-4.61473
-4.03895
0
-0.65253
0
-4.43484
-0.771238
0
-6.62963
-0.743163
-2.86226
0
-0.667647
-0.436095
-2.06738
-0.384266
-3.42924
-5.49873
-1.20484
-0.687521
0
0
-2.85836
0
-0.782086
0
0
-0.228977
0
-1.47697
-0.97495
-3.3803
-0.828007
0
-2.62663
-4.08259
0
0
-2.5272
-1.44239
-1.33762
-1.10089
0
-9.99275
0
-2.40075
-0.328666
0
-0.658248
-2.12672
0
-5.18841
0
0
-7.20045
-3.47974
-1.71943
-5.33679
-1.06098
0
-5.10128
0
-6.37203
0
-1.27384
0
-4.52951
-2.91571
-3.63804
-1.57487
-2.57558
-5.90609
-0.353099
-4.69159
0
0
-2.75244
-0.087276
-8.66755
-4.98692
-0.66774
0
0
-2.45164
-3.80391
-1.42369
-3.86265
-0.653731
-2.46282
-1.5859
-5.61259
0
0
-6.26198
-1.98582
-3.95543
0
-2.58072
-0.323022
-1.91851
0
-2.67801
-0.33198
-3.29389
-1.37236
-1.20648
0
0
-7.44516
0
-1.99746
-1.17123
0
-3.36005
-0.978103
-2.13104
-1.97573
0
-2.95283
-5.58175
-1.4729
0
-0.538823
-0.70596
0
0
-3.58172
0
-1.28471
-0.404225
0
-2.13443
-1.61474
-3.32764
-0.061283
-3.70928
0
-4.3687
-0.618517
-1.66941
-0.655712
-3.76732
0
-9.65082
-0.195807
0
0
-6.66861
-0.490629
-6.71459
-0.274774
0
-4.19749
-7.64786
-0.275708
-1.02376
-8.00856
-0.546889
-5.77822
-2.16775
-1.20812
-3.89751
-5.79649
-0.0535232
0
0
-5.30258
-1.15581
-5.36858
-1.33035
-6.01397
-2.42543
0
-0.797661
-0.365262
-0.640082
-1.45903
0
0
-3.29761
-0.0313058
-5.44525
0
-5.05821
0
-3.01023
0
-0.0561311
-2.85457
-1.63894
-4.8603
0
-1.04281
-4.81009
-4.68597
0
-1.73071
-7.00054
-1.03115
-5.16955
-3.56939
-2.38704
0
-0.7123
-1.11067
-0.896146
-2.10736
-1.49969
-6.21865
-2.55582
-1.02108
-2.18916
0
0
0
0
-5.59002
0
-2.79087
-3.42016
-0.695694
-4.72889
-2.20503
-3.5787
-3.75588
-5.52598
0
-1.5457
0
-2.50579
0
-8.33948
-4.63952
-1.90869
0
-2.09447
0
0
-7.01865
-3.00693
-4.9621
-0.679516
-0.442772
-1.83333
0
-1.66672
0
-5.81568
-7.60632
-1.40594
-7.8956
0
-1.31946
-0.683602
-0.0642602
0
-0.85919
-0.531588
-2.20794
-5.73478
0
-1.79843
0
-0.449811
0
-1.53233
-0.170633
-1.28243
-1.13376
0
-1.17313
0
-0.682993
-3.8199
-5.45612
-1.66928
-2.01382
0
-5.18469
0
-4.14011
-0.999703
0
-4.48277
-1.08476
0
-1.01283
-3.16957
-0.86187
-4.85511
-0.689917
0
-1.07679
-3.03004
-6.61774
-0.276651
-5.67747
-1.26943
-4.21476
-4.78146
0
-3.95055
-0.0599524
-6.00169
0
-5.56813
0
-0.0670574
-3.1119
-6.99998
-0.0424256