<?xml version="1.0"?>
<VTKFile type="RectilinearGrid">
<RectilinearGrid WholeExtent="0 32 0 32 0 32" Origin="0 0 0" Spacing="1 1 1">
<Piece Extent="0 32 0 32 0 32">
<PointData>
</PointData>
<Coordinates>
<DataArray type="Float32" format="ascii">
0 0.524874 1.04975 1.57462 2.0995 2.62437 3.14924 3.67412 4.19899 4.72386 5.24874 5.77361 6.29849 6.82336 7.34823 7.87311 8.39798 8.92285 9.44773 9.9726 10.4975 11.0224 11.5472 12.0721 12.597 13.1218 13.6467 14.1716 14.6965 15.2213 15.7462 16.2711 16.796 
</DataArray>
<DataArray type="Float32" format="ascii">
-5.03879 -3.62163 -2.20447 -0.787311 0.629849 2.04701 3.46417 4.88133 6.29849 7.71565 9.1328 10.55 11.9671 13.3843 14.8014 16.2186 17.6358 19.0529 20.4701 21.8872 23.3044 24.7216 26.1387 27.5559 28.973 30.3902 31.8074 33.2245 34.6417 36.0588 37.476 38.8931 40.3103 
</DataArray>
<DataArray type="Float32" format="ascii">
0 0.524874 1.04975 1.57462 2.0995 2.62437 3.14924 3.67412 4.19899 4.72386 5.24874 5.77361 6.29849 6.82336 7.34823 7.87311 8.39798 8.92285 9.44773 9.9726 10.4975 11.0224 11.5472 12.0721 12.597 13.1218 13.6467 14.1716 14.6965 15.2213 15.7462 16.2711 16.796 
</DataArray>
</Coordinates>
<CellData>
<DataArray type="Float32" Name="Scalar" format="ascii">
0
0
0
0
0
0
0
0
0
0
0
0
0
0
0
0
0
0
0
0
0
0
0
0
0
0
0
0
0
0
0
0
0
0
0
0
0
0
0
0
0
0
0
0
0
0
0
0
0
0
0
0
0
0
0
0
0
0
0
0
0
0
0
0
-0.237529
-0.566692
0
-1.17907
-0.75493
0.000561395
0.0209377
-0.708537
-0.0774814
-0.688143
-0.0733035
-0.442516
0.204143
0
-0.133028
-0.698319
-0.402928
0.0476823
0.0220891
-0.466128
-0.229924
0
0.0562302
-0.116909
0.174481
-0.408004
-0.0623755
-0.721673
-0.562383
0.00252601
0.042516
-0.203731
-0.761336
-0.284401
0
-1.48993
-1.63542
0
-1.28745
-0.0670062
-0.046679
-0.405606
0
0
-0.63152
0
0
-0.693117
-0.278647
-0.311475
-0.4369
-1.87701
-0.0985909
0
-0.309465
-0.179772
-0.0211357
-1.51071
-0.0257762
-1.51513
-1.51654
0
-0.216486
-0.369514
-3.54491
-5.64477
-5.6264
-2.08559
-5.51774
-0.640023
-4.33977
-1.97891
-5.28014
-3.03933
-0.251192
-1.29897
0
0
-4.35465
-4.13438
0
-5.20239
0
-7.97221
-4.46583
-0.941541
-1.85793
0
-4.48766
-4.29212
0
-6.39828
-1.81898
-5.73477
-2.17702
-2.29389
-0.998531
0
-5.93332
0
-5.16384
0
-0.430228
-2.88417
-1.90915
-1.66964
0
-2.13675
-0.597324
-2.11921
-2.66112
-2.34374
-3.6645
-5.83288
-5.67518
-5.32622
-2.84848
-2.98011
0
-10.8893
0
-1.90597
-0.799445
-5.34945
-0.607323
-3.16483
0
-4.7073
-1.50492
-2.79215
0
-0.2346
-5.07423
-0.0362733
-2.06231
0
-5.17088
-4.13016
-4.24003
-0.0522269
0
-2.49229
-0.643397
-1.99199
-0.41926
-3.03958
-0.634277
-0.740594
-5.31619
-2.08728
0
-8.62867
0
-1.08619
-0.165592
0
-6.58988
-3.87561
-5.50259
-6.34855
-0.960203
-1.76734
-0.943356
-3.34749
-0.892601
-2.84367
-4.86252
-3.12764
-0.647083
-6.18047
-2.57378
-0.835466
0
-1.86744
-7.23324
0
-6.6391
-3.03176
-4.05003
-0.140735
-1.12472
0
-5.00009
-7.5542
-0.892471
0
-4.15886
-2.81613
-0.60343
-6.26722
0
-5.08538
-8.12461
-2.06454
-2.29492
-3.12395
-1.99238
-1.76642
-0.77389
-7.75684
-1.76713
0
0
0
-7.02654
-0.436881
-4.49524
0
-0.23469
-6.73897
-2.41187
-0.545357
0
0
-6.87458
-0.881688
0
-4.80313
-2.08915
-3.61154
-5.16851
-0.435567
-5.96572
-1.29875
-1.35946
-1.5216
-1.90672
-6.92912
-1.00309
-2.2
-5.15853
0
-0.413875
-4.2948
-6.01365
0
-0.834073
-3.92058
0
0
-1.73228
-0.966763
-5.28919
-2.07753
-2.8259
-3.16367
-1.21005
-0.816363
-0.352387
-0.321157
-4.4709
0
0
0
-5.57543
0
-4.7753
-1.82985
-5.10459
-2.21077
0
-7.99911
-0.0695351
-3.49744
-1.13102
-1.55092
0
-6.34456
0
-4.6449
0
-1.78051
0
0
0
-6.74385
-1.75691
0
-5.47074
0
-2.16799
-3.65702
0
-3.18359
0
-0.106193
-1.70986
0
-3.63433
-1.64576
-1.95
-0.723246
-4.71974
-4.80349
-2.82615
0
-5.85528
-0.260603
-7.21347
-3.00342
-0.183392
-3.12935
-0.668459
-0.491388
-3.27386
0
-2.0319
0
-3.12611
0
-4.10867
-0.0793622
-2.20751
0
-1.25678
-5.43381
-5.96026
-3.28274
0
-3.60531
0
-3.29033
0
0
-3.55636
0
-0.846477
-1.85616
-0.339338
0
-0.896479
0
-0.298679
-9.33475
-0.443924
-4.16286
-0.781372
-3.51004
-0.538201
-2.35394
0
-4.47946
-0.498101
0
-5.91464
-1.59603
-2.92433
-4.29314
0
-1.90729
-5.71212
-5.0099
0
-2.55424
0
0
-0.447254
-1.19903
-2.64553
-2.55751
0
-5.13858
-0.391361
-7.26591
0
-4.60812
-1.1346
0
-4.47457
0
-3.26025
-1.29793
-1.45473
-1.53829
0
-0.8639
-4.44269
-2.81646
-1.79859
-3.40508
-1.63245
-1.05433
0
-5.12612
-3.33546
-1.83449
-6.55792
-2.26468
0
-3.73719
-0.705107
-0.707345
-5.93137
-1.27145
-1.91604
0
-4.49585
-4.1041
0
0
0
0
-3.65901
0
-0.747603
-2.78553
-4.12328
-0.525257
-2.27548
0
-0.0972144
-0.0725164
-1.67958
-2.08537
-4.07317
-2.12292
-0.144287
-5.88085
-1.27369
-4.68206
-0.596893
0
-0.429385
-2.36275
-5.24337
0
0
-4.96505
-1.63181
-5.04868
0
-3.06015
0
-3.20991
0
-5.54831
0
-5.00962
-0.449289
-6.65851
0
-0.167291
0
-0.713194
0
0
-5.85743
-0.0832481
-0.762926
-1.06079
-0.658395
-4.02083
-7.05634
-0.62924
-6.25136
0
0
-5.99127
0
-0.212464
0
-2.6527
-0.61887
-2.9634
-0.612752
-4.6707
-0.0592987
-3.65732
0
-3.93568
-2.2094
-1.15699
-0.409357
-5.96209
0
-1.14635
0
-2.8302
-1.96852
-0.0893239
-0.228787
-6.4353
-1.4867
-2.87454
-5.37919
-2.67813
-4.19417
-0.0287695
-4.4484
-0.159505
-3.74658
0
-5.15759
0
-4.03571
-3.77399
-3.68504
-1.51843
-1.51064
0
-2.82629
0
-5.92595
-2.84562
-2.20959
0
-2.33066
-1.16752
0
-2.39076
0
-3.33856
-7.23574
-3.36502
-4.53139
-9.88652
-0.952703
-7.31842
-1.06164
-2.20678
-4.01865
-0.505432
-2.22744
-1.77076
-3.09541
-4.96365
-4.59452
-4.59042
-2.07865
-4.55703
-4.72555
0
-1.40221
-2.59867
-1.23975
-3.43398
0
-3.50381
-0.959789
-0.187647
-2.4821
0
-3.97984
0
-6.64757
-2.94418
-5.77646
0
-0.978697
-1.02065
-1.63865
0
-2.97129
-2.91316
0
0
0
0
-4.72727
-1.30919
-8.61577
0
-4.96832
-6.02302
-1.97374
-6.37272
-2.19253
-0.542694
-1.18779
-1.3305
-3.48896
0
-6.66583
-0.0602198
-1.53312
-1.69571
-3.89439
-0.0868062
-2.32086
-1.18953
-4.75663
-6.25361
-2.0796
0
-3.11668
0
-0.597719
-0.908769
-2.90201
0
-0.369443
-0.489553
-0.774495
-0.681704
-4.33365
-0.0651201
-4.56919
-2.32122
-3.2507
-1.89028
-1.66108
-0.096989
0
-4.04619
-3.30176
-3.38852
0
-0.621855
-8.39735
-4.37382
0
-7.02219
-0.0640573
0
-5.53216
0
0
-3.80803
-0.320552
-7.61388
0
-8.27383
-2.85606
-2.42454
-1.81729
-1.84066
-4.10192
-0.390101
-3.2488
-4.20684
-1.46267
-2.80528
-0.782487
0
-1.6441
0
-7.77062
-0.529739
-3.66631
-2.04559
-0.956101
-2.80213
-1.76644
-6.00327
-0.344897
-4.84428
-4.59379
-2.10658
-0.037198
-0.25669
-4.02539
-2.01554
-3.76181
-1.17715
-4.81178
-1.53276
0
-1.78265
-0.571807
-1.4725
0
-0.595936
-1.17496
-1.2056
-3.16605
-8.68923
-3.33152
-7.99403
-4.67231
-0.629906
-1.31148
-1.3268
0
-0.0287295
0
-1.92566
0
0
-1.52666
-0.934478
0
0
-4.12062
0
0
-3.68109
-5.17732
0
0
-5.43703
-2.89849
-3.54162
-2.24301
0
-7.33674
-1.04185
-1.03991
0
-2.76037
-5.51367
-0.488115
-4.8272
-5.36597
-2.13609
-0.183445
-3.06458
0
-3.24452
0
0
0
-1.92537
-2.68041
-0.229167
-2.85077
-0.0900327
-6.66489
0
-3.22451
-0.253684
-2.16725
-0.593519
-3.5744
-1.2809
-4.26174
-3.51233
-2.93844
-3.03895
0
-0.998887
-2.13391
-4.13602
-1.35039
-8.68471
-2.0593
-2.49879
0
-5.44313
-4.96169
-3.59096
-2.05859
-2.04083
-4.36483
-5.10546
0
-4.74515
-0.576767
-2.67528
-0.923927
0
-2.77513
-2.02949
-1.04101
-0.0248987
-1.06505
-8.09591
-0.868492
0
0
-7.83738
0
0
-2.86365
-0.634898
-5.92709
0
-3.50158
-0.269461
0
-0.813641
-4.82925
-2.69667
-2.07672
-0.852002
-2.34295
0
-6.45656
-1.49932
-1.98887
0
-3.16366
-1.94793
0
-6.87466
-5.99201
-4.8456
-4.40426
-0.630411
0
-2.86906
-0.551998
-0.0702786
-0.607082
-8.96751
0
-5.16571
-0.249958
-1.23569
0
-0.829622
-0.193908
-5.84251
0
-7.21751
0
0
-6.41727
-0.861579
-4.70616
-0.269162
-0.958945
-8.37716
0
-3.9458
0
-0.213534
-1.7914
0
-0.509253
0
-0.00535007
-4.84328
-4.57004
-6.43019
-3.47848
-1.9652
-3.92315
0
-6.58873
-2.01955
-3.44843
0
-0.954604
-0.869201
0
0
-5.03328
-6.59018
-3.44285
-1.18031
-3.68123
0
-1.78846
-0.249798
0
0
-0.135779
-9.2374
0
-0.937818
-3.87024
-2.17822
-3.62288
-2.52143
0
-5.38615
-0.726541
-0.637624
-1.53016
-8.4163
0
0
-2.37138
-2.82119
0
-2.89511
-2.99934
-0.779231
-1.54008
-4.08827
-3.00889
-0.576944
-2.72177
0
0
-4.24179
0
-7.89153
0
-1.45323
0
-2.15069
-1.89925
-1.09024
0
-3.81864
-3.39734
0
-5.65294
-0.0601927
-0.354934
0
0
-3.15772
-3.04365
0
-2.75936
-1.16114
-1.79374
-2.84261
0
-2.04718
-1.48105
-7.20829
-1.8523
-1.19029
-7.49847
0
0
0
-7.51102
0
0
-5.11418
-2.55505
-5.89141
-0.656571
-4.53154
0
-6.57197
-3.76453
-5.29808
-6.63044
-0.198349
0
-0.27693
0
0
-4.38361
0
-2.15231
-2.6983
-2.30165
-1.34372
-3.60928
0
-5.34472
0
-5.9932
-7.07913
-3.47452
-3.6669
-2.65868
-2.76143
-5.19641
-6.43754
-1.17086
-0.917929
-5.7843
-5.73728
-4.29323
-3.50509
-1.71578
-4.70947
0
0
-4.72309
-1.90626
-2.40417
-0.144084
0
0
0
0
0
0
0
0
0
0
0
0
0
0
0
0
0
0
0
0
0
0
0
0
0
0
0
0
0
0
0
0
0
0
0
0
0
0
0
0
0
0
0
0
0
0
0
0
0
0
0
0
0
0
0
0
0
0
0
0
0
0
0
0
-0.344013
-2.34981
0
-1.07407
-1.29316
0
-0.717227
-1.05051
-0.296113
-0.512562
0
-0.853333
-1.15835
0
-1.83016
-0.887992
-0.878135
-2.21872
-0.37563
-0.658067
-1.1086
0
-0.773093
-0.667048
-0.0248379
-1.87556
-0.0572883
-1.71174
-0.314477
-0.129473
-0.694867
-1.57751
-0.23413
-3.77306
-1.64582
-4.33331
-3.04742
0
-0.604533
-0.625418
-0.609137
-0.664779
0
-1.23911
-0.89722
0
-2.09787
-0.512368
-0.0855614
-3.25187
0
-1.10442
-2.22937
0
-2.46645
-1.85243
-2.58551
-2.86849
0
-3.49667
-1.23186
-0.252846
-1.90982
0
0
-1.02139
0
-3.54551
-2.83363
-0.664385
-1.23516
0
-2.27969
-0.365337
-5.25585
0
-4.18791
-0.771482
0
-2.44085
-5.00538
-3.14167
-2.11314
-4.37943
-7.65637
-1.59018
-8.0641
-1.88954
0
-5.99458
-1.47202
0
-1.06164
-1.74021
-0.194364
-1.50018
-0.741761
-6.25371
-1.98206
-7.20773
-1.08134
-4.29545
-2.71483
-4.75888
0
-0.22284
-6.48533
-2.74996
-1.41705
-4.74398
-3.35433
0
-2.42965
-0.500893
0
0
-3.19212
0
-0.157683
-1.29773
0
0
-4.00023
0
-2.23953
-6.0351
-4.26316
-5.23355
-2.5248
-9.31887
0
-3.20496
-1.13882
-2.96361
-2.49882
-0.920772
-1.72436
0
0
-0.791592
-5.97234
-4.09561
0
-2.34534
-2.13612
-1.01099
-0.88664
-6.50828
0
-10.8965
-0.727888
-0.543928
-4.15714
-2.04486
-5.33102
-1.03451
-6.37085
-0.307963
-0.46154
-3.31956
-0.898035
-8.82965
-0.126774
-8.57323
0
-2.1664
0
-0.476168
-6.26116
-1.42505
-0.0130814
-1.69427
-5.3532
0
-0.420225
-3.51528
-1.78722
0
-2.77038
-1.19264
-4.05093
-1.92495
-1.56414
-2.96094
-2.72801
-5.76063
0
-1.48138
-1.4848
0
-1.96422
0
-1.54522
0
0
0
0
-3.36967
-0.14544
-1.1834
-1.59291
-1.71594
-6.643
-2.26538
-0.201314
-0.831551
-2.45118
-2.24266
-2.42527
-1.14777
0
-3.5911
-0.251131
-5.20078
0
-2.05672
-3.40752
-1.79284
-2.45111
0
-2.08634
-0.034854
-2.47978
-5.16876
-8.06103
0
-2.38214
-0.546327
-1.51976
-5.31579
-0.148261
0
0
0
-4.00084
-2.88314
-1.14978
0
-8.24812
0
-8.48702
-0.577035
-4.80686
-1.36862
0
0
-1.06779
-1.86142
-1.85727
-1.48837
0
0
-9.01881
-2.31463
-0.626576
-0.229461
-0.998155
-0.0980714
-1.76741
-2.1004
-1.40288
-1.877
-0.38775
-5.13087
-2.08693
-7.44401
-0.384069
-0.280048
-1.17084
-1.27927
0
-5.62662
-1.62619
-0.733438
-1.84096
0
-2.04075
-3.20848
-1.16669
-5.21897
-2.29857
-1.04235
-2.31964
-1.47405
-3.37017
0
-2.82461
-5.06543
-1.92197
-0.338508
-2.90204
-0.513104
-1.45989
0
-5.29755
0
-2.60313
0
-0.295399
0
-1.20123
0
-2.86439
0
-1.16377
-8.08412
0
0
-8.98868
0
-1.64132
-3.45998
-4.40805
-2.22189
-3.49983
-0.0762024
-0.167009
0
-3.45113
0
-1.87781
-0.729792
-1.1811
-1.45222
-2.74414
0
-1.28939
-0.881328
-0.535977
-5.10389
-1.33658
-4.10172
-0.275805
-0.526851
0
0
-0.0931495
0
-4.73183
0
-1.80733
0
-3.17921
-0.794808
0
0
-0.452729
-0.393711
-2.30301
0
-0.0198813
-0.192341
0
-4.29895
-1.1799
-7.62883
-0.226176
-6.72244
0
-6.12897
-1.69222
-2.73987
-3.22711
0
-4.37312
-1.46412
-0.0968462
-3.89379
0
-4.10777
-1.11397
0
-0.486641
-0.443497
-5.8994
0
-4.78368
0
-0.303566
-0.953128
-0.722886
-2.29254
-5.14629
0
-0.453637
-2.57758
-0.239119
-5.52608
-2.61607
-1.66378
-2.53401
-0.420502
0
0
-1.17279
-5.32552
-1.53657
0
-4.10106
0
-4.84338
0
-5.36148
-1.21228
-4.94995
-0.552187
-1.53224
-1.36951
-2.6043
-1.72529
-2.29014
-0.976713
-2.35638
0
-4.32931
-5.21286
-0.680762
-1.50182
-1.73808
0
-4.69853
0
-5.31012
-2.08979
-1.62937
-0.202268
-7.71292
-0.802459
0
-4.43157
-1.29219
-2.21121
-0.233251
-0.237115
-3.35954
0
-2.5738
-2.18924
0
0
-5.97812
0
-0.319082
-7.72113
-1.27531
-0.834434
0
-4.39838
-0.419843
0
-4.54546
0
-1.17464
-2.87174
-0.808353
-8.36567
-2.6529
0
-2.97721
-4.28805
0
-2.00473
0
-1.31997
0
-4.34949
0
-6.22936
0
-7.20705
0
-5.74456
-0.504284
-0.0875961
-2.50441
-3.18205
-0.964415
-2.41805
-0.649447
-5.92399
-0.0542387
-4.8824
0
-3.174
0
-3.38706
-1.10502
-4.13831
-2.21335
-2.10524
-0.835622
-0.886682
-0.545625
0
0
0
-1.84031
-4.9184
-1.41824
-5.47555
-3.90898
-1.65358
-2.64517
0
0
0
-1.73377
-1.50418
-5.22573
-1.02136
-0.866585
-1.69183
0
-0.48477
-0.922818
0
-2.62339
0
-2.09441
-5.07982
-1.21119
-1.97213
-1.55986
-5.43932
0
0
0
-0.0691322
-6.61642
-2.47287
-2.48251
-3.03965
-0.923446
-1.32778
0
-0.496643
-5.03292
-5.15386
-0.889839
-4.78872
-1.72842
0
-2.84676
-2.62993
0
0
-0.986074
0
-4.64849
-0.0414417
-5.05166
-0.0611221
-3.71191
-8.5999
-0.944303
-7.08323
-4.48369
-0.888448
-0.531499
0
-4.36737
0
-5.03572
-4.40664
-5.72819
-3.05246
-4.38495
-4.75048
-0.367171
0
-3.23485
-0.336339
-3.16099
-0.262642
-2.58158
0
-3.86075
-0.269125
-3.46318
0
-0.834851
0
-4.39968
0
-3.0018
0
-1.8148
-2.08407
-4.78168
-0.479567
-0.888059
-1.34478
-2.25622
0
-3.7081
0
-0.238718
-2.37345
0
-7.39734
0
-7.7948
-5.71654
-2.55687
-0.16194
-0.716035
-3.62377
0
-1.11767
-4.68775
-2.1116
-1.09841
-1.1449
-2.30268
-0.297397
0
-5.17977
0
-3.52081
0
-1.94672
-0.25593
0
0
-0.44183
-3.53986
-0.101752
-3.02221
0
0
-4.41122
0
-3.22688
-1.36776
-4.8016
-1.6481
-0.434756
0
-5.08355
-0.817024
-0.319361
-2.53831
0
-1.08065
0
-0.593412
0
-0.325346
-3.44585
-2.34434
-3.83516
0
-2.56199
0
0
-1.44291
-2.01109
-2.97452
-1.89999
-2.04662
-3.93802
-2.81086
-3.08249
-4.61821
-1.18554
-4.86162
0
-2.48204
0
-1.96225
-0.322248
-2.67183
-4.34728
-0.587015
-3.31137
-7.71096
-1.50911
-3.59045
-5.32907
-0.0211224
-5.78999
0
-0.619904
-3.79617
-1.82696
-1.2455
-3.2546
-2.45872
-4.92775
-0.544099
-4.27061
0
-4.04091
0
0
-2.73975
-8.18259
-3.79401
0
-4.74508
-0.50718
0
-1.98768
0
-3.13725
-7.01916
0
-2.41556
0
-3.27111
-1.3377
-0.103762
-2.61413
0
-6.91503
0
-0.257173
-0.400675
-1.04356
-0.104688
-5.26082
-3.36809
-0.0627153
-0.122827
-3.73482
0
-1.24966
-5.17515
0
-7.38331
0
-3.26817
-0.705949
-0.932908
-1.1579
-6.4738
-2.8633
-0.260225
0
0
0
0
-2.14819
0
-4.68944
-4.29583
0
-3.48027
-4.18523
-2.02708
-1.02473
-0.319604
-3.78579
-4.81608
-1.53525
-1.09561
0
-7.23378
0
0
-1.8608
-3.48047
-0.556722
-3.43149
-2.72831
-6.89903
-5.08184
-4.97003
-2.6358
0
-0.27142
0
-3.44078
-0.308323
-3.32924
-0.336704
-0.215823
0
-5.52136
0
-5.70082
0
-8.09583
0
0
-0.827518
-2.72789
-4.41154
-2.03963
-7.31602
0
-6.79203
-0.7781
0
-4.25075
-3.18491
-1.52301
-4.28676
0
-1.85366
-8.7921
-2.53272
-6.23188
0
-7.1656
0
-1.05168
-0.458166
-1.03486
-12.6783
-4.49304
-2.05152
-3.36102
-4.52178
-4.3717
-5.16627
-4.06064
-4.67107
-2.15727
-2.50383
-5.21245
-2.82214
0
-2.57627
0
-1.37566
0
-1.7642
-1.75932
-1.37046
0
-0.448218
-0.834901
-7.11146
-1.918
-6.13906
0
-0.76835
-8.13698
-0.642024
-12.3214
0
-0.30692
0
-3.25363
0
-2.49306
-0.820094
-4.13081
-3.16445
-2.50102
0
-0.568534
-0.492581
-2.99394
-0.0107736
-0.354634
-6.58659
-4.55599
-4.003
-0.12444
-6.60465
-0.852538
-9.1971
-13.0332
0
-12.1233
-0.553691
-0.063359
-1.04658
-0.156361
-1.99597
-0.481594
0
-4.78189
-3.46826
-3.52884
-1.78229
0
-5.94941
-1.91129
-7.44803
0
-2.5546
-0.833731
-7.40996
-2.41862
-1.11903
-1.0763
0
-5.45289
-0.321599
-6.27348
-2.58528
-6.22514
-2.67079
-1.18519
-0.396691
-1.66496
-4.45012
0
-5.71702
0
-2.19297
-1.12104
-1.70177
0
0
-7.07896
-1.28612
0
-5.93409
0
-0.208022
0
-6.80817
-0.328922
-4.21305
0
0
0
-0.82205
-1.97181
0
-7.04851
0
-6.50253
-0.271633
-1.8566
-1.5098
-5.06662
-1.11917
-3.30525
0
-2.21159
-4.4122
-0.476497
-4.11145
-0.59685
0
-3.71408
-1.5669
-7.74256
-1.67367
-3.43835
-2.82335
-3.78724
-3.66397
-2.2249
-3.16052
0
-0.593602
-3.774
-1.09678
-2.49223
-6.7251
0
-6.22479
-7.88011
0
0
0
0
0
0
0
0
0
0
0
0
0
0
0
0
0
0
0
0
0
0
0
0
0
0
0
0
0
0
0
0
0
0
0
0
0
0
0
0
0
0
0
0
0
0
0
0
0
0
0
0
0
0
0
0
0
0
0
0
0
0
0
0
0
0
0
0.022979
0.00350873
0
0
0
0
0
0
0
0
-0.0869976
0
-0.259225
0
0
0
0
0
0
0
0
0
0
0
0
0
-0.131533
0
0
0
-0.249779
0
0
0
-0.0356179
0
-0.465976
0
0
0
0
0
0
0
0
-0.0294988
0
0
0
0
0
0
0
0
0
0
0
0
0
0
0
-0.0854627
-3.15741
-6.00779
-0.297907
-3.88679
-0.386926
-1.85596
-2.13924
-0.838628
-3.77899
-0.764331
-0.231301
-2.87334
0
-3.46944
0
-7.47926
0
-3.48793
0
-3.36628
0
-0.549917
-3.26688
-1.46874
-3.48482
-2.5256
-3.10104
-8.89845
-2.60184
-4.06874
-0.0966672
-3.6186
0
-0.594168
0
-0.0977274
-4.26987
-0.3962
-4.18506
0
-2.68087
-2.42902
0
-2.44694
0
-4.45152
0
-4.4927
0
-2.29105
0
-3.09334
-5.84091
-5.93879
-5.2699
-3.34891
-7.39946
-2.78011
-3.08943
-1.32215
0
0
-0.736044
-2.80809
-7.28181
-0.119376
-5.82395
-4.56383
0
-0.905337
0
-0.048349
-5.95063
-0.140684
-8.59363
0
-4.25985
-1.67884
0
-7.17883
-2.1427
-2.16766
-8.24061
-0.360174
-4.45851
-2.43668
0
-3.63658
-0.543181
-1.0078
-0.135264
-1.24143
-0.166828
-2.28622
-5.46389
0
-0.695178
-0.920247
-1.29283
-0.0736035
-0.176679
-4.76947
-1.36124
-3.27
0
-5.60879
-3.39223
-4.01215
0
-5.03971
-1.4486
-0.323778
-1.39831
-8.81524
-0.212759
-4.66717
0
0
-1.18258
-2.30321
-1.18689
0
-8.16512
0
-8.25933
0
-7.5688
-0.294043
-4.06426
-6.4989
0
-5.14552
-5.16108
-1.22048
-5.47696
-1.59701
-5.75225
-2.58627
0
0
-7.49307
0
-0.0861715
0
-0.721633
-3.24901
-1.03639
-0.572702
-0.589555
-0.0219563
-2.35672
-2.09264
-0.378788
-6.7059
-2.33883
-2.6449
-1.93245
-2.84615
-6.43602
-1.97619
-0.275409
-0.110865
-10.7735
0
-5.77467
-3.45513
0
-8.59608
-0.942635
-6.35244
-3.13498
-0.455033
-7.95575
0
-4.1763
0
-0.639028
-1.39973
-3.36293
-5.8059
-3.75385
-1.9962
-0.626727
0
-3.3066
-2.01547
-4.47634
-2.29984
0
-2.44154
-3.79226
-6.72297
-1.75051
-2.52193
-3.76138
-4.31461
-2.92493
-3.49752
0
0
-4.68845
-0.468046
-5.8896
-1.89269
-7.39286
0
-1.79065
0
-0.924944
-0.558215
0
0
0
0
-4.66315
-0.218731
0
-3.60538
-0.969367
-1.60636
-1.70603
-0.117174
0
0
-2.68869
-0.454357
-0.684277
0
-5.45605
0
-9.02083
0
-8.66301
-0.461443
-1.92365
-1.16354
-3.59434
0
-5.18423
0
-4.16701
-1.52595
0
-8.98302
0
0
-4.69163
-0.915602
-4.42012
0
-2.63886
-5.35812
-2.53673
-4.41374
0
0
-5.64816
-3.52642
0
-1.09188
-2.41864
-3.17643
-2.75061
-4.37653
-1.05073
-1.70363
0
-3.68639
-0.32847
-9.17084
0
-6.61951
-0.986553
0
-3.69122
-1.25868
-1.96227
-5.85368
-1.55139
0
0
-5.1824
0
-7.38345
-5.19102
-1.11841
-3.39918
-1.82349
-2.41532
0
-2.06012
0
0
-0.0269172
-2.53626
0
0
-1.68953
0
-2.83393
-0.222705
-2.49639
-0.0126031
-5.72616
-0.478191
-3.43845
-1.53476
-4.38359
-0.662761
0
0
-0.303959
-7.27118
-1.08587
-3.81873
-2.39288
0
0
-2.20068
-4.26316
-5.90268
-2.01151
-2.23939
-1.12555
-1.32682
-1.06408
-3.38931
-7.584
-7.74047
-5.46489
-1.22009
-0.0608623
-0.044749
-0.679013
-0.875303
0
0
0
-2.13767
0
-2.36239
-0.0799188
-1.97945
-3.11903
0
0
0
-0.66636
-0.675108
-4.83058
0
0
-3.67763
-0.28916
-5.45521
0
-0.465775
0
-2.46049
0
-4.91875
-0.115766
-0.828085
0
-6.04182
-1.1203
-1.30372
-2.73215
-1.29287
-1.72981
-1.23588
0
-3.31773
-0.666211
-7.90838
-0.558491
0
-10.6609
-1.18082
-4.65845
-1.80085
-10.599
-1.59724
0
-3.48423
-2.89406
0
-0.0781438
-4.50787
0
-1.64028
-0.982671
-0.892816
-3.44569
-2.02629
0
-7.14656
-0.457284
0
-4.5019
-4.63286
-4.28277
-3.33652
-4.55651
0
-0.257838
0
0
0
-6.40596
-1.68487
-3.73187
-0.776314
0
-2.54111
0
-2.057
-1.43763
0
-0.86876
0
-3.68954
-0.909069
0
0
-2.85444
-0.759268
0
-1.85387
-4.8887
-5.91774
0
-3.85731
0
-0.489931
0
-5.25225
-2.52851
-1.49449
-3.03822
-1.20393
-4.77382
0
-4.02154
0
-2.55633
-3.5358
-1.67789
0
-5.19163
-0.836029
-4.803
-2.35847
-2.93123
-0.935413
-0.0767152
-5.76687
-0.988053
-1.85874
-2.06504
-6.24727
-4.26419
-5.54056
-5.16175
-1.43747
0
-8.41085
-1.65024
-1.50261
0
-4.021
-2.99366
-3.47931
-1.48304
-2.25823
0
-1.72081
-3.39378
-0.753112
-7.50718
-1.61783
-2.98532
-1.22183
0
-1.48722
-1.56385
-0.905457
-3.61475
-1.31747
0
-0.496342
-3.49442
0
0
-5.77501
-4.60842
-1.10792
0
-1.80052
-1.68639
-1.93146
-2.11455
-5.82172
-4.85129
-5.10604
-4.72193
-0.586308
-1.02488
-3.34908
-1.87933
0
-0.165005
-0.577034
0
-2.86272
0
-4.89996
-0.214328
-0.992192
-0.945956
0
-6.70098
-2.24492
-0.917946
0
-4.28388
0
0
-0.339199
-3.24635
-5.75959
-1.30889
-5.70159
-2.82153
-1.05887
-3.61751
-2.11682
0
0
-1.73466
-3.81604
-3.24065
-0.200698
-4.79358
-7.04169
-0.642565
0
-6.26441
-0.644938
-7.21231
-2.99698
-3.0991
0
-0.330703
-3.48246
-1.24113
-3.05557
0
-9.42086
-2.07832
-8.6319
-0.934515
-5.4005
-3.46801
-3.08265
-7.10984
-1.91244
-4.64729
-0.877265
-2.07055
-0.218363
-0.797296
-5.4023
-4.10094
0
-0.13399
-0.845875
-7.88233
-2.29902
-6.36933
-7.91268
-0.97625
-4.77023
-3.0834
-3.88211
0
-0.258242
0
-12.9137
0
-4.54399
-4.23551
-4.73646
-3.59394
-3.71404
-2.15206
-1.45212
-0.806506
0
-0.596555
-1.43798
-3.24285
0
-8.04981
0
-3.45095
0
-3.56441
0
0
-1.38662
-0.0465308
0
0
-0.556477
-1.48325
-4.31919
-3.51742
-2.00939
0
-1.71787
-1.60049
-1.76504
0
0
-2.95582
-4.83041
0
-1.78673
-2.9619
-0.587243
-4.6058
0
-7.6881
-3.97557
0
-2.57928
-1.8393
-3.64515
0
-5.1994
-2.13601
-6.92214
-1.9587
-3.99869
-3.43625
-0.390466
-5.42763
-0.913769
-3.46974
-4.34632
0
-3.36256
-1.96869
-2.97108
-3.43524
-3.71042
-3.3377
-1.41601
-5.26009
-1.15697
-2.47385
-6.06269
-1.66321
-2.61322
0
-1.11795
-5.09475
-6.99878
-6.94041
0
-1.26398
-0.168266
-1.63166
-1.24711
-1.14364
-3.98137
-2.25797
-2.93333
-0.727806
0
-1.29268
-0.300548
-2.01087
-4.39652
-2.7726
-6.38962
-1.16939
-2.64785
0
-2.73092
-2.41436
-3.97642
0
-5.13357
-0.716758
-6.7086
-0.315484
-4.05929
0
-0.0482175
-0.217481
-6.93765
-1.4299
0
-7.48066
-0.292968
-8.01961
0
-4.19406
-4.56052
-4.59484
-4.2087
-1.24897
-1.368
0
-1.07922
-2.66568
-0.601258
-5.40802
-6.9903
0
-6.04717
0
-0.698592
-0.671721
-3.87552
0
-1.75802
-3.79567
0
-1.92217
0
-0.179355
-1.51199
-0.89173
-2.15054
0
-1.42101
-7.22266
0
-4.27089
-1.73565
-3.12933
-0.940843
-3.33655
0
-6.0797
-4.09793
-3.97444
0
-1.75519
0
0
-4.41827
0
-0.369378
0
0
-2.82955
-2.29332
-1.91145
0
-0.0313343
-4.34051
-1.33529
-3.6918
-1.91567
0
-1.20963
0
-1.20705
-1.68388
-4.9697
-1.34164
0
-0.709908
-0.278931
-6.90878
-3.10431
-0.764089
0
-6.18463
-1.98412
0
0
-4.08993
0
-6.77672
-0.419588
-0.0291963
0
-2.926
-5.22933
-3.6036
-7.41144
0
-1.5684
-2.27941
-0.67051
0
0
0
0
-10.2291
-1.31797
-2.54999
-1.67222
-1.97467
0
-0.75754
0
-0.672116
-3.98409
-1.37168
-2.56376
-4.38834
-1.21596
-1.02177
-1.18593
-0.617741
-1.53068
-3.64505
-1.13814
-6.35491
0
-1.03956
0
0
-0.804432
-0.332625
-0.496828
-7.17983
-2.4107
0
-1.85347
-3.61085
0
-0.968004
-2.97276
-1.73447
-2.48843
-8.79047
0
0
-3.41429
-5.56579
-2.895
0
-4.54865
-0.224169
-2.45779
0
0
-4.72067
-7.17545
-1.99245
-2.31801
-0.568997
0
-0.476082
-3.41398
0
-1.21727
-0.49403
-2.1883
-1.68548
-2.06098
-1.41256
-3.9154
-2.38526
-1.55336
-3.53044
-3.01479
-4.47585
-3.85441
-2.2686
-2.6586
-2.91856
-1.03246
-4.48327
0
-5.16555
0
-3.42466
-2.66411
-3.35833
-4.07151
0
-3.13189
-0.662909
0
-4.49624
-0.981159
0
-4.07378
0
0
0
0
0
0
0
0
0
0
0
0
0
0
0
0
0
0
0
0
0
0
0
0
0
0
0
0
0
0
0
0
0
0
0
0
0
0
0
0
0
0
0
0
0
0
0
0
0
0
0
0
0
0
0
0
0
0
0
0
0
0
0
0
-0.118191
-1.88433
-0.349639
-0.352893
-0.916468
0
-1.36741
-1.07234
0.521065
-1.06523
0
-0.880515
-1.16392
0
-1.68866
-0.207882
-0.51996
-0.34985
-0.277825
-1.28249
-0.636096
0
-0.916029
-1.01057
-0.701082
-1.21806
0
-1.75268
-1.44304
0
-2.12491
-1.13517
-0.891462
-0.428764
0
-3.04167
-2.32915
0
-2.97736
-0.164332
-0.522299
-1.34584
0
-0.560507
-1.70997
-0.431043
-0.234408
-1.31686
-0.768213
-1.0109
0
-4.67464
-3.07004
0
-2.13797
-0.169739
-0.0443646
-1.24246
0
-0.248307
-1.32076
0
0
-1.5275
0
-3.47051
-0.835302
-0.937976
-3.40205
-0.310815
-4.57613
0
-5.25037
-1.94557
0
-2.99457
-1.17722
-3.31146
-4.90833
0
-3.78477
-5.389
0
-2.354
-5.08284
-0.490691
0
-0.0197354
0
-1.1554
0
-4.82085
0
-0.508458
-1.15684
-0.397867
-0.693773
-0.658058
-3.43402
-1.06253
-3.34292
-1.48789
-1.62759
-0.674775
0
-1.13638
0
-3.72029
0
-2.72045
-0.758297
0
-1.2151
-3.219
0
-6.63914
-0.646344
-4.11779
0
-0.654551
-3.24428
0
0
-1.21731
-0.690498
-4.77203
-1.65337
-2.24725
-2.30515
-2.13776
-1.38132
0
-2.73925
-3.07593
-4.26972
-2.33417
-0.290545
-0.961813
-0.350968
-1.85318
-2.36093
-2.38197
-5.58585
-0.519856
-3.14795
-1.35377
-1.86688
-0.137518
-4.1025
-2.5488
-0.45926
-1.14142
0
-5.19249
0
-2.71991
0
-4.40799
0
-2.79012
-2.62357
-6.92915
-3.54285
-2.81506
0
-2.10997
-0.756198
-2.00315
-6.19193
-2.31109
0
-1.0702
-3.37361
-3.46167
0
-5.84471
0
-3.00536
-0.410581
-0.877184
-0.78046
-4.19384
0
-2.43224
-8.49055
0
-6.06834
0
-0.0886559
-1.41867
-3.09761
-0.993305
0
0
0
0
-0.660276
0
-4.34068
-2.13359
-2.63937
0
-7.39122
-0.339353
-1.34931
-1.72749
-6.04719
-6.41427
0
-2.07732
-0.46842
-2.39137
-7.67819
0
-6.32475
-1.7774
-1.21233
-1.35097
-2.82811
-4.40572
-0.0244889
-2.2968
0
-2.77279
-2.86683
-7.40663
0
-0.0513267
-2.08003
-1.01507
-4.22363
0
-1.54142
0
-4.2593
-0.58058
0
-4.32085
-0.49051
-4.93923
-1.34333
-6.86958
-3.16065
-2.46597
0
-2.83147
-0.00724772
-4.90326
0
-5.47007
-3.42957
-2.14329
-6.59708
-3.29668
-0.401858
0
-0.58098
-0.285379
-2.36396
-4.15185
-2.06921
-0.459431
-5.17735
0
-3.96494
-2.95938
-7.56091
-0.357417
0
-1.22372
-9.30155
-2.00167
-7.76781
-4.78762
-1.30868
0
-4.37813
-0.327979
-1.03138
-0.176997
-0.676349
0
0
-4.56822
0
-4.42419
-0.976116
0
-0.366593
0
-3.25579
-3.86573
0
-0.120447
-3.44277
-0.214396
-0.189412
0
-5.15506
0
-2.689
0
0
-5.37823
-1.86153
-6.55519
0
0
-4.55123
-3.85367
-0.155413
-0.980116
-0.800791
-0.171612
-6.15946
0
0
-2.37627
-4.16217
0
0
-3.75479
0
-7.56661
-1.77309
-1.74449
0
-0.330747
-0.868321
-7.77975
-2.85245
-2.1206
0
-1.54724
0
-0.875176
-4.84769
-2.39565
0
0
-2.18876
-0.28956
-0.773915
-0.177305
-0.985159
-0.299665
-1.58393
-2.10254
-0.327865
-4.03288
-1.04263
0
-0.0650139
-4.61662
-2.03311
-3.79397
-1.858
-4.48357
-2.39843
-4.93449
-2.04424
-4.24066
-1.79151
-1.16823
-1.76904
-1.71908
-0.13357
-7.82148
-1.52295
-1.5889
0
-0.172323
-1.80717
-6.82425
0
-8.10145
0
-6.55506
0
-5.24727
-0.315314
-3.48886
-1.3632
-2.32906
-1.0557
0
-5.33127
0
-6.85215
-0.0561595
-2.22943
0
-1.10402
0
-1.14801
-4.36549
-0.647506
-6.3681
-0.0563542
-1.6256
-2.06602
0
-5.52672
-0.355442
-6.40798
0
-3.21984
-0.485159
0
-0.0821344
-1.36507
-2.52825
0
-2.12289
-3.99584
-4.43492
-1.84959
-0.356438
0
-6.20656
0
-4.90144
-1.51203
-0.0373329
-1.83301
0
-5.7074
0
-0.355141
-0.918348
-2.92705
0
-3.38306
-2.43531
-3.05393
-1.96475
0
0
-6.45169
0
-6.8038
-0.228014
-3.01166
-3.11284
-0.586883
-0.859184
-4.29371
-0.402716
-0.47033
-0.122297
-3.05613
-4.32147
-1.025
-4.98638
-4.76227
-1.80074
-7.6023
-6.63406
-5.0093
-0.870599
0
-2.76468
-1.59711
0
-1.71987
0
-5.84967
-0.913617
-8.00865
-2.80443
-5.31855
-1.05433
-6.78922
0
0
0
-2.9326
-2.54834
-2.36159
-0.0116538
0
-3.53042
-4.57693
-2.42227
-2.15292
-0.250152
-0.851767
-1.75403
-3.5959
-0.857766
-0.48472
-4.59593
-3.03043
-0.125522
-2.07255
-0.307282
-3.0258
-1.50955
-2.7287
-0.351019
0
-5.0914
0
-0.358679
-0.241287
0
-2.11291
-0.0675313
-3.16108
0
-3.83345
-2.65105
-0.272691
-1.43961
-1.09035
-2.69454
-0.878049
-2.1803
0
-0.337616
-2.34706
-2.45458
-3.44061
0
0
-1.20507
-1.49064
-1.33078
-4.45167
-3.17422
-2.64605
0
-5.28212
-3.00724
-4.16187
-0.0754351
-1.47212
-1.05625
-3.75325
0
-7.40596
0
-10.0623
0
-6.65461
-4.12937
0
-4.97326
-2.22953
-5.19447
-0.725832
-3.93806
0
-4.26525
-4.724
-2.42141
-3.24178
-7.26389
-1.41014
-2.20682
-2.9849
0
-2.65958
-2.06616
-0.837649
-3.73667
-2.13674
-4.33868
0
0
-4.29825
-0.693743
-3.94629
0
-4.74818
-0.063207
-0.148488
-1.14867
-1.93571
-5.26126
0
-1.37132
-5.24699
-1.62141
-5.00424
0
-1.12925
-5.18231
-1.39143
0
-0.633288
-6.13527
-0.523972
-4.4432
-0.979652
0
-1.24052
-1.57382
-5.58859
-0.222921
-2.03855
0
-6.66523
-2.24302
-3.18966
-3.00146
-0.847571
-2.53233
0
-3.21912
0
-0.898895
0
0
0
0
-7.37238
-2.128
-3.93129
-3.42747
-2.05218
0
-6.06634
0
-0.0059753
0
0
0
-2.68806
0
0
-0.22876
-2.32021
-5.95971
0
-9.33315
-0.94211
-0.196417
-6.86573
-0.15686
-0.393087
-8.22555
0
-2.51412
-4.16908
0
-3.45605
-0.248784
-2.39846
-4.87485
-6.03831
-3.76735
0
0
-3.10281
0
-4.51747
0
-0.584679
-3.45612
-3.75587
-5.70856
-5.59936
-5.26877
0
-4.9964
-2.57046
-3.78852
-2.26237
-3.23012
-2.77866
-0.968675
-9.71157
0
-6.61376
-0.593834
0
-6.04186
0
0
0
0
-0.854232
-1.9252
-5.12626
-0.556922
-0.288307
-1.06583
-3.41157
0
-1.09226
0
-1.09917
-0.0687967
-1.98104
0
-0.990702
-0.378203
-3.34785
-0.3306
-1.10382
-0.243618
-1.82438
0
-3.03902
-2.13976
0
-5.01981
-1.80237
-4.33513
-5.72958
0
-0.553661
-2.48458
-2.55223
-4.1323
0
0
-1.83166
-2.01911
0
-5.35398
0
0
-4.17051
0
-0.790446
-0.664116
-2.79861
-4.98393
-1.48923
-1.97071
-0.852843
-0.719049
0
-3.18478
0
-2.07692
-0.867104
-0.19776
0
-0.361065
0
-5.98352
0
0
-3.17697
-0.169195
-4.09754
-2.02445
-0.681508
0
-3.96613
0
-3.41753
0
-2.09142
0
-2.793
-2.4285
0
-0.393717
-1.64332
-2.65065
-1.17567
-2.7151
0
-3.71163
-4.91948
-0.966942
0
0
0
-3.57122
0
0
-0.126359
-2.70888
0
-6.67133
0
-3.69577
0
-2.73341
0
0
-4.04319
0
0
-0.611337
-1.46261
-0.790437
-0.0194266
0
0
-3.46964
-0.839407
-4.80202
-2.34265
-2.23159
-6.27491
-0.173531
-3.26138
0
0
-2.63436
0
-0.066499
0
-2.84108
0
-1.25038
-0.42938
0
-5.97718
-0.711792
-4.12968
-2.78872
-1.7439
-0.802306
-2.12645
-5.15492
-1.16739
-3.3089
-2.99809
0
-6.87063
-3.34964
-0.775803
-2.72074
-2.45904
-1.01894
0
-5.45534
-3.31457
-1.21289
-2.13361
0
-3.35666
-5.48366
-5.08313
-5.51111
0
-3.16723
-2.39088
0
-1.19044
-3.53185
-0.670161
-2.38821
0
-2.60755
0
0
-5.62169
-0.782974
-6.91754
0
0
-3.11835
-1.35062
-1.74631
-1.09033
-3.40894
-6.22015
0
-4.95585
-1.49796
-0.660322
-1.10566
0
0
-3.57338
-0.891212
-10.3294
0
-9.58254
-0.574439
-3.15374
-3.80828
-0.194216
-7.99394
0
-3.58579
-1.33854
-4.66227
-0.830208
-1.22768
0
-1.50015
-3.08163
-0.75912
-4.30293
-0.867121
-3.17691
-2.82256
-0.900228
-6.81677
-8.66622
0
-4.44806
0
0
0
-3.17828
-1.47411
0
0
-7.97535
0
0
-3.18644
-2.39043
-1.02567
-0.130405
-3.40871
-2.14729
-7.36363
0
-0.30903
0
0
-4.13317
-1.41215
-1.80981
-0.661573
-2.14923
-3.08804
-3.48334
-1.38383
-4.6214
-7.35208
-4.87369
-0.837508
-3.70512
-0.0690905
-6.09748