<?xml version="1.0"?>
<VTKFile type="RectilinearGrid">
<RectilinearGrid WholeExtent="0 32 0 32 0 32" Origin="0 0 0" Spacing="1 1 1">
<Piece Extent="0 32 0 32 0 32">
<PointData>
</PointData>
<Coordinates>
<DataArray type="Float32" format="ascii">
0 0.524874 1.04975 1.57462 2.0995 2.62437 3.14924 3.67412 4.19899 4.72386 5.24874 5.77361 6.29849 6.82336 7.34823 7.87311 8.39798 8.92285 9.44773 9.9726 10.4975 11.0224 11.5472 12.0721 12.597 13.1218 13.6467 14.1716 14.6965 15.2213 15.7462 16.2711 16.796 
</DataArray>
<DataArray type="Float32" format="ascii">
-5.03879 -3.62163 -2.20447 -0.787311 0.629849 2.04701 3.46417 4.88133 6.29849 7.71565 9.1328 10.55 11.9671 13.3843 14.8014 16.2186 17.6358 19.0529 20.4701 21.8872 23.3044 24.7216 26.1387 27.5559 28.973 30.3902 31.8074 33.2245 34.6417 36.0588 37.476 38.8931 40.3103 
</DataArray>
<DataArray type="Float32" format="ascii">
0 0.524874 1.04975 1.57462 2.0995 2.62437 3.14924 3.67412 4.19899 4.72386 5.24874 5.77361 6.29849 6.82336 7.34823 7.87311 8.39798 8.92285 9.44773 9.9726 10.4975 11.0224 11.5472 12.0721 12.597 13.1218 13.6467 14.1716 14.6965 15.2213 15.7462 16.2711 16.796 
</DataArray>
</Coordinates>
<CellData>
<DataArray type="Float32" Name="Scalar" format="ascii">
0
0
0
0
0
0
0
0
0
0
0
0
0
0
0
0
0
0
0
0
0
0
0
0
0
0
0
0
0
0
0
0
0
0
0
0
0
0
0
0
0
0
0
0
0
0
0
0
0
0
0
0
0
0
0
0
0
0
0
0
0
0
0
0
0.409562
-0.420633
0
-0.834864
-0.800439
0
-0.15922
-0.555991
0.376569
-0.98932
0
-0.12425
-0.142381
-0.0589163
-0.546406
-0.306019
-0.518034
-0.708976
0
-1.1838
-1.1146
0
0.0596089
-0.30451
-0.165922
-0.148752
0
0.0918947
-0.226244
0
-0.893248
-0.237018
-0.1942
-0.113311
0
-1.23601
-0.118727
0
-0.104187
-0.0502747
-0.70643
-0.527504
0
-0.51716
-0.912417
0
0
-0.258972
0.259731
-0.0726076
0
-1.85345
-0.254071
0
0.103987
-0.109602
-0.127311
-1.30705
0
-0.102974
-0.935
0
-1.10797
-0.273782
-4.92472
-3.55627
-7.33297
0
-4.31934
-2.79995
0
-8.49836
-3.9402
-4.70403
-0.981769
-0.134255
-5.13899
-1.32758
-3.28234
0
0
-3.4796
-4.76847
-1.43355
-3.48547
0
0
-0.822183
-0.262885
-1.36693
0
-3.38512
-0.581384
0
-0.576974
-2.07712
-3.3797
-0.972781
-2.77547
0
-2.28802
-5.99639
-0.709163
-1.12248
0
0
-6.08642
-0.564171
-0.101725
-1.87723
-0.0871848
-0.269775
-6.71731
-0.353219
-5.41948
-3.82926
0
0
-0.703673
-0.232046
-5.21094
-3.42136
-7.50689
-2.33494
0
0
-8.91238
-1.19565
-4.13354
-2.79925
-0.960067
-0.205549
-0.719829
-2.86092
-0.131523
-5.1962
-3.82418
-7.97176
-0.466318
0
0
-4.01849
-0.801648
-3.76035
0
-6.44319
-1.78062
-2.81591
-9.02894
0
-4.57388
-0.53844
-0.84651
-5.9166
0
-2.57533
-0.891069
-0.212549
-1.4115
-1.29505
-5.0698
0
-3.92374
-1.24561
-0.556777
-0.801076
-2.95253
-0.750008
-1.99971
0
-0.0616777
0
-6.02898
0
-0.483218
-5.11008
-1.88783
-9.92566
0
-4.02204
0
0
-4.88902
-2.56276
-2.15129
0
-5.35215
-2.11471
-5.08001
-5.26113
-1.15093
-0.137846
-0.54883
-5.09014
-0.499651
-2.8894
-0.348205
-3.31101
0
0
-0.637964
-0.68923
-2.41945
-0.0127357
0
-1.4031
-5.41939
-4.47648
-2.58302
-0.142852
0
-6.04364
0
0
0
-1.25299
0
-3.44328
-2.10852
-0.468291
-4.94434
-4.24891
-1.24646
-0.0379386
-1.11535
-10.3185
-0.0307419
-5.7615
-0.69493
-1.99904
-0.264748
-1.57817
-4.88723
-0.292095
-0.905891
-1.02743
0
0
0
-0.880713
-1.58175
-3.96875
-4.83742
-3.71344
-0.24799
-5.76355
0
-3.42184
0
-6.93542
-0.406669
-2.81788
-0.313594
-0.782033
-7.21033
-0.219331
-2.36177
0
0
-1.46408
0
-3.75479
0
0
-3.64283
0
-6.23098
0
-2.58466
-5.18115
-7.20444
-0.245096
0
0
-5.74054
-2.83038
-4.20285
-1.26541
-3.57421
-0.700098
-0.749602
0
-1.17287
-1.00829
-1.39696
-0.462727
-5.4131
-0.857147
0
0
-3.83985
-1.06797
0
-0.360978
-6.21627
-2.21218
-4.68468
0
0
-5.08394
-1.97917
-1.30745
-5.11051
-1.66825
-6.30003
-3.622
-1.60809
-0.0409728
0
-4.33183
0
-0.152022
-2.04385
-1.10443
0
-7.80321
-0.265392
-4.07523
-2.25717
0
-0.641004
-6.49554
-1.19702
0
-0.633471
-5.13862
-3.23685
-2.54729
-0.69789
-1.89792
-1.97779
-2.16879
0
-0.875115
-2.14842
0
-6.13868
0
-1.01051
-0.990715
-1.76233
-1.68122
0
0
-2.71718
-1.79538
0
-0.750206
0
-1.65663
0
-0.735112
-2.67225
0
-5.96614
-1.55155
-2.49465
-2.60139
0
0
-1.81521
-2.9315
-1.84617
-0.596669
-1.02583
-0.0376423
-4.5739
-3.03167
-3.80028
-0.133358
0
0
0
0
-0.940248
-2.543
-0.0330424
-1.92964
-5.87809
-1.2418
0
-1.4694
-4.08558
-0.673105
-0.389671
-5.37905
-1.13446
0
-0.899962
0
-1.34948
0
-2.70433
-0.505678
-3.55367
-1.09819
-4.16668
-4.65522
0
-0.0653962
-0.516629
-3.96098
-4.75981
-0.66874
-8.51453
0
-3.06171
-0.8989
-5.03755
0
-3.16109
-0.0530196
-0.872265
0
0
-6.01059
-7.26343
0
-1.871
-1.25705
-1.33046
0
-2.3216
-1.38152
-0.221014
-0.279993
-0.606116
-4.42873
0
0
-2.51925
-0.917544
-2.62432
-2.95705
0
-2.0211
-0.393904
0
-4.00662
-5.44652
-2.11848
-3.88482
-0.0956525
-0.0220828
0
0
-6.04784
-2.97882
-0.112498
0
-4.96333
0
-2.01374
0
0
-0.248459
0
-1.01635
-0.799093
-1.79091
-4.74246
-1.17233
0
-0.48009
-0.51999
0
-0.0654577
-4.67194
-3.36769
0
0
0
-0.331404
0
0
0
-0.606174
0
-7.32651
0
0
-2.4757
-1.46959
-1.52063
-2.9192
-3.82562
0
-0.381026
0
-4.24032
0
-0.299867
0
-2.04062
0
-5.17
-2.99423
-2.93073
-3.54407
-0.395516
-3.40081
0
-6.94744
-2.27262
-8.06591
0
-2.46492
0
-1.78422
0
-0.413006
0
-1.51806
-3.01602
0
-4.47796
-0.251903
-2.98477
-1.93667
-2.57786
0
-5.4822
0
0
-0.0149505
-8.74635
-0.0294132
-0.788277
-1.3548
-1.66507
-2.93934
-0.699809
-5.29033
-0.930586
-10.0141
-3.0837
0
0
-1.91366
-0.0217898
-1.86423
-4.29345
0
-0.257912
-4.03996
0
-1.55026
0
-5.33089
-0.863717
-0.448743
-3.30656
0
0
0
-6.37986
-3.54847
-3.43172
-2.21005
-2.33533
-1.95405
-5.95203
0
-4.7259
-1.52028
-3.27911
-1.56809
-0.652519
0
-0.226127
-2.76695
-2.05323
-2.47743
0
-5.04044
0
-0.61641
-1.29623
-0.986946
0
-1.24143
0
-4.48842
-1.31921
0
-2.72451
-5.36696
-3.37034
-1.68743
-2.5676
-4.84439
-0.807926
-9.32374
0
-3.68845
0
0
-5.83668
-1.84322
-7.39858
-2.27047
-5.21399
0
-4.44975
-1.83314
0
-3.09548
-0.950891
0
-1.21588
-0.288916
-4.04475
-0.473952
-5.13784
0
-1.51145
0
-4.4955
-0.169773
-2.72057
-2.13016
-5.70671
-3.13268
0
-0.0801755
-3.24565
-3.45677
0
-4.41343
-0.348541
-6.29012
-1.40981
-4.62416
-2.88218
-2.27379
-2.68347
-0.310724
-1.08849
-1.92009
-4.67556
-0.971515
0
-4.74819
0
-1.53613
-3.39432
-0.397373
-1.41446
0
-2.64593
0
-8.12903
-2.50152
0
-2.67426
-0.825268
-2.24662
-0.519102
-0.837102
-8.80242
-1.52434
-2.1593
-0.57077
-6.52616
-0.946002
-2.38856
-0.135932
0
-6.83204
-0.395853
-6.18834
0
-0.072824
-1.89949
0
-0.979177
-2.19323
-3.45677
-1.94795
-5.2505
-1.11857
-1.06423
-3.72628
-1.13916
-7.94112
-2.24359
-4.65524
-1.70823
-5.02688
-4.18524
-5.33881
-1.71208
0
-3.02511
0
-1.21623
0
-0.309351
0
-4.35333
-0.00439333
0
-1.67876
-1.68073
-0.0996618
-3.3123
-2.88208
0
-2.60379
-1.62913
-3.46544
0
0
-1.13581
-4.85959
-3.75759
-1.78583
-1.0635
-3.72477
-2.25906
-5.61246
-0.685552
-4.96234
0
-2.37146
-1.83266
-1.17996
-1.09043
-5.69463
-1.50556
-5.08765
-3.6836
-0.289943
0
0
-0.259813
-4.92125
-2.39426
-4.07314
-1.76807
0
-5.8099
-2.37936
0
-4.02334
-0.306538
-1.11459
-5.05591
-7.06218
0
0
0
-4.79265
0
0
-1.58372
-1.9661
-1.11088
-2.88707
-0.765264
-6.87454
0
-8.21833
0
-5.1628
-0.1666
-3.01334
0
0
0
-5.82354
-1.19522
-1.07167
0
-5.58806
-1.7451
0
-3.00503
0
-2.83499
0
-3.54292
0
-2.40448
0
0
0
-0.217018
0
-3.6764
0
-10.4319
-1.93287
0
0
0
-1.99633
-1.15058
-5.92346
-1.73586
0
-0.196661
0
-2.73908
-3.04609
-0.102053
-3.80212
-1.1337
-0.0104478
-1.74914
-1.11419
-0.403593
0
-1.57256
-7.53377
0
-3.09456
-0.683429
-4.70194
-3.56379
-5.21303
-2.8306
-5.12306
-7.25926
-0.483983
-2.60735
-0.235149
-3.26563
-4.69588
-3.43904
-3.74002
-1.99377
0
-6.88624
0
-4.68341
0
0
-1.6719
-0.432154
-0.405898
-0.855393
-3.1096
-0.807887
-4.9854
0
-7.75577
0
-2.7913
-2.49919
-2.32911
0
-3.96846
-2.83823
-1.73499
-5.78735
-1.0855
-5.00187
-1.22242
-3.82407
-1.59303
-6.18767
0
-5.83706
-3.14732
-0.481534
-6.92852
-1.51697
-7.44638
-1.2822
-2.43885
-5.07693
0
-4.56168
-2.60488
-4.99711
-1.73599
-3.55634
-2.39522
-0.569604
0
-0.997076
-0.770541
-3.65247
-3.396
-1.76617
-3.37559
0
-5.64154
0
-7.55683
-2.89173
-5.18547
0
-1.64405
-6.97244
0
-0.193614
0
-2.27282
0
0
-0.793658
0
-3.86405
-2.06909
-3.93271
-0.602681
-4.31356
-7.24338
0
-6.73409
-3.13143
-3.4073
-5.40288
-2.33624
-2.08138
-0.327237
-5.78811
-0.407552
-0.917555
-2.46024
0
-0.196487
-0.315183
-1.40212
-0.738023
-3.61526
-0.716815
-5.42654
0
-0.275476
-3.49347
0
-1.48406
-0.525224
-5.87753
0
-3.19345
-0.0867219
-3.31805
0
-7.82492
0
-2.95219
-4.80615
0
0
-2.88445
-5.15243
-4.79469
-6.29744
0
-5.48603
-0.816335
0
0
-0.811743
-1.33988
-8.86691
0
0
0
0
0
0
0
0
0
0
0
0
0
0
0
0
0
0
0
0
0
0
0
0
0
0
0
0
0
0
0
0
0
0
0
0
0
0
0
0
0
0
0
0
0
0
0
0
0
0
0
0
0
0
0
0
0
0
0
0
0
0
0
0
-0.867489
-2.2481
0
-0.677696
-1.48006
-0.165411
-2.29303
-0.486078
-1.00364
-0.779564
0.0129912
-1.45577
-2.79507
-0.300041
-0.998613
-0.485822
-0.101894
-1.93918
-0.00670276
-1.26873
-1.8512
0.0567707
-1.07966
-0.50987
-0.658593
-0.696327
0.00569165
-1.04984
-1.59698
-0.0496043
-1.22013
-1.27167
-0.639488
-2.96479
0
-0.756846
-1.50148
0
-0.261968
-0.693295
-0.772468
-0.234695
-0.251495
-3.57715
-0.316435
0
-1.56047
-0.160111
-0.851497
-2.77717
-0.0451966
-0.348313
-4.4735
0
-3.43903
-2.32306
-1.53259
-5.27209
0
-5.38826
-0.595807
0
-1.00632
-0.26458
-6.47982
-5.74573
-0.315641
-4.14049
-2.34285
-3.63798
-5.94652
0
-0.553857
-6.21306
-9.31992
-3.13759
-6.79357
-2.41844
-8.54268
-1.55579
-6.39803
-1.68202
-1.4398
-1.82966
-2.40762
-5.85645
-6.1202
-2.70552
-2.27093
-3.78203
-6.85456
-0.567926
-15.9433
0
-10.7454
-0.095931
-2.81517
0
0
-3.17969
-0.0149737
0
-1.21355
-1.61399
-0.150755
-2.9684
0
-1.43202
-3.37883
-1.82255
0
-9.16507
-2.01781
-7.25546
-3.00085
0
-1.42158
-5.00854
-3.14958
-2.94693
-2.30322
0
-0.140845
-3.12874
-6.17816
-1.53179
-2.72057
-0.820308
-0.180611
-0.178505
-2.17075
-1.68578
-3.93678
-0.937814
-3.39923
-0.541875
-0.428058
0
-2.11219
-8.10752
-3.4784
-3.53136
0
-0.256869
0
0
-6.02671
-6.47181
-0.353337
-3.12675
-3.91153
-2.31877
-0.132474
-1.58337
-1.68235
0
0
-7.61389
0
-2.18778
-2.43595
-0.929907
-4.09016
-0.66405
-9.82545
-3.31774
-7.63719
-1.1676
-1.09127
-1.78089
-1.47282
-7.49611
-1.56951
-1.19749
-6.29202
0
-3.91342
-1.02577
-0.159992
-2.68007
-0.874217
-4.81704
-2.00651
0
-3.26469
-1.84529
-3.76632
-0.901431
-4.56702
0
-4.06775
0
-2.08809
-1.24259
-5.70628
0
-1.19436
-2.50128
-6.24264
0
-3.99449
-3.43717
-3.75106
-2.13959
-1.0682
-6.14408
-5.49845
0
0
-4.20505
0
-0.307099
0
-8.17004
0
-3.77588
-5.09326
-1.24422
-4.885
-1.63656
-1.88227
-1.18068
0
-3.72922
-3.90167
0
0
-2.12551
-3.51622
-0.740578
-2.45857
-0.655778
-4.25173
-4.01749
-6.53719
-0.792884
-3.99506
-3.25453
0
-4.22263
0
-2.19551
-1.11218
-0.810854
0
-1.82959
0
-2.62408
-0.803969
0
0
-4.55701
-0.325178
-4.26451
-3.40755
-4.19079
-1.95308
-2.6336
-0.893058
-2.99434
-3.98783
-0.851084
-3.95589
-1.88756
-2.76815
-0.170358
0
-1.72236
0
-2.12168
0
-3.64604
0
-6.6486
0
-0.820921
-0.543434
-0.153675
-0.558943
0
-1.11335
-5.02685
-4.25945
-3.47655
-7.08708
0
0
-0.133368
-6.04843
0
-3.99678
0
-2.1314
-0.853286
-0.431381
0
-0.0674043
-6.88303
-0.604623
-1.86673
0
-3.54932
0
0
0
-1.32776
-0.801952
-0.0846082
-0.783705
-0.866535
-11.4545
-2.59062
-6.95214
-0.792503
-8.20068
-1.30751
-0.701267
-2.68483
-5.80004
-3.51663
-6.7351
0
-2.3812
-0.104637
-2.63844
0
-0.0307455
-7.37973
-1.39666
-0.94808
-3.34622
-2.97001
-2.86832
-1.62548
-1.67492
0
0
-6.80142
0
-10.3091
0
-0.299447
-4.24869
0
0
-2.92248
0
0
0
-1.28995
0
0
-1.37021
-1.32085
-0.787687
-2.34959
-0.35316
-4.0616
-2.23121
-3.90098
-3.64718
-3.29917
-2.19663
-1.77535
-4.14646
-0.198557
-1.16252
0
-3.31076
-6.96586
0
-5.13184
0
-7.57368
-1.03164
-6.29554
-0.807986
-1.21472
-0.0234304
-3.28927
-6.25819
0
-0.904757
-1.26756
-0.65621
-1.58795
-1.27706
-1.11777
-2.98377
0
-2.76855
-0.657474
-3.84593
-4.35137
-2.15309
-0.292253
-3.87203
-2.04959
-3.59541
-3.86769
-1.8368
-1.37929
-2.44241
-2.49767
-0.314369
-3.6726
-2.07692
-3.41487
-3.0081
0
-5.17497
0
-8.66339
-2.17041
-7.42962
0
0
-1.60003
-2.10059
0
-5.12927
-2.46114
-0.43774
-3.13848
-3.56041
-4.06543
-0.18296
-4.3472
0
-4.38132
-1.8899
-4.41527
0
-0.953319
-5.04233
0
-4.20953
-0.111993
-2.02701
0
-1.70188
-1.85831
-0.827062
-5.07807
-1.76905
-4.34787
-1.40488
0
-7.25702
0
-2.64776
-1.2511
-2.62778
0
-3.28907
-1.25066
-5.13394
-0.892528
-5.05878
0
-6.34835
0
-7.60827
-0.571264
-6.54469
0
-7.1814
-2.92457
-6.01127
-3.0491
-5.16439
-0.584239
-7.9686
0
-5.62235
0
-10.0119
0
0
-0.759275
0
-6.55831
0
-0.456256
-0.13406
-7.41611
-3.48331
-4.99646
-0.896991
-3.03985
0
-6.50779
0
-3.59193
0
-4.55509
-1.19512
-1.35826
0
-3.96269
0
-1.61482
0
0
0
-0.0415924
-6.96603
-3.44829
-3.80003
0
-7.05893
-5.95572
-1.89829
-0.382612
-8.01216
-0.186772
-0.557024
-2.21387
0
-4.6872
-0.965947
-0.17303
-0.584022
-4.60644
-1.45534
0
-3.76881
-1.01864
-1.22009
-0.520539
-0.786068
-3.87767
-0.372339
-1.14903
0
-0.844362
-5.4807
-9.14671
-1.17909
-9.37644
-0.821827
0
-5.74899
-7.49166
0
-2.27483
-5.9128
0
-0.405667
-0.443586
-4.15149
-0.203149
-1.63129
-7.63396
-2.64891
-1.08498
-0.953866
0
0
-0.633179
-1.24071
0
-8.92557
0
-2.2276
-2.47337
0
-8.13174
-2.92137
0
0
0
-0.159772
-3.31637
0
0
-5.38081
-2.26046
-0.802504
-6.89016
-2.11074
-1.0232
-0.628395
0
-8.16156
-0.030839
0
-3.44841
0
-4.12052
-2.24966
-0.994832
-7.32123
-1.01353
-5.45232
-2.52835
-2.33979
-4.11704
-1.93076
-5.40734
0
-2.26572
-1.89891
-0.467166
-2.28606
0
-1.9919
-1.47518
-0.264291
-2.8739
0
-2.77787
0
-0.590168
0
-4.19722
0
-0.798615
-0.631697
-4.16619
-0.454987
-5.87787
0
-0.103411
-5.37279
0
0
-0.180433
-0.883321
-1.12474
-5.01063
0
-0.74679
-3.47824
-0.548776
-0.443354
-1.16627
0
-3.53274
-1.59177
-3.58976
-0.186265
-1.329
-1.92462
-0.377152
-2.42776
0
-1.75398
-2.18659
-0.22788
-1.80567
-1.3525
0
-5.25849
0
-7.96065
-2.18048
-1.82516
-2.88739
0
0
-5.1099
-1.47922
-2.74659
-2.45377
-3.35928
-4.83419
-6.67212
-1.75551
-1.37622
-0.281067
-5.89225
0
-2.15387
-3.82169
-4.52501
-1.18403
0
0
-2.14752
0
-6.16327
-1.08453
-2.65914
-0.272362
0
-1.04462
-1.48296
-3.37361
-2.23531
0
-2.98862
-1.03521
-3.25983
0
-3.48823
-3.58939
-5.44815
0
-0.359364
-1.72668
-3.17718
-0.153291
0
-3.79481
0
-1.52892
-4.53107
-2.23086
0
0
-3.59614
0
-4.58463
-0.337205
-3.26916
0
-7.33883
-4.57143
-0.302264
0
0
-2.04296
-5.17834
-0.802001
-3.98089
-2.97574
0
-1.09189
-1.15023
-1.19144
-5.03626
0
-6.45192
-1.99048
-2.96494
-1.46717
-4.26609
0
0
-5.66272
-2.3535
-0.987199
-4.33481
-1.18147
-4.99974
-3.14762
-4.18571
0
-3.61454
-0.616801
-6.98987
-1.3917
-0.326965
-0.944992
-1.64268
0
-0.610699
0
0
-1.70805
0
0
0
-3.10278
0
-1.50414
-2.53663
-4.62667
-0.0725792
-4.33638
0
-5.36171
-0.920238
0
-7.10242
-0.167602
0
0
-1.2147
-0.65628
-6.16878
-0.382668
-0.263478
-0.404366
-4.59387
0
-1.59237
-1.84531
-3.08269
-0.50123
0
-2.43652
0
-10.2581
-0.729085
-8.50561
0
0
-1.72748
-6.03545
-1.48766
-1.79111
-1.87944
-3.19684
-2.48318
0
0
-6.00908
-1.88509
-1.84396
-2.68341
0
-3.81742
-0.0901997
-3.07107
-7.22518
0
-3.9552
0
-0.0551163
-5.77704
-1.91648
0
-3.71516
-2.49485
-4.11399
-5.35633
-2.77762
0
-0.234485
-1.01356
-0.261928
-1.21023
0
-1.16004
-0.137567
-3.72273
-3.68407
0
-3.73289
-4.57442
-0.142017
-1.6478
-1.74322
0
-1.38777
-2.44158
-1.49174
-4.57416
-1.83515
-6.08987
-2.01616
-0.868987
-1.17397
-2.42831
0
-0.513143
0
-0.364301
0
-0.218941
-2.08721
-0.193132
-2.73469
-2.05901
-1.40564
-2.42391
0
-4.95997
-0.38103
-2.93386
-2.68836
-2.80357
0
0
-0.887792
-3.47267
-3.06651
-4.62252
-0.832555
-3.12141
-0.443476
-0.28817
0
-0.766954
0
0
-0.109008
-4.6631
-0.443205
0
0
-1.85894
-0.996173
-1.06394
-2.78226
0
-4.20072
-1.64271
-1.96584
0
-3.41218
-0.457215
0
0
0
-1.08536
-0.0620986
0
-2.37786
0
0
0
-4.26627
-0.487382
-3.85277
-0.834527
-0.471563
-4.48146
0
-2.77509
-0.270858
-2.80838
0
-0.648279
-0.414535
-2.05575
-1.17137
-1.80774
-0.973848
0
-1.85002
0
-1.56184
0
-3.04123
-4.56793
-2.43471
-2.95123
-5.51517
-0.609371
-0.0893932
-4.2604
0
-2.19823
-1.01901
-3.87333
-2.0886
-0.924752
-0.116758
-0.846638
-5.67552
0
0
-7.79691
-1.36648
-9.40255
-0.971677
0
0
0
0
0
0
0
0
0
0
0
0
0
0
0
0
0
0
0
0
0
0
0
0
0
0
0
0
0
0
0
0
0
0
0
0
0
0
0
0
0
0
0
0
0
0
0
0
0
0
0
0
0
0
0
0
0
0
0
0
0
0
0
0
0
0
0
0.131664
-0.0210571
0
0
0
0
0
-0.128296
0
0
0
0
0
-0.221539
-0.109693
0
0
0
0
0
0.0127028
0
0
0.00151552
0
0
0
0
0
0
0
0
0
0
0
0
-0.310413
0
0
0
0
0
0
0
0
-0.293287
-0.115914
0
0
-0.450937
0
0
0
0
0
0
0
0
0
0
0
0
-0.236766
-0.721276
-1.21585
-0.0168495
-3.19897
0
-6.3681
-1.64145
-9.55218
0
0
0
0
-2.81209
-2.50628
-0.402676
-1.64935
-0.622384
-2.28109
-1.65719
-0.096598
0
0
-1.86841
-3.01208
-0.379604
-0.908042
-0.926587
0
-0.251468
0
0
-1.91649
-6.57415
-0.450186
-4.4331
-2.21277
-4.57867
-3.13694
0
-0.572693
-0.604449
0
-2.48946
-0.61627
-4.2774
-7.12951
-3.1103
-0.0289985
-0.462733
-2.09076
-5.20351
-3.90852
0
-3.83884
-2.34741
-3.07556
-7.02316
0
0
-1.83222
-3.36637
-4.60132
-2.84844
-2.04864
-1.76349
-4.59101
0
-2.42789
-0.958463
-2.14051
-1.91108
-5.81175
-0.981936
-3.09041
-0.718146
0
-4.80779
0
-12.2316
0
-8.35837
-0.331695
0
-10.2143
-1.24719
-1.09105
-1.81145
-2.497
-6.87837
-1.94488
-4.42728
0
-1.64489
0
-2.86394
-0.635209
-3.07959
-2.06245
-0.475238
-0.555924
0
-0.662699
-6.60944
0
0
0
0
0
0
-0.298631
-0.322891
-1.2207
0
-1.37538
0
-0.29393
0
-3.69292
-2.38157
-0.227349
-1.62031
-4.36038
-1.67981
-2.8245
-0.523502
-1.53107
-3.25335
-0.291653
-0.947778
0
-1.5749
-2.77351
0
0
-0.676615
-0.954535
0
-0.304739
-0.102027
-1.57107
0
-1.46092
-2.60104
0
-1.14262
-3.21967
-1.2498
-2.34262
-0.39518
-2.77202
0
-2.42954
0
0
0
-2.00563
-1.4494
-2.93848
-0.844921
-4.44628
-2.21513
-4.20247
-2.89173
-1.2083
-1.8362
-0.996576
-8.16978
-0.141376
-1.35226
0
-8.54134
-2.53437
-0.10048
-1.91277
-2.31694
-3.41926
-2.03715
-3.55335
-3.27457
-2.56264
-2.43792
-1.49484
-3.57759
-4.08445
-0.581382
-3.79249
-0.529671
-2.16811
-0.67147
-4.96562
0
0
-1.19071
-1.46272
-2.45235
-3.12129
-0.104778
-2.70253
-0.586989
0
-10.3297
-2.00624
-5.63463
-1.4408
-3.92338
-3.50676
-8.77421
0
0
-1.07891
-7.06374
0
-6.41469
-0.613695
-6.95661
-0.939603
0
-0.0347977
-0.480006
0
0
-8.30995
0
-0.0369643
-0.83594
-3.83272
0
-10.7731
-0.949242
-6.43588
-3.05204
-0.0519136
-1.92005
0
-6.35536
-0.754676
-2.42994
-2.55909
-4.46663
-0.799286
-5.71846
-3.85348
-3.71765
-8.90828
-2.09709
-1.96493
-4.0805
-2.4946
-3.4993
-0.221561
-3.08356
-3.9561
-1.76408
-1.00453
0
0
-4.28577
0
-4.4159
0
-6.12889
-1.36278
0
-2.42392
-4.37308
-1.03451
-5.24301
-1.923
0
-1.55354
0
-1.53549
-1.27848
0
-1.05675
-5.14605
-3.59375
0
-3.88098
-2.17004
-7.80714
0
-7.95094
-1.07843
-5.19823
-2.30961
0
-0.434137
-3.14049
0
-8.09518
-1.14945
-1.47544
0
-0.0674874
-0.120427
-0.896876
-1.52121
0
-2.00524
0
-9.31737
-1.04329
-1.91041
-1.75977
-6.25361
0
0
0
-4.36273
-0.0447014
0
-1.60653
-1.01227
-4.80214
-0.00931475
-5.56572
0
-5.58435
-1.93844
-6.43118
-2.71647
-3.29275
-2.80453
0
-2.36142
-0.900284
-3.33894
-1.81914
-1.142
-3.87819
-0.308109
-4.82761
-1.24509
-2.74996
-1.92253
-4.64199
-1.08336
-1.15534
-3.37366
0
-1.85619
-3.19076
-2.50069
-5.67012
-1.72628
-8.8357
0
0
-1.59832
-7.01119
-2.91672
-6.23934
-1.38277
-5.84082
0
0
-7.43148
-0.433397
0
-1.56924
-0.224679
0
-0.634632
-0.155373
-0.560805
-2.5184
-3.7305
-1.18533
0
0
-0.350469
-1.74681
0
-4.64337
-2.24243
-2.02202
-0.297537
-0.0320487
0
-1.62427
-0.52388
-4.34659
0
0
-1.37778
-4.85326
-1.27593
-0.0970028
0
-3.21531
-0.581323
-0.15673
-1.352
0
-1.78029
-1.05377
0
-0.0388192
0
-1.75088
-2.75735
0
-2.83188
-4.3295
-2.62347
-0.134007
-0.469609
-0.416079
-0.274131
-2.44356
-2.92834
-0.522113
-8.19812
0
-0.120169
-3.24515
-0.694692
-6.69939
-1.60524
-0.444999
0
-2.35886
-3.84123
-2.24062
-2.25866
-4.68393
0
-0.238168
0
-4.73422
-1.46656
-3.9491
-1.66283
-0.861637
0
-3.33902
-0.507663
-7.49991
0
-0.799448
-0.644725
-1.9838
-2.29933
-4.67243
0
-4.36026
-6.59165
-0.596309
0
-2.35868
-2.97138
-0.0313928
-1.94559
-0.895476
-2.42406
-3.66034
-3.53764
-0.718155
-0.378584
-3.51511
-0.36349
-0.788117
-3.39162
0
0
-2.3443
-5.31071
-6.54821
-2.41317
-2.0283
-0.250673
-1.99632
0
-2.37511
0
-3.98761
-2.58497
0
-0.785892
-2.3721
0
-7.65692
-2.77892
-4.86587
-3.25864
0
-1.97956
0
0
0
-3.79713
-3.27156
-4.00602
-5.09861
-3.36271
-0.783161
-0.0459485
-1.11221
-5.28518
-0.330329
-3.60877
0
-4.6372
-0.138103
-0.0257661
-3.37713
-0.535911
-11.0862
-0.618766
-5.43155
-0.744857
0
-2.61014
0
-1.20422
-0.64162
-11.3229
0
-1.0277
-1.62162
-4.19153
-5.69567
-3.92565
-0.518846
-0.746006
-4.29665
-0.127303
-3.99891
-1.86767
-2.68018
0
-1.95051
-1.29093
-0.728396
-1.43088
-0.69944
-1.0944
-4.45519
-2.0467
-9.53233
-5.79833
-2.06421
0
0
0
0
-6.41404
0
-4.62092
-0.376888
-8.19789
-5.61882
-3.59802
0
-1.18611
-6.61065
-2.67142
-0.311704
0
0
-2.01964
-4.33856
-0.0779383
-3.89724
-1.21383
0
-5.47001
-0.35772
-0.999258
0
-1.52095
-0.259185
-3.39559
-1.4773
-1.31354
-5.15741
0
-4.54446
0
-3.92279
-4.88594
0
0
-4.69103
0
-6.51892
0
-2.71393
-0.0977795
-0.136837
0
-4.15589
-2.12592
-2.73214
-6.40446
0
-4.48755
0
0
-7.06725
0
-8.39476
0
-5.53044
0
-0.406613
0
-2.32752
-2.69894
-0.162044
0
-10.5319
-7.39266
-6.76999
-4.39985
-3.71438
-4.12338
-0.878099
-1.18596
-2.90764
-4.03328
-0.676499
-3.05816
-2.71205
-0.133035
-0.0619963
-2.12379
0
-2.51358
-5.01542
-3.43601
-0.366255
0
-3.02782
-1.58722
0
-0.924951
-3.59864
-1.74172
0
0
0
-4.36188
-0.881376
-0.41217
0
-2.6534
0
0
-4.89663
0
-5.19187
-0.581924
-2.51973
-2.17751
-3.79002
-0.189663
0
-0.723743
-1.11436
-3.13713
-1.20451
-1.79539
-0.474905
-1.53957
-0.411701
0
-3.65052
0
0
-3.7415
-0.87672
-4.77732
-2.95873
-3.29663
-0.815692
-2.58355
-1.60637
-1.83609
-2.79857
0
-4.83029
0
0
0
-1.39558
-0.296642
-1.90033
-0.36901
-0.490982
-4.56526
-4.01023
-3.84306
-1.20817
0
-2.66267
-5.80891
-5.11219
-5.63839
-1.78147
-0.311811
-2.60537
0
-3.7025
-1.14152
-5.90757
0
-1.40143
0
-3.15623
0
-2.59439
-1.61099
-0.786583
-3.50588
-0.725739
-1.4278
-6.548
0
-0.560294
-2.34988
-0.0181812
0
-0.27168
-5.67622
-2.96294
-1.52812
-3.16272
0
-0.366126
-0.161534
-2.06223
-6.97806
-6.10068
0
-0.291309
-0.0124701
-0.423422
0
-6.36318
-7.56431
0
-2.0939
-4.58311
-2.30831
-2.30449
-5.68848
-6.11735
-1.10753
-1.56882
-1.25641
0
-1.19662
-2.68969
-7.26313
-1.90105
-0.204957
-4.84286
-0.683622
-0.079493
-0.359355
-0.00222454
-3.3814
-6.56291
-0.460495
-1.88382
0
-1.83146
-2.37681
-0.403781
-3.82746
-1.39254
-0.0705729
0
-1.44324
0
0
-4.86147
0
-6.6581
-0.104674
-3.58652
-2.62961
-0.842289
-7.00753
-1.85641
-2.08787
-2.43753
0
0
-8.62224
-1.14193
-2.18484
-0.0605667
-1.62789
-3.36551
-1.20967
0
-4.50196
-2.16116
-4.5626
0
-8.43105
-1.56044
-8.29011
0
0
-4.05457
0
-9.51011
-0.29655
-2.89425
-0.211998
0
-0.196565
-0.893982
-0.388106
-2.26591
-4.89384
-2.66772
-7.07427
-0.863507
-4.79844
-4.15736
0
-2.72785
-2.40027
-3.50783
-0.114364
-4.20792
0
-0.128428
-0.234209
0
-1.46558
-0.227997
0
-6.4438
0
-1.52766
-0.696985
0
-3.34454
0
-2.45978
-3.88986
-4.52418
0
-3.97432
-5.23057
-1.20123
-1.752
-0.322001
-2.83077
-2.18258
0
-3.34393
-3.15117
-4.15074
-1.49794
-2.69062
-0.157622
-2.23037
-2.70995
-2.04784
-7.15114
-4.22357
-7.66724
-1.32629
-7.7942
-2.30616
0
-0.170876
0
-0.216684
-3.32655
-5.33203
-1.94003
-0.198605
-6.71978
0
-2.22318
0
-4.72218
-0.710542
0
-0.649636
-4.60123
-7.82528
-0.893903
-0.529304
-2.71158
-1.58672
-4.34589
0
0
0
0
0
0
0
0
0
0
0
0
0
0
0
0
0
0
0
0
0
0
0
0
0
0
0
0
0
0
0
0
0
0
0
0
0
0
0
0
0
0
0
0
0
0
0
0
0
0
0
0
0
0
0
0
0
0
0
0
0
0
0
0
-0.130815
-1.50584
0
-1.62534
-0.66227
-0.0175455
-1.09571
-0.582239
-0.419743
-0.972509
0
-0.990235
-0.651111
-0.162423
-1.17656
-0.419544
-0.430885
-1.47651
0
-0.999411
-0.6248
0
-1.36365
-0.862013
-0.257702
-1.63452
0
-1.34968
-1.32236
0
-0.807995
-1.81123
-1.16291
-0.41621
0
-3.49522
-2.68959
0
-2.35923
-0.703947
-0.247803
-1.22356
0
-0.412018
-0.758823
0
-0.122537
-1.52027
-1.23324
-0.312107
-0.053661
-3.01638
-0.103488
0
-0.640376
-0.357522
-0.0708335
-1.47919
0
-0.910248
-3.17114
0
-2.18419
-1.06894
-8.41104
-1.29982
-2.77404
-3.35042
-3.19946
0
-6.18467
-0.838322
0
0
-2.16893
-0.610725
-3.78611
-1.43411
-4.35902
-3.6654
0
-5.73323
-0.229554
-0.369139
-3.12901
-0.813379
-6.87321
-0.686895
-4.02547
-0.379613
0
-6.5062
-1.93618
-5.94835
-7.672
-0.627881
-0.767989
-2.39074
-5.19911
-4.01481
-1.1273
0
-0.162357
-3.22764
-2.77269
-3.76374
-3.13557
0
-3.54573
-0.39173
-0.417882
-1.27977
0
-7.01025
-2.13293
-1.17397
-5.27491
-0.672879
0
-1.25659
-2.94997
0
-2.87714
-1.67537
-3.804
-1.77665
-1.31163
-5.24092
-3.31311
0
-2.27389
-5.52603
-6.82251
0
-4.46981
0
-5.36928
-1.25776
0
-1.86541
-1.07367
-1.99727
0
0
0
-5.27243
-2.0565
-5.78088
-0.328623
-3.23655
-5.50453
-2.35624
0
-0.653113
-0.299398
-0.880781
0
-3.00906
-3.11255
-0.375607
-5.81273
-1.15546
-2.03854
-1.07049
-3.41575
-3.94586
-3.78253
0
-7.90162
0
-5.71811
-3.80278
-3.61041
-4.71523
-3.5773
-2.21621
0
-4.06477
-0.638375
-5.75414
-4.30296
-1.78275
-5.65681
-1.04103
-10.2055
-0.333143
-2.25615
-3.00976
-0.439895
0
-1.12037
-0.0225765
-4.26009
-0.975546
-7.64472
-2.59918
-6.81868
-2.25666
-6.87063
0
-2.30073
-0.262443
-6.38123
-0.305936
-4.68455
0
0
-0.362782
-7.63948
0
-4.19979
0
-2.90148
-0.0643407
-1.46587
-6.18112
-1.99759
-4.25183
-2.98499
-7.12967
0
-4.00575
-3.41265
-3.98705
-2.33971
0
-2.60125
-0.299147
-1.91041
-1.8136
-0.170944
0
-1.76194
-1.48444
-4.9856
-4.08583
-6.12568
-4.89368
-0.232209
0
-2.56444
-2.65917
0
-0.121224
0
-3.24817
-2.21981
0
0
0
0
0
-4.68576
-5.11031
-1.64532
-0.791357
-2.1697
-2.64962
-3.10119
-4.90621
0
-1.47223
-1.4991
-0.971131
-3.79883
0
-1.32102
-2.75019
-2.55256
0
-2.29922
-0.290427
-1.47391
-0.277256
-3.2086
0
0
-0.444473
0
0
0
-9.61887
-3.61711
-3.9191
-3.26839
0
0
-8.21741
-5.92121
-6.46278
-1.55429
0
0
0
-2.2821
-0.545434
-4.22588
-2.31836
-6.59416
-1.45421
-2.4042
-1.8251
-3.42961
0
0
-0.855592
-2.77474
-0.483385
0
-3.46404
-2.46862
-2.04966
0
-4.4294
-4.41992
-5.11244
0
-1.94896
-3.12921
-1.18058
0
-7.10478
0
-3.36327
-2.03778
-0.532645
0
-8.72591
-1.26961
-0.369563
0
-0.622544
-3.76006
-2.87851
-1.27828
-2.01918
-6.43792
-0.658073
-5.1693
-1.04458
0
-0.0108059
-6.35474
0
0
-1.01424
-1.10037
-2.752
-0.107721
-0.143398
-2.53061
0
-6.41632
-3.05885
-2.08218
-1.86874
-1.27983
-0.135493
-9.32049
-1.23613
-1.8072
0
-5.18392
0
-5.83605
0
-2.94019
-0.0401414
-2.94284
0
-0.477989
0
-6.58383
0
-2.06375
-0.0078552
-2.93555
-1.28031
-2.07674
-1.99875
-5.30989
0
-5.32507
0
0
-6.03636
0
-2.8413
-4.09196
-5.45544
0
-1.89863
-0.386409
-2.12019
-1.26821
-0.0206935
-1.10437
-1.35402
-0.104376
0
0
-1.6018
-1.24748
-0.900526
-1.08428
-4.22595
-3.94837
-2.80241
0
-3.12142
-0.68252
-1.73985
-8.624
0
-8.51588
0
-0.324709
-1.61883
-1.25779
0
-7.71545
-2.05325
0
-2.31548
-3.89646
-1.12997
-2.7448
-2.09005
-2.10564
-3.36466
-4.68155
-1.86026
-1.4328
0
-1.44953
-3.49031
0
-4.0638
0
0
-1.34411
-3.67657
-0.808174
-0.992639
0
-1.83209
-0.981758
-4.83496
-2.873
-0.141738
-1.01067
-0.469031
-2.51682
-0.548491
0
-1.83376
-0.170036
-4.17817
-0.982591
-6.14917
-0.253993
-3.64269
-1.7818
-3.63091
0
-2.51482
-2.14657
-5.27831
-5.15425
0
-6.76466
-2.1245
-6.70638
-1.19092
-4.27717
-5.73245
-0.832735
-1.65193
0
-3.39326
0
-0.346706
0
0
-0.271556
-3.68515
-1.24526
-1.45244
0
-0.610475
-0.27973
-1.74919
-4.01133
-4.53884
-3.05701
-0.578556
-3.68488
0
-4.97192
0
-3.00318
-0.252503
-0.248897
0
-4.44232
-5.79281
-1.6354
-3.5219
0
-3.12798
0
-1.73819
-0.892358
-4.08029
-5.31996
0
-4.5775
-1.24456
-5.6267
0
-0.329854
0
0
-2.98933
-3.32438
-6.94636
-1.12042
0
-0.19013
-0.275155
-5.4578
0
-0.377516
0
0
-1.2898
-3.84996
-2.43761
-3.93532
-1.13244
-4.79662
-2.53001
0
-1.22304
-1.60105
-1.54313
-0.630082
-0.111006
-1.95101
-0.915289
-0.180738
-2.56405
-5.21093
-0.544466
-4.47215
-4.79913
0
-7.95413
0
0
-1.74967
-3.06553
-1.78618
-5.30179
-2.08261
-1.87815
-0.0308017
-2.13632
0
0
-2.55876
-0.460972
0
0
0
-0.159792
-11.0393
-2.16797
-10.2946
-0.0901692
-6.83713
-1.54158
-0.614965
-0.0245164
-2.9592
-5.52078
0
-4.42962
-0.337786
-0.15873
-6.27826
0
-2.5652
0
0
-5.05323
0
-4.24633
0
-1.67942
-0.953878
-4.54722
-1.47009
-3.6634
-0.0354293
0
-5.31504
0
-5.61388
-6.7908
-7.23981
-2.57383
-3.36859
0
-4.68919
0
-2.99283
0
-0.328777
-1.51403
-8.55022
-3.17594
0
-6.10961
-2.28539
-8.90582
0
0
-2.95797
0
-1.49962
-4.14977
0
-0.933159
-3.3184
-1.93081
0
0
-1.06043
-4.69797
0
0
-0.131336
-0.944107
-4.1967
0
0
0
-8.11276
-0.243571
-2.48502
-0.560613
0
0
-2.22228
-4.21261
-0.192829
-1.25518
-2.59686
0
-6.3481
0
-7.70182
-3.50761
-1.96474
-0.854041
-0.342712
-0.837349
0
-1.04136
-0.160927
-4.83823
-3.26723
-6.72979
0
-8.74471
0
0
-4.57682
0
0
0
-2.78915
-4.02944
-2.06688
0
0
-1.00879
-2.1077
0
-2.44592
-1.16558
-1.19197
-0.955261
-2.76248
0
-5.64988
-5.18782
-2.02843
-0.825238
0
-2.39907
-6.26283
0
-3.64603
-3.52816
-1.43088
-2.22515
-4.02304
-2.98616
-1.04956
0
-6.82273
-2.26931
0
-2.65541
0
-8.4677
0
0
-0.106505
-0.966233
-5.97316
-0.293711
0
-0.125081
-1.58601
0
-0.822578
-0.0175454
-3.97453
0
-6.29196
0
-6.81734
-2.62116
-3.16624
0
-3.37527
0
-0.961575
-0.279577
-3.98647
-5.68371
0
-5.26733
-0.225234
-3.02394
-4.82729
-1.64683
-1.04207
-1.85773
-4.3857
-0.294105
-1.24139
-3.31143
-1.14527
-0.497886
-1.37613
-0.0437823
-6.42369
-0.155261
0
0
-0.665291
0
-3.90467
-0.165758
-1.17793
-5.06213
-0.118111
0
-0.859555
-3.80147
-5.86761
-2.4715
0
0
-3.03542
-0.709772
-5.50478
-1.44357
-3.69187
-1.77115
-2.5244
-5.64886
-3.47569
-4.24371
-2.78252
-1.10526
0
-1.29418
0
0
-4.27594
0
-4.11473
-1.69447
-0.934812
-0.959831
0
-10.4036
0
-8.88213
-3.70946
0
-0.870951
-3.68649
-6.44425
0
-1.93178
-2.58167
0
-1.31209
-3.73705
-0.0177085
-1.11923
-3.45795
0
-6.34195
0
-1.65071
-1.25154
-2.77759
0
-2.40507
-0.666259
-3.85138
-1.889
0
0
-4.81117
-0.0338851
-3.00584
-1.44239
-3.07878
-2.425
0
-4.31112
-2.31448
-0.0197688
-7.01061
0
-3.13512
0
-0.0979751
-0.156314
-7.87677
-3.32332
-4.66792
-4.2753
-1.60763
-1.36032
0
-6.32505
0
-1.17086
-1.34967
-6.17542
-4.72911
-0.870639
-2.75939
0
-4.0548
0
-0.875762
-1.83825
-2.80804
-2.75647
0
-1.78704
-4.58491
-3.00315
-8.13573
-0.567092
-0.150608
0
-0.907916
-1.77078
-5.05127
-5.2786
-1.11519
-2.42766
0
-2.82096
0
0
0
-3.62918
-1.84576
-1.20301
0
0
0
-2.73774
-6.27668
-5.77653
-4.03602
-1.22891
-2.71534
-0.275804
-2.4304
-4.01404
-0.362878
-1.12909
-0.148256
0
0
-1.42483
-1.83273
-1.69357
0
-0.379859
-3.37782
0
-0.662982
-4.05188
0
-4.63866
0
-4.30818
0
-0.489588
0
-0.323564