<?xml version="1.0"?>
<VTKFile type="RectilinearGrid">
<RectilinearGrid WholeExtent="0 32 0 32 0 32" Origin="0 0 0" Spacing="1 1 1">
<Piece Extent="0 32 0 32 0 32">
<PointData>
</PointData>
<Coordinates>
<DataArray type="Float32" format="ascii">
0 0.524874 1.04975 1.57462 2.0995 2.62437 3.14924 3.67412 4.19899 4.72386 5.24874 5.77361 6.29849 6.82336 7.34823 7.87311 8.39798 8.92285 9.44773 9.9726 10.4975 11.0224 11.5472 12.0721 12.597 13.1218 13.6467 14.1716 14.6965 15.2213 15.7462 16.2711 16.796 
</DataArray>
<DataArray type="Float32" format="ascii">
-5.03879 -3.62163 -2.20447 -0.787311 0.629849 2.04701 3.46417 4.88133 6.29849 7.71565 9.1328 10.55 11.9671 13.3843 14.8014 16.2186 17.6358 19.0529 20.4701 21.8872 23.3044 24.7216 26.1387 27.5559 28.973 30.3902 31.8074 33.2245 34.6417 36.0588 37.476 38.8931 40.3103 
</DataArray>
<DataArray type="Float32" format="ascii">
0 0.524874 1.04975 1.57462 2.0995 2.62437 3.14924 3.67412 4.19899 4.72386 5.24874 5.77361 6.29849 6.82336 7.34823 7.87311 8.39798 8.92285 9.44773 9.9726 10.4975 11.0224 11.5472 12.0721 12.597 13.1218 13.6467 14.1716 14.6965 15.2213 15.7462 16.2711 16.796 
</DataArray>
</Coordinates>
<CellData>
<DataArray type="Float32" Name="Scalar" format="ascii">
0
0
0
0
0
0
0
0
0
0
0
0
0
0
0
0
0
0
0
0
0
0
0
0
0
0
0
0
0
0
0
0
0
0
0
0
0
0
0
0
0
0
0
0
0
0
0
0
0
0
0
0
0
0
0
0
0
0
0
0
0
0
0
0
0.516161
0.281354
0
0.334311
-0.484724
0
-0.375121
-0.657681
-0.624641
-0.724773
0
-0.520641
0.288901
0.00463542
-0.336847
-0.284445
-0.102948
-0.223028
0
-0.451816
-0.387509
0.00327262
-0.12051
-0.465317
0.2864
-0.374992
-0.479446
-0.215638
0.804665
0.0427688
-0.401889
-0.403321
-0.109566
-1.33915
0
-0.166972
-0.0761903
0
-0.1888
-0.0285575
-0.0643974
-0.288261
0
0
0.0355484
0
-0.357435
-0.681064
-0.194026
-1.46698
0
-0.780063
-0.417942
-0.0346491
-1.7383
-0.725802
-0.191909
-0.795427
0
-0.093142
-0.737993
0
-0.15675
-1.0919
0
-1.75423
-3.35661
-1.15537
0
-0.931395
-0.919048
0
-0.35854
-2.03595
0
-0.672656
-1.37384
0
-3.12101
-3.25303
-1.0093
-6.0978
0
-4.11217
-0.882092
0
-1.64544
-3.48125
-1.82101
-1.50531
-0.361074
-8.05821
0
-0.604774
-3.62225
-1.6067
0
-1.38132
-4.6489
0
-3.86437
0
-5.54898
-0.730394
-8.16506
0
-1.02336
-6.82274
-6.00197
-1.0968
-0.124678
0
-5.10381
-1.13922
-6.91924
-3.56181
-0.931028
-6.28794
0
-2.9268
-0.805964
-3.50696
-2.51268
0
-2.04186
-6.24711
0
-3.72759
0
0
-6.13866
0
0
-3.71087
-0.316349
-1.22079
0
-1.64629
0
-0.731012
0
-3.10018
-4.40883
0
0
-0.144657
-0.0872797
0
-0.656101
-4.99348
0
-5.49589
0
-0.573669
-1.22267
-0.628215
-0.723452
-4.76189
-1.79412
-2.96932
-5.83452
-7.37953
0
-0.250006
0
-6.38825
-2.15602
-2.75181
0
-1.81254
-0.345392
-6.5613
0
-0.377353
-5.96038
0
-6.98356
-2.71468
-0.633103
-0.511981
-2.19937
-0.306663
0
-6.29571
0
-0.28248
-1.57909
-0.668736
0
-0.428052
-6.91237
-8.98735
0
-1.52839
0
-3.72703
0
-1.68113
0
-1.46847
-1.7738
-8.74981
-2.18247
-5.51587
-0.272811
-0.794087
-0.193887
-3.12571
-4.27637
0
0
-0.877142
-0.00980516
-2.08357
0
-1.78844
-3.6268
0
-0.812974
-0.863383
0
-7.56407
0
-3.7153
-3.03213
-2.87205
-4.5085
-0.037266
-0.231473
-1.48449
-4.89482
-2.69887
-2.41191
-2.07326
0
-0.743145
0
0
0
-1.34869
-2.93989
-4.15
-1.74994
-4.44732
-7.72179
-1.45716
-3.44504
-7.06407
-0.731273
-0.237689
-1.65727
-0.0479438
-8.32398
0
-5.14657
-4.10954
-9.42412
-1.99487
-4.1616
-3.89053
-0.175083
-5.46599
-2.8344
-2.43717
-1.19895
-3.20687
0
-1.36462
-0.418682
-0.562412
-3.2598
-0.0164086
-0.114179
-0.79795
-0.793243
0
-3.30129
0
-3.32711
-1.6975
0
-2.20047
-8.65233
-2.10841
-5.80617
0
-3.3978
-4.46459
-0.423239
-1.662
-3.20557
-1.80653
-3.71981
-0.589048
-8.44997
-2.09942
-3.77536
-8.03501
-2.46747
0
-0.854251
-0.585353
-2.67509
-1.2542
-1.20525
-1.3032
-0.695171
-1.90377
-1.12606
-4.28177
0
-2.34479
-0.953632
-2.08071
-0.449548
0
-4.93682
-3.9629
-1.15613
-2.82651
0
0
-3.0265
0
-7.30289
-1.61532
-5.27945
0
-3.54149
0
-2.26177
0
-7.328
-0.166374
-6.15985
-1.30661
-1.04205
-1.82002
-0.807512
-0.0370337
-5.05844
0
-2.48508
0
0
-0.513074
-4.82065
-1.06
-3.26913
0
0
0
-9.23709
-0.310024
0
-1.42785
-3.28864
-3.90023
-2.10648
-2.79329
-2.23737
-8.84067
-1.22202
-3.83745
-0.215882
-7.35255
0
-9.77351
0
-3.758
0
-1.91619
0
-3.31354
0
0
0
-3.84486
-1.63946
-8.08459
0
-1.67961
0
-0.885885
0
-0.356196
-3.13663
-0.499344
-0.877102
0
-0.571494
0
-4.41554
0
-2.62439
-1.66562
-2.20471
-0.146265
-2.37885
-0.324639
-1.63379
-0.880617
-4.20417
-1.4431
-6.89374
-8.19909
0
-2.10305
0
0
-1.19078
-0.308122
0
-3.24462
-3.14758
0
-3.41295
-0.678196
-4.27343
-1.98818
-0.328524
-2.75468
-0.671691
0
-1.51164
-0.628888
0
-1.61535
-1.9128
0
-1.46741
0
-4.11908
-3.89065
-0.289528
-0.500536
-6.19197
0
-2.81446
-1.20064
-1.26023
-0.997646
-0.0593548
-0.944073
0
-5.8974
-1.18532
0
0
-1.40543
-3.35435
-5.85154
0
-5.35865
0
-2.42646
0
0
-2.53889
-1.51505
-1.85849
-1.04939
-0.911812
-5.03409
-6.74504
0
0
-0.222195
-1.98432
-2.61559
0
-2.02926
-1.66301
-0.938923
-1.88695
-2.24834
0
-5.1562
-3.23532
0
-1.05323
-4.10596
-2.17133
-0.0671106
-1.10071
-1.86399
0
-0.319797
-6.43875
0
-1.81466
0
-2.05818
-0.932468
-1.11192
-0.801532
-2.35266
-0.661262
-1.22212
0
-4.31146
-1.4116
-3.73347
-0.359299
-5.13372
0
-0.257443
-0.0243583
-0.401085
-1.31056
-5.47991
-0.222951
-0.288577
0
-3.2209
-1.65744
-2.32523
-1.63454
0
-7.50774
0
-1.47343
0
-3.29239
-1.52261
0
-0.676469
-6.41769
-0.144863
-2.4173
0
-7.41812
0
-2.43839
-1.73064
0
-0.980859
-3.87395
-3.68354
-1.43513
-2.15002
-6.93334
0
-6.98405
-1.10935
-8.39724
0
-4.10963
-1.36058
-2.74648
-1.84852
-2.12262
-0.312219
-2.2136
-4.92692
-1.09481
-6.44543
-6.01862
-4.01699
-6.12792
-0.918299
-0.268844
-1.64469
-1.31416
0
0
0
-2.35035
-1.04403
0
-0.843286
-3.50784
-6.72444
0
-1.03044
-0.976654
-1.93652
-4.24528
-2.57903
-1.79779
0
-3.04017
-1.29043
-4.19093
-0.14442
-0.126519
-2.01728
0
-0.11999
0
-5.24052
0
-0.56941
-6.52832
-1.89564
0
-1.71582
0
-0.0587671
-0.270158
0
-6.58195
0
-4.8922
0
-7.20334
-1.27142
-2.50193
-1.21734
-4.31416
0
0
-3.94287
0
-1.79117
0
-2.52539
0
-6.05517
-1.20282
0
-0.0139029
-3.22446
-0.047814
-1.02369
-7.93927
-2.25956
-2.31368
0
0
-4.5126
-5.34203
-3.71892
-2.09976
-2.80237
-3.12558
-3.32773
0
-1.74893
-4.01567
-1.30887
-7.80048
-8.1802
-2.89979
-0.0146795
0
-5.65678
-1.61144
-5.20087
-0.3772
-2.80183
-1.74582
-2.178
0
-1.14657
-4.97891
-2.61334
-1.17499
-0.0268212
0
0
-4.48374
-1.16091
-7.79786
0
-2.74012
0
0
-0.205275
-4.9978
-0.431237
0
-1.80339
-0.605873
0
-4.82653
0
-1.2789
-6.4492
-0.925313
-7.62718
0
-2.07034
-0.987329
-3.53046
-1.27944
-0.183016
-3.63562
-4.83044
-2.82471
-6.73802
0
-4.49176
-0.117192
-4.02873
-0.155305
-0.53767
-2.39268
-4.58187
-2.40289
-2.38528
-1.70234
-3.52474
-2.02164
-7.66477
0
-0.65347
-1.83927
-1.23594
-1.89107
-1.79301
-1.53599
-1.16312
-2.27055
-1.4498
-0.85425
-3.13992
-1.01723
-0.207049
0
-7.09403
-0.719693
-2.80076
0
-6.10765
0
-0.71397
0
-2.19535
-1.06621
-2.88589
-0.812627
0
0
-5.1385
-1.14143
-3.72766
0
0
-0.997717
0
-1.08641
0
-0.530941
-2.12064
-2.7727
-9.37288
0
-5.72263
-0.434317
-1.07771
-1.38086
0
-1.99256
-2.40519
0
-2.97333
-3.56707
-2.73264
-3.09791
-1.44238
-6.28016
-1.10931
-7.06722
-4.54668
0
-0.384735
-5.9637
-5.41947
-2.1071
-5.55626
-4.76838
-2.07456
-3.74327
-2.77807
-0.261626
-0.783066
0
-2.64098
0
-3.95661
-0.520915
0
-5.2731
-1.91071
-0.100874
0
-0.762394
-2.59504
-2.34428
-3.42831
-0.590255
-2.97516
-1.89914
-1.39757
-0.382147
-3.34216
-3.54316
-2.00848
-4.99812
-3.9601
-1.02401
-1.69633
0
-1.26758
-0.51737
-7.2333
0
0
-3.49128
-3.97849
0
0
-1.26132
0
-5.63683
0
-7.00894
-1.17664
-3.22277
-1.04108
-4.16895
-1.41599
-2.97635
-5.15372
-0.0464187
-3.39345
0
0
0
-1.43673
0
-0.852528
-0.560763
-0.124704
-5.13116
0
-2.30102
0
-1.77812
-0.562912
0
-3.89013
0
0
-1.62917
-0.669203
-0.747571
-2.49517
-4.93385
-2.49609
-0.320259
-1.53018
-0.864999
-4.0091
-1.50203
-3.25424
-0.773825
-5.22612
-0.110427
-0.30589
-2.2439
-0.0533299
0
-3.33084
-1.41244
0
-4.02923
0
-2.33541
-0.535632
-4.85248
0
-0.0760999
-7.85449
-3.54865
-4.29277
-0.231507
-4.84713
-0.828299
-0.920471
0
-2.54375
-2.21513
-3.41944
0
0
-4.34259
-2.45994
0
-8.89016
0
-2.79155
-3.96203
-0.534978
-0.749062
-3.23618
-6.21529
0
-6.27713
-2.80318
-0.18827
-1.55603
-0.513285
0
-4.30081
0
-4.83843
-1.38217
-3.68497
-3.86502
0
-3.16118
-2.6993
-0.466681
0
-3.20076
-0.967329
0
0
0
0
0
-4.7986
-1.24978
-4.65344
-2.16652
-6.54717
-0.0670124
-2.33123
-1.55563
-10.1049
-0.366475
-0.933043
0
-1.39088
0
0
-10.2772
0
-8.97192
0
-8.22173
-5.74376
-4.40875
-6.75093
-2.54642
-8.62531
-0.936777
-5.01845
-2.46398
-4.29024
-0.189398
-3.11137
-2.16532
-6.15242
0
-3.73433
0
-0.596621
0
0
0
0
0
0
0
0
0
0
0
0
0
0
0
0
0
0
0
0
0
0
0
0
0
0
0
0
0
0
0
0
0
0
0
0
0
0
0
0
0
0
0
0
0
0
0
0
0
0
0
0
0
0
0
0
0
0
0
0
0
0
0
0
0.193876
-0.785727
0
-2.36291
-1.17436
0
-0.851485
-1.24475
-0.46417
-0.356565
-0.0853808
-1.08919
-1.31794
0
-0.387678
-0.695432
-0.575294
-0.671244
-0.227047
-1.14947
-0.93988
0
-0.573807
-0.630054
-0.75781
-0.99649
0
-0.761375
-0.621661
0
-0.982189
-0.542586
-0.179517
-2.50262
0
-0.979223
-3.48652
-0.273807
-1.21334
-0.634568
-0.148917
-0.327454
0
-0.620502
-0.413045
0
-1.89443
-0.188192
0
-0.460818
0
-0.105738
-3.52709
0
-2.5484
-1.25162
-0.528312
-1.04853
0
-1.73757
-0.593484
0
-0.602239
-0.0457014
-2.41263
-6.2649
-0.480485
-3.7321
-1.81321
-2.56144
-2.46586
-8.26736
0
-4.00077
0
-0.238198
-3.08078
-3.9876
-3.37735
-2.24532
0
-5.16918
-1.9104
-3.25019
-4.53318
-2.61615
-5.16067
0
0
-4.36215
-0.572259
-0.0799856
-1.46428
-1.19624
-3.66761
-4.36417
-0.993449
-2.2797
-0.631784
-1.4539
-2.50837
-2.2889
-1.27851
-1.89516
0
-4.4853
-1.56769
-3.32167
-1.74237
0
-6.21605
0
0
0
-0.542442
-0.345975
-5.14706
-0.113709
-3.16747
-1.42119
-1.52902
-7.32215
0
-6.81189
-0.0592819
-7.35178
-0.590271
-0.200376
-6.59641
-0.339884
-2.40274
-3.98802
0
-0.0266405
-1.26188
-4.05981
0
-4.68164
-0.247628
-2.43109
-0.402846
-0.901354
-0.0383105
-6.96629
-2.65993
-1.79544
0
-5.96962
0
-0.921502
-3.43411
0
0
-0.56737
-1.82177
-1.85671
-2.81389
0
-0.550919
0
-0.539482
-0.227646
-6.42848
0
-0.572254
-3.08612
-1.25384
-0.318912
-1.74212
-3.00893
-1.47134
-1.7297
-0.277683
-0.852062
-1.35099
-5.49155
0
-2.85262
-1.26189
-3.43996
0
-4.20865
-0.591526
0
-4.0679
-3.22363
-2.85781
-5.33238
0
-7.19632
0
-0.0476984
-0.312253
-4.11791
0
-1.46267
-1.52434
-5.11812
0
-4.61276
0
-1.83735
-1.69979
0
-3.07136
-3.66745
-1.99842
0
-3.48148
0
-6.6473
0
-5.60279
-0.646242
-0.696831
0
-2.05468
-2.78715
-2.17709
-6.78173
-5.3038
-0.352681
0
0
0
0
-2.49838
-2.74167
-3.78789
-2.47496
0
0
-3.9167
0
-5.78473
-4.65872
-2.86115
-3.21921
-4.49877
-0.607513
-0.595239
-4.41172
-2.75407
-2.86746
-0.164155
-1.4451
-7.48997
0
-2.84065
-3.04221
-2.94074
-0.689381
0
-2.38992
-3.951
0
-0.478947
-3.73477
-0.151855
-0.963759
-0.104275
-0.760988
-0.735626
-3.16557
0
0
-1.92635
-3.77559
-2.01907
-1.86703
-7.73335
-0.272052
-6.03247
0
-6.05345
-2.21924
-3.67142
-0.36662
-0.313956
-3.61912
-3.491
-1.17209
0
-0.202894
0
0
-6.76354
-0.352413
-2.86846
-6.10302
0
0
-10.8785
0
-1.46705
-1.58644
0
-4.9895
-1.52604
-7.45048
0
-7.78979
0
-0.11466
-5.84902
0
-0.929211
0
0
-1.13818
0
-3.37129
-0.372648
-1.21319
-5.59852
-0.801747
-0.517127
0
-1.54669
-3.03265
-2.04327
0
-4.56819
-0.113957
-0.0903895
0
-0.987668
-1.34745
0
0
-6.46674
-0.202761
0
0
-0.989572
-0.20453
-5.22666
0
-4.55893
-2.22494
-0.265243
-4.7202
-3.36595
0
-6.9622
-0.47385
0
-0.520249
0
-7.40796
-1.60348
-1.83263
-1.63675
-3.19085
-2.83913
0
0
-6.32149
-0.864735
-4.84005
0
-3.12455
-2.64606
0
-5.21398
0
-5.09806
-0.612252
-4.85206
-6.03898
-2.1866
-6.48061
-0.34203
-3.62674
0
-8.22722
-0.523824
-6.53001
0
0
-3.1285
-2.93416
-3.45051
-4.04649
-5.11116
-1.26112
-0.747403
-4.87343
-3.10269
-1.2582
-6.36636
0
-1.65497
-0.952005
-0.0642273
0
-1.37129
-0.892261
0
-0.906838
-0.19381
-1.4097
-3.74754
0
0
0
-5.14057
-0.828463
-2.20753
-3.36868
-0.99981
-3.22624
0
-2.56417
0
-1.5723
-1.49409
-2.8039
0
0
-4.54691
-2.31385
-2.46032
-2.47933
-0.486736
-0.396456
-1.47953
-2.85594
-0.320224
-4.68007
-3.10084
-2.29814
-0.145522
-1.93985
-6.29979
-2.0275
0
0
-1.28298
-6.07084
-1.25907
-2.74229
-3.56502
-3.03357
-1.45691
-3.88207
-1.47157
-11.5059
-4.89839
-2.031
-0.688089
0
-2.00348
0
0
-3.94404
-0.726451
-5.95233
-4.35166
-0.870577
-5.4226
-3.75241
-3.32746
-1.53105
0
-4.05424
-1.63324
-5.44063
-0.449841
0
-2.34333
-0.268735
-0.55868
-7.69217
-1.10639
-1.75361
0
-0.631294
-3.47533
-5.02995
-1.35649
-0.0603386
-0.625269
0
-2.86446
-1.21264
-4.83555
-4.57381
-3.60851
-3.44883
-4.70348
0
-0.548933
0
-8.08699
0
-3.5433
0
-4.55786
-0.858171
-1.70762
0
-0.667139
-2.96955
-1.11037
-3.07783
-3.89938
-3.19286
-3.77135
-0.56086
0
-3.77118
0
-2.43869
-1.98743
-1.43105
-2.38887
-1.6352
-8.95822
-0.794512
-1.19273
-2.81014
-2.3016
-1.53707
-1.26952
-4.177
-4.00358
-1.47212
0
-2.72718
-0.344142
-3.1284
-1.68306
-0.717769
-2.24135
-0.771119
-3.10246
-0.400338
0
-2.47165
-1.87976
0
0
0
-2.42369
0
-0.339522
-0.78502
-4.27472
0
-2.89738
0
-10.1575
0
-3.06468
-2.78033
0
0
-8.00725
-4.43173
0
-6.56382
0
-7.34433
-2.04871
-8.24535
-1.66906
-5.06907
0
-5.53179
-0.69411
-3.57134
-1.48844
0
-4.42865
-4.44019
0
-0.741031
0
-2.82515
-2.06151
-5.67999
-0.489067
-5.98163
-0.252118
0
-1.79755
-0.903871
-8.47654
-3.48504
-1.27721
0
-2.66204
-2.41143
0
-3.77586
-4.36697
-0.582519
-5.76642
-0.168094
-4.12572
0
-1.99047
0
-4.08408
-0.842964
0
0
-0.0370613
-0.304294
-2.28049
0
-0.886778
0
-4.51472
-0.464939
-1.28551
-6.30552
-0.211972
-4.13732
-1.72427
-2.5849
-0.46007
-6.51121
-0.330342
-0.14578
-0.69527
-3.52342
-0.857546
-7.08465
-0.692768
-1.24714
-3.82197
-4.63754
-0.527768
-2.15793
0
-8.11969
0
-0.172011
0
0
-3.77369
0
-9.93361
0
-0.47699
-0.76277
0
0
-2.05704
-2.47797
-1.21074
-6.73567
-2.66011
-3.09718
-0.231278
0
-5.73174
-2.67599
-6.58358
-3.37999
-0.66536
-0.639334
-0.486377
0
-7.03034
-4.82239
-0.214752
0
0
-7.4574
0
-5.60914
0
0
-2.02288
-3.72394
-4.99733
-1.12693
-1.13953
0
-0.685656
0
-0.46749
-3.9246
-0.788709
-1.37345
-0.325703
0
-0.389474
-4.17271
-1.18773
-4.19602
-5.36421
-4.24422
-0.0501814
-2.78702
-5.0021
0
-0.483695
-0.657361
-1.49527
-0.228316
-3.89005
-1.24988
-8.71227
-0.546611
-7.79641
-3.37066
-0.439645
-2.83373
-2.87577
-0.561446
-0.784328
-6.30469
-0.711377
-3.03241
-1.86476
-4.052
-1.87402
0
-4.23463
-1.76938
-0.0209442
0
-2.80199
-0.824628
-8.9228
-2.47254
0
-2.97081
0
-4.2795
0
-2.20588
-2.36581
-6.28787
-2.85345
-0.854093
-7.41854
-0.660194
-3.35692
-4.43634
0
-3.09881
0
0
-0.2896
0
-3.93751
-0.0202006
-0.167614
0
-3.45586
-2.48401
-1.50537
0
-7.37461
-0.0187703
0
0
-7.17142
-1.52436
-8.20599
-1.81171
-16.0464
0
-2.55136
0
-2.16352
-0.511095
-1.30005
-6.70523
-2.68857
-0.291593
-4.51407
0
-4.05825
-4.76113
-0.76096
-6.82204
-6.21511
-1.23472
-6.24485
0
-6.91549
-0.120647
-0.063559
0
-5.63911
-1.3634
-3.74982
-2.7423
0
-0.713255
-3.11928
-0.0675332
0
-2.21078
-1.8501
-5.86664
-1.53143
-1.1859
-3.69542
-2.55823
-1.68099
0
-9.05154
0
0
-5.9764
-1.02924
-4.6956
-0.0856327
-1.43007
-0.699235
0
-0.602188
-0.501916
-2.53714
-1.46432
-1.05415
-3.03798
0
-1.0894
-0.747089
-1.57531
-2.85489
-0.319932
-5.6983
0
-5.5891
0
-4.79535
0
-1.60188
-2.56926
-8.10975
-3.52963
-4.81142
-8.06503
0
-2.32963
-6.3761
0
-1.10246
-3.43229
-1.55134
0
-0.657134
-0.457454
-0.920335
-1.60669
-0.358902
-0.402765
-4.32995
-0.0701309
-1.71009
-3.18165
-5.86068
0
-8.7791
-0.858995
0
-0.719282
-1.1179
-0.223623
-3.17641
-1.53921
0
-0.247359
0
-3.8165
0
0
-1.85965
-1.2999
-2.57252
-0.176374
-7.38956
-3.15378
-0.68682
0
-5.60951
-1.62207
-8.38062
0
-6.19084
0
-4.57478
-0.663446
-2.45809
0
-2.56866
0
0
-5.02486
-2.95086
-2.9997
0
-6.77965
0
-8.51388
0
-2.60484
0
-5.03816
-1.37106
-1.34692
-1.48188
-2.40399
-0.866701
0
-6.99098
-2.97387
-1.35758
-2.10861
-8.47105
-0.0719417
-5.71283
0
-2.45074
-1.5236
-2.32445
-0.315817
-1.00784
-4.09116
-4.68529
-3.94606
0
-0.632156
-2.18063
-8.4774
-7.90494
-1.47104
-7.94789
-2.71763
-4.47573
-1.57377
-3.48417
-4.54389
-0.674835
0
-8.73983
-0.239431
-9.9269
0
-8.56817
0
-6.62236
-3.99666
-2.01346
-3.70537
-0.990437
-1.37241
-0.852304
-2.30318
-3.52934
-4.02449
0
0
0
0
0
0
0
0
0
0
0
0
0
0
0
0
0
0
0
0
0
0
0
0
0
0
0
0
0
0
0
0
0
0
0
0
0
0
0
0
0
0
0
0
0
0
0
0
0
0
0
0
0
0
0
0
0
0
0
0
0
0
0
0
-0.0400629
0
0
0
0
0
0
0
-0.0218498
-0.340489
0
0
-0.0787221
0
0
0
0
-0.0623326
0
-0.142741
0
0
-0.058224
0
0
-0.0107414
0
-0.0773941
0
0
-0.0922305
-0.121097
0
0
0
-0.0895813
0
0
0
0
0
0
0
0
0
0
0
-0.103128
0
0
0
0
0
0
0
0
0
0
0
0
0
0
0
0
-1.67227
-1.91941
-1.28376
-0.420861
-0.859781
-0.117145
0
-0.0405248
0
-5.43034
-2.01591
-1.44683
-3.0474
-0.147734
-1.05977
-3.05391
-2.39941
-2.71982
-1.3888
0
-0.995763
0
0
-1.03907
-6.06547
0
-1.40729
-1.01745
-2.53921
0
-1.29446
0
-2.86047
-2.18673
-2.8179
-0.0821528
-0.746475
-2.33978
-3.581
-0.739216
0
-0.646468
-5.43027
-1.02269
-2.77317
-1.28004
-1.52295
-1.43849
-5.31378
-1.29604
-4.30504
-3.36279
-6.33862
-1.57143
-8.07856
-3.49368
-1.21921
-0.464518
0
-0.421559
0
-0.795324
-4.52076
-2.30023
-0.834798
0
-0.559064
-2.91859
0
-6.22148
-4.29619
-2.03634
-0.5032
-1.13114
-5.49516
-1.14073
-0.571738
0
-4.4162
0
-0.627962
-5.74704
-0.70268
0
-1.7257
-1.15069
-1.26055
0
-3.36324
-1.08562
-9.2706
-1.6919
0
-0.539873
-5.72443
-0.17562
-1.59448
-6.28528
0
-3.82034
-1.17551
0
-3.69393
0
-2.43227
-0.526873
-0.235966
-2.848
-2.32582
-2.04367
-2.02383
-4.92289
-1.01945
-3.4679
-3.03117
-3.25892
-8.87036
-1.13593
0
-5.63536
0
0
-0.630366
0
0
-0.0535465
0
-8.12091
-5.14427
-2.83179
0
-4.53865
0
-1.07945
-5.4361
0
-2.33045
-2.09948
-3.36931
-0.940589
-2.37718
-1.57804
-6.00447
0
-2.53212
0
-2.48154
-3.13798
-0.725972
0
-4.70439
-2.24287
-5.3101
-7.77128
-2.85946
-0.264839
-5.31899
-0.186191
-5.13873
-2.8518
-0.561947
-0.225927
0
-10.1549
-0.485231
-1.88502
-11.5123
-0.611657
-0.346549
-1.13619
-0.111762
-0.723602
0
-0.704714
-4.11635
-0.930469
-2.95805
-2.7052
-3.59953
0
-5.30353
-0.0951692
-2.69993
-0.880264
0
-3.75082
0
-8.70792
0
-1.37236
0
-4.31627
-0.00771579
-2.46326
-5.44599
-1.91892
-5.724
-1.89463
-1.7843
0
-3.18984
-6.75761
0
-1.38876
-0.32181
-1.0824
-0.640511
0
0
0
-0.615319
-2.67127
-1.6132
-3.78217
0
-0.147614
-0.142724
-1.22141
-1.64057
-3.17552
-2.3431
-5.17081
-1.42343
-0.0451449
-2.29632
-0.707398
-5.05068
-2.00264
-0.0640178
-3.54071
-2.62791
-1.65412
-1.57285
-2.03636
-1.43871
-1.82717
-5.79681
-2.71911
-3.41619
-3.57868
0
-6.87902
-2.46944
-5.50722
-3.59211
-2.40165
-6.26626
0
-2.21973
-3.76564
-3.32941
-3.29841
-4.49941
0
-0.644022
-1.73579
-0.320997
-0.553175
-2.33329
0
-3.81113
0
0
-0.69073
-5.52885
-4.19762
0
0
-2.0122
-7.90638
0
-3.40564
-2.00003
-0.737186
0
-1.54107
-5.39148
-1.67805
-1.71518
-1.39709
-1.58069
-0.63091
-4.8195
-2.70272
-7.8631
0
0
-0.359597
-1.20924
0
-0.40228
-4.12452
-8.01928
-0.0823167
0
-4.01159
-1.23962
-1.53391
-4.47907
-2.34214
-4.84867
-1.81667
-0.95242
-0.420745
-3.60477
0
0
-0.46148
-0.394568
-4.73725
0
0
-3.66931
0
-8.11438
-0.0377367
-5.37187
-1.29242
-4.43427
-0.984329
0
-0.894274
-3.62101
0
-3.98285
-0.788508
0
-2.20059
-0.501055
-3.25539
-5.01082
-2.76479
-1.26634
0
-7.23695
0
-3.02368
-0.81261
0
-3.36357
-4.48807
-2.50926
0
-0.791875
-0.792588
-2.63997
0
-1.25866
-1.48284
-1.00877
-3.10677
-0.301334
0
-7.15003
-4.2151
-8.74422
0
-0.67712
-8.87097
0
-3.9754
-2.37875
-1.13011
-0.424757
0
-0.754083
0
-0.847
-5.02799
0
0
-2.79174
-2.9256
-3.6492
0
0
-0.952343
0
-0.785831
-0.651228
-1.60181
-5.07543
-0.606416
0
-0.106243
0
-2.54843
0
-2.52432
-6.10119
-2.07597
0
-2.66824
-0.504838
0
-7.80589
-1.10469
-8.56228
-0.469862
-2.16801
-1.27689
0
-1.0961
0
-0.799457
-0.878297
-1.37436
-0.00659053
-0.233581
0
-0.596934
0
-6.76779
0
0
0
0
-6.97273
0
-7.79528
0
-2.36819
0
-1.59273
-5.07513
0
-7.5611
-1.63166
-2.74596
0
-1.43069
-1.31251
-3.24546
-1.05089
-1.16671
0
-1.80999
-6.71464
-1.88269
-0.107126
-5.64431
0
0
0
0
-1.03769
-6.00697
-2.2334
0
-2.86266
0
-3.55397
-1.71
0
-3.10137
-0.0997931
0
-2.46566
-1.62202
-3.65447
-1.06253
-1.69988
0
0
-4.80797
0
-8.19778
0
-5.62036
-6.17622
-3.28454
-1.68917
-1.92311
-3.18027
-1.61386
-0.142931
-0.296864
-0.817263
-3.71293
0
-3.95527
-0.0286205
-5.30177
0
0
0
-5.36541
0
-0.0939382
-1.57531
-0.0924955
-5.64063
-0.427377
-2.54854
0
-2.17486
-0.839915
-1.34594
-2.24425
0
0
0
-3.53806
0
-3.87927
-0.452569
-0.0660066
0
-3.00977
-0.335167
-1.27204
-0.333445
-2.12638
-3.13105
-3.455
0
-2.12438
0
0
-2.99146
-9.19107
-1.51642
-7.5079
-1.11002
0
-3.10105
-1.89834
-0.275107
-0.925223
-1.06757
-3.49638
-4.31173
-2.19592
-0.994678
-2.86193
-1.64208
-2.39703
0
-4.70807
0
-1.00777
-2.21155
-0.278767
-3.69303
-3.48202
-0.631029
-5.50835
-1.61293
-3.02201
0
-0.0290574
-0.214929
0
-2.70251
-1.69148
-2.97952
-2.54478
-4.19916
-6.40966
-1.1041
-1.63786
-2.8354
-1.77864
-0.52042
-2.19614
-0.732397
-1.76919
-3.21617
-6.24045
-0.736571
0
-2.34927
-0.425777
0
-4.97784
-2.20006
-1.68805
-1.88331
-5.27041
-0.835295
-2.16187
-3.39838
-3.36973
-3.8577
0
-6.08641
0
-3.2562
0
-1.04299
-0.468229
-1.1332
-8.78127
-0.128536
-0.652074
-1.26201
-1.01169
-4.82146
-2.26297
0
-7.1308
0
0
0
-2.58398
-1.90611
-0.448415
-4.82365
-4.55717
-0.316837
-0.150228
-6.36455
0
0
-1.58881
-0.533441
-0.0310284
-3.94567
-0.59722
-4.21376
0
-0.651557
0
-2.77131
0
-4.74867
-0.537477
-5.94371
0
-7.5953
-1.21765
0
-5.47716
0
0
-5.10448
-1.99827
-10.7417
-3.82253
-3.85445
0
-1.00332
-2.18502
0
-3.76627
-0.363823
-2.94889
-0.355453
0
-5.36299
-2.4806
0
-0.768619
-1.20018
-3.87153
0
-4.33608
-2.7869
-1.46149
-1.75799
-3.34211
-5.80407
0
-0.525578
-3.15959
-0.159379
-7.09596
0
-2.57579
0
0
-2.07205
-2.91826
0
0
-3.02054
0
-0.861834
-4.1165
-0.437269
-3.14139
-0.507191
-2.20769
-2.88109
-1.25863
-3.44769
-1.3556
-6.83246
-5.75823
-5.278
-3.41269
0
-7.95825
-1.19073
-4.25583
-1.50281
-6.97673
-1.97479
-3.36105
-0.473793
-5.30468
0
-1.46599
0
-0.20713
-0.00990411
0
-2.66948
-1.32764
-2.27126
-3.8802
0
-1.97808
-2.49552
-1.19498
-1.34757
-4.72328
-0.612684
0
0
-1.99994
-1.26827
-5.59525
0
-1.26766
-2.30933
0
0
-1.03883
-0.112426
-2.39397
-6.3784
-0.980819
-5.60839
0
-4.3031
-3.54515
-0.821738
0
-2.20589
0
-4.45717
0
-1.74884
-0.32315
-1.29011
-3.01587
-0.690895
0
0
0
-3.0873
-1.44429
-0.401822
-6.46079
0
-1.28628
-4.46086
-2.9653
-5.18188
0
-3.78176
-1.09702
-1.77466
0
-1.12704
-1.56467
-1.04775
0
-1.53211
0
0
-1.77824
0
-0.147989
-0.356576
-1.66497
-0.474206
-7.1362
0
-5.3919
-2.7834
-2.95719
-0.229403
-0.651224
-5.61716
0
-4.44033
-1.08474
-4.13401
-0.678028
0
-2.02522
0
-4.25612
0
-0.652902
0
0
0
-4.77228
-1.82048
-3.51083
-6.50541
-0.235282
-0.115069
-2.98099
-0.367753
-1.24372
0
-3.28875
-2.42319
-0.486763
0
-2.31813
0
0
-1.85379
-3.60577
-3.01085
0
-1.11906
-4.16011
-1.2288
-3.61486
0
-1.62003
-1.20044
-5.70703
-5.38623
-4.11162
-0.208733
-4.29772
-0.101222
-1.76607
-1.00551
0
-0.406766
-3.7204
-0.91466
0
-4.30936
-2.30031
-0.468882
-3.22602
0
-3.41142
-1.05353
0
-5.20007
-0.249553
-0.254025
-4.27081
0
0
-0.436327
0
0
0
0
-0.727552
-4.22269
-0.0984782
0
-2.15344
-1.56313
-9.73377
-2.4011
-3.79082
0
0
-4.4496
0
-1.51228
-0.490378
-3.01369
-0.939854
-3.44315
0
-6.10979
-1.31855
-0.230238
-0.555474
-3.8302
-0.425868
-4.26256
-2.81544
-2.59993
-0.486794
-4.15761
0
-4.22175
-4.57966
-1.50591
-6.4724
0
0
0
0
0
0
0
0
0
0
0
0
0
0
0
0
0
0
0
0
0
0
0
0
0
0
0
0
0
0
0
0
0
0
0
0
0
0
0
0
0
0
0
0
0
0
0
0
0
0
0
0
0
0
0
0
0
0
0
0
0
0
0
0
0
-0.856957
-2.53098
0
-1.38894
-1.42932
0
-1.11495
-0.993683
0.0236459
-0.720451
0
-1.25636
-0.537116
0
-1.63073
-0.832734
-0.0224337
-0.824867
0
-0.42918
-0.295136
0
-1.29832
-0.666268
0.056964
-0.772469
0
-0.485765
-0.596155
0.0361454
-1.00222
-0.932276
-1.08514
-0.477985
0
-1.94318
-0.0834634
0
-3.3163
-0.739213
-0.429208
-1.33829
0
-0.290224
-2.3529
0
-0.571481
-0.505385
-1.43964
-0.690809
0
-2.54752
-2.40409
0
-1.83807
-0.0920243
-0.332782
-0.909242
0
-0.0165096
-1.1314
0
-0.314686
-1.96067
-5.92677
-3.0702
-0.886333
-1.72994
-1.63943
-1.7311
-2.13936
-2.88603
-2.03752
-0.233604
-0.592906
-7.51311
0
-4.87209
-1.46351
-2.38185
-3.14145
-3.63237
0
-0.668583
-2.88094
-5.17263
-0.097033
-4.5262
-3.35884
-4.40763
-1.60946
-5.61738
-2.30977
0
-4.20205
-1.03373
-1.62538
0
-2.61116
-2.40836
-2.70694
-3.36245
-3.64629
-1.86958
-8.00958
-0.59929
-0.433671
0
0
-2.41929
0
-4.93657
0
-5.63248
0
-4.58157
-0.243484
-1.34921
0
-7.07108
0
-0.454991
-0.580617
-1.04991
-4.76383
-1.2203
0
-1.05988
0
-4.54437
0
-0.0497752
-1.89076
0
-0.749072
0
-1.57519
-4.89251
-0.425267
0
-4.5152
-1.17643
-0.254906
0
-6.18648
0
-0.145857
-2.68558
-1.7059
-1.81932
0
0
-3.6088
-1.68098
-2.54506
0
-9.08463
0
0
-1.18168
-3.41807
-0.852088
-5.20658
0
-1.07843
-0.623962
-1.16389
0
0
-3.41902
0
-1.46931
0
-3.14721
0
-0.597126
-6.48302
0
-5.91703
0
-0.384551
-2.61928
-7.43703
0
-2.36659
-1.36118
-2.68013
0
-5.18032
0
-3.11004
-1.02326
0
-4.84494
-0.794503
-0.100156
-2.6328
-2.16337
-1.70729
-5.28009
-1.28176
-1.24459
-1.90597
0
-1.80614
-1.32339
-0.510997
-1.22628
-6.38398
-0.199778
-9.05196
0
-10.9631
0
-4.81355
0
-2.82065
-2.35097
-2.16766
-4.57829
-0.815739
-0.363552
0
0
0
-4.88171
0
-1.42144
-4.22185
-1.90982
0
-1.0587
-3.66356
-0.186288
-0.554516
-4.3647
-5.3676
-2.56711
-0.0853402
-2.78443
-3.6807
-0.690327
0
-1.29155
0
0
0
-2.5097
-1.06547
-2.3618
-5.33776
-0.514101
-7.71244
-4.84048
0
0
0
-8.6895
-0.0503573
-3.18091
-0.681004
-0.67859
-0.755075
-5.17014
-2.06521
-1.21559
-5.04687
-1.29649
-10.1373
0
-10.3578
0
-8.80503
0
-8.62915
-0.628841
0
-1.17524
-1.49075
-4.58068
-2.37758
-6.69971
0
-0.487592
-0.261287
0
0
-0.897546
-0.418256
-1.75955
-0.219633
-0.280377
-4.57683
-0.639076
0
-2.06514
-3.04434
-1.63882
-3.74733
-2.26571
-3.51439
-3.86785
-0.982771
-0.647815
-3.14737
-0.212503
-5.80578
0
0
-1.29919
0
-1.34313
0
0
-1.72432
-1.50627
0
-4.75307
-1.46971
-3.8686
-6.88533
-2.14793
-2.69417
0
0
-0.216724
-2.95371
-1.42473
-0.311506
-3.29923
-4.89805
0
-4.34867
0
0
-8.55664
-0.581611
-1.55428
-5.09577
-0.113099
-0.433509
-2.33787
-0.589743
-3.523
-0.175678
-3.1755
-0.490417
0
-6.26736
-1.32063
-6.40815
-0.615912
-1.64173
-2.7619
-5.56437
-1.31141
-5.91269
0
-6.67016
-0.262625
-0.509085
-6.22789
-0.0699309
-2.93994
0
-8.81087
0
-9.09618
0
-3.42337
-2.34443
-2.28601
-3.39859
-0.090507
-8.88292
-0.55757
-5.59254
0
0
-0.602174
-6.3625
-1.69878
-3.70137
-0.557487
-4.38202
-4.52828
-0.600867
0
-2.01902
-2.41582
-5.07114
-6.00809
-2.23884
-3.73675
0
0
-0.112658
-2.16422
-1.91619
-1.61347
-3.52743
-6.67958
-7.34971
0
0
-4.63918
-2.14955
-2.28904
-0.88846
-2.98534
-4.34629
-0.642943
0
-0.273722
-5.80319
-3.6965
-6.46634
-0.940181
0
0
-6.09719
-2.12637
0
-1.29112
-3.17599
-4.68037
0
-3.51629
-0.191135
-0.452984
-2.36309
-1.39274
-1.59957
-3.3087
-2.13354
-3.49164
0
0
-5.42181
-2.37502
-5.66615
0
-6.47804
-3.18695
-15.3291
0
-7.03285
-0.758842
-2.28974
-2.71155
-1.34998
0
0
-1.7795
-0.929326
-4.02177
-3.56454
-5.28729
-2.43749
-3.64364
-1.33304
-0.863355
-3.57807
0
-6.92221
-0.795169
-3.73798
0
-1.71276
-2.32228
0
-0.112526
-5.15608
-2.74144
-7.12127
-1.09485
-0.241548
0
-0.867374
-1.99617
-3.22791
0
0
0
-0.477744
-0.6406
-1.49395
-1.38474
-1.04668
0
-0.268181
0
0
0
-4.4287
-4.83319
-0.14832
-2.91398
-4.95083
-3.25336
-3.73894
0
-1.75859
-6.99323
-3.03022
-5.83229
-4.24312
-4.74948
-2.43864
-2.2831
-1.97543
-0.0725596
-0.897941
0
-0.272481
-7.0309
-2.79118
-6.01308
0
0
-4.02375
-0.604367
-2.2529
-0.369852
-0.566193
-3.97138
-1.23616
-0.103724
-3.55003
-1.60926
0
-4.75224
0
-3.39061
-0.283469
-3.26401
0
0
0
-3.85277
-0.243023
-2.16977
-0.143695
-1.92387
-3.55709
-11.875
-1.16145
-5.35741
-3.0682
-3.70657
0
-6.2826
-1.10059
-1.4357
-0.507072
-0.894052
-1.25924
-0.880313
0
-6.04502
0
-0.0293369
-3.84741
-0.800691
-4.29079
-0.204277
-1.33271
-1.61033
-3.91866
0
-6.8521
0
0
-1.83301
-1.08892
-9.52596
-1.25905
-3.93173
-2.18594
-1.15212
-3.91766
-3.73313
-2.48609
-0.423196
-0.0628167
-1.82194
0
-4.1485
-0.714394
-0.393298
-4.8
-1.03748
-0.944738
-3.22654
-0.350539
-1.47904
-2.11483
-3.06601
0
-1.22325
-1.38899
-2.78516
-1.26067
-1.99053
-5.08337
-5.07019
-3.53801
0
-1.27826
-3.58889
0
0
-4.85656
0
-9.81011
0
-7.64858
0
-3.94943
-0.450686
-2.644
0
-2.30568
-1.92611
-3.78653
-1.09727
-0.11891
-4.75467
-1.03071
-4.29186
-0.67125
-3.6849
-2.20689
-7.75479
-3.78333
0
0
-5.873
0
-6.40616
-4.3368
0
-2.78862
-0.279694
-6.71146
0
-1.22074
-1.96092
-6.72741
0
0
-1.3052
-6.41794
-0.0826001
-4.56739
-1.0103
-0.0855927
-0.62296
-10.1632
-0.631014
-6.57707
-0.488244
-5.11482
-9.17525
0
0
-6.99695
-3.6183
-6.82141
-1.13699
-2.30546
-0.445967
-6.37038
-4.65999
-4.42145
0
-4.89959
-2.53692
-4.59074
-0.175383
-4.39015
0
0
-0.367302
0
-8.27398
-3.78199
-5.53623
-2.64014
0
0
-1.19457
0
-3.89173
-0.187141
0
-5.72858
-2.17051
-3.07397
-3.79829
0
-0.348071
-0.104769
0
-2.2547
-0.826602
-1.00094
-6.60505
-1.06018
0
-1.45187
-0.637487
-3.60166
-1.8799
-0.399086
-4.51873
-0.467195
-1.88625
-4.23134
-0.737395
0
-1.86301
-3.62138
-3.37206
0
-1.07589
-7.78875
0
-6.31785
-0.280987
-5.65483
0
-7.90009
0
-6.49913
0
-2.56076
-5.38107
0
-3.01301
-0.0203098
-4.12864
0
-5.81042
-0.745783
-3.41663
0
-0.737593
-1.17952
-1.00009
-2.05975
-3.35436
0
0
-0.38292
-2.90133
0
0
-3.22427
-1.95995
-0.16426
-4.69331
-3.51501
-2.38503
0
-5.60583
0
-2.11125
0
-5.41105
-0.880479
-6.47914
-1.14844
-3.79243
-4.92642
-2.23318
-0.462875
-1.92749
-1.5666
-1.64938
-0.299754
-7.33973
-1.52553
-9.54806
0
-0.0325447
0
-8.55828
-4.86458
-8.58186
-0.496398
-2.38351
-2.45988
-4.07859
-2.68326
0
-2.0757
0
0
-7.71661
-2.55489
0
-5.77349
-0.687991
-2.87812
-1.14216
0
-2.17289
0
0
-2.03694
-3.93518
-1.63157
-1.74069
-0.0365786
-0.3744
-1.13192
-4.36127
0
-0.304726
-6.06329
0
-2.80213
-6.54601
-3.35002
0
-3.52584
-1.39205
-4.49638
-2.16139
-3.65893
-0.127009
0
-3.14243
-4.73199
-0.153682
-2.02743
-3.38402
-3.777
-1.78901
-2.83419
-0.533566
0
0
-0.890978
0
-3.88129
-4.34819
-2.37311
0
-4.12328
-0.603531
-0.27959
-5.03411
0
-3.62785
0
-4.13858
-2.13705
0
-2.34412
-0.764334
-0.421824
-3.05351
-3.81506
-0.305232
-0.404292
0
-6.15847
-0.628621
0
-0.458343
-2.04438
0
-0.595858
0
-4.52328
-2.22696
-3.95317
-3.3711
-4.60368
-4.46954
-0.0939961
-1.04105
-3.96263
-2.9914
-1.14102
-6.31041
0
-2.54922
-0.912669
-2.71242
-0.473212
0
-2.94862
-1.17081
-1.15696
-0.28969
-5.85373
-0.210718
-5.61895
-4.11836
-2.85876
-1.14332
-6.69268
-1.66905
-3.12356
-1.48352
-5.10567
-5.53805
0
-8.3171
-2.39729
0
0
-0.291139
-1.0097