<?xml version="1.0"?>
<VTKFile type="RectilinearGrid">
<RectilinearGrid WholeExtent="0 32 0 32 0 32" Origin="0 0 0" Spacing="1 1 1">
<Piece Extent="0 32 0 32 0 32">
<PointData>
</PointData>
<Coordinates>
<DataArray type="Float32" format="ascii">
0 0.524874 1.04975 1.57462 2.0995 2.62437 3.14924 3.67412 4.19899 4.72386 5.24874 5.77361 6.29849 6.82336 7.34823 7.87311 8.39798 8.92285 9.44773 9.9726 10.4975 11.0224 11.5472 12.0721 12.597 13.1218 13.6467 14.1716 14.6965 15.2213 15.7462 16.2711 16.796 
</DataArray>
<DataArray type="Float32" format="ascii">
-5.03879 -3.62163 -2.20447 -0.787311 0.629849 2.04701 3.46417 4.88133 6.29849 7.71565 9.1328 10.55 11.9671 13.3843 14.8014 16.2186 17.6358 19.0529 20.4701 21.8872 23.3044 24.7216 26.1387 27.5559 28.973 30.3902 31.8074 33.2245 34.6417 36.0588 37.476 38.8931 40.3103 
</DataArray>
<DataArray type="Float32" format="ascii">
0 0.524874 1.04975 1.57462 2.0995 2.62437 3.14924 3.67412 4.19899 4.72386 5.24874 5.77361 6.29849 6.82336 7.34823 7.87311 8.39798 8.92285 9.44773 9.9726 10.4975 11.0224 11.5472 12.0721 12.597 13.1218 13.6467 14.1716 14.6965 15.2213 15.7462 16.2711 16.796 
</DataArray>
</Coordinates>
<CellData>
<DataArray type="Float32" Name="Scalar" format="ascii">
0
0
0
0
0
0
0
0
0
0
0
0
0
0
0
0
0
0
0
0
0
0
0
0
0
0
0
0
0
0
0
0
0
0
0
0
0
0
0
0
0
0
0
0
0
0
0
0
0
0
0
0
0
0
0
0
0
0
0
0
0
0
0
0
0.437626
-0.390021
0
-0.439582
-0.540007
0
-0.518761
-0.578143
-0.325287
-0.28028
0
-0.701483
-0.196635
0
-0.285156
-0.344865
-0.336359
0.0362435
0
0.110135
-0.207788
0
-0.202918
-0.596952
-0.316705
-0.470279
0
-0.289865
-0.00694597
0
-0.403834
-0.0990847
-0.200311
-0.0350828
0
-0.711614
-3.79086
-0.287397
-1.35969
-0.0074172
0
-0.624775
0
-0.351333
-0.945996
0
-0.0529674
-0.587414
-0.695681
-1.24485
0
-0.743582
-0.0371525
0
-1.36365
-0.0937704
0
-0.67463
0
-0.108093
-1.12151
0
-0.014424
-0.24926
0
-2.29387
-2.91084
-0.756297
0
-2.38963
-0.0546633
0
-0.849988
-0.0737131
-2.4474
-1.32175
-4.4581
-1.75475
-4.2922
-0.952882
-1.83673
-2.33697
0
-1.61216
-0.347491
-3.52965
-3.07106
-1.09833
-5.7051
-3.0224
-0.655058
-4.57618
0
0
-2.55893
-0.0974915
0
0
-0.268063
-5.69383
-2.18373
-0.0677836
-4.58312
-2.06502
-6.31853
-3.76214
-1.15072
-3.02912
0
0
0
-1.92608
-0.214911
-1.19913
-2.25944
-6.97366
0
0
0
-3.39511
-0.294893
-5.26684
-3.81436
-0.948731
-0.378815
-0.733505
-1.61629
-2.68425
-5.16377
-1.81211
-5.05107
-1.58921
-2.90216
0
0
0
-0.0813893
-6.60673
-0.871445
-7.8945
-2.92274
0
-4.17528
-3.58274
-1.25795
-2.45666
0
-2.99328
-1.06163
-0.704269
0
-1.35053
-0.070822
-1.35388
-4.90455
-6.86149
-4.34327
-2.74731
-4.0107
0
-3.74956
-4.48823
-0.892545
-5.92215
-0.955291
-4.38696
-2.56878
-2.00598
-1.48294
0
-0.678899
0
-5.21243
0
-0.140487
0
-6.75796
0
-3.2784
0
-4.03706
0
-2.2558
0
0
-7.12429
0
-9.5013
0
-4.62494
-4.30638
-0.336644
-0.562532
-2.76056
-0.581772
-3.84407
-4.80905
0
-5.20636
0
-6.66376
-0.335831
-1.5953
-0.644815
0
-1.91997
-2.41881
0
-0.189032
-2.63638
0
-4.48509
-2.12832
-1.66288
-6.32541
-4.08747
-2.92335
0
-2.83565
-0.46898
-0.258739
-1.523
-0.324485
-3.00358
0
-5.0368
-1.62314
0
-5.9135
0
-6.58002
0
-6.14831
0
-1.45579
-1.04541
-0.585068
-0.790253
-2.78266
-1.11907
-5.56375
-2.97281
-3.68348
-1.36393
-1.60386
0
-3.15936
0
-5.44436
-2.04444
-2.23532
0
-0.0872982
-2.81365
-0.0690378
-3.79413
0
0
0
-0.164897
-5.42632
-1.03705
-3.81722
-2.77164
-7.06627
-1.79341
-3.58953
-3.51538
-2.37539
-12.8468
0
-12.9334
-0.0722759
-0.770008
-0.521408
-7.2646
0
-2.65165
-5.07639
0
-1.95716
0
-5.56994
-0.679965
0
-0.781044
-2.315
0
-4.71762
-1.29072
-4.93321
-10.5444
0
-0.419457
-2.17643
-2.23339
-3.00206
-3.5491
0
-5.87699
-3.44175
0
-6.56062
0
-2.86094
-0.891716
-1.18331
-0.652525
-2.76726
-6.02966
-4.06604
-3.14591
-3.41578
-6.28467
-3.30701
-5.94588
-1.84543
-1.25373
-3.74222
-2.73867
-3.2349
-2.27936
0
-1.40754
-0.5697
-3.86206
-0.397272
0
-4.22634
-1.75121
-6.37611
-2.98633
-1.08691
-0.422318
-1.778
0
-4.52501
-0.639474
-0.0380785
-0.152141
0
0
-2.78145
-0.525305
-2.39641
0
-0.576695
-5.69893
-1.40559
0
-3.93761
0
0
0
-0.533429
0
-8.11691
0
-2.31896
-1.31231
-0.702483
-2.0353
-0.839149
-4.70524
-3.66139
-2.97109
-3.88035
-0.136076
-7.04149
-0.323971
-1.28996
-6.75775
-0.464539
-4.5365
-0.11317
-5.29582
-1.2199
-0.77768
-0.777573
-2.80819
-0.0845018
-2.03531
-2.09938
-5.75804
0
-0.149983
0
0
-0.90727
-0.0234146
-1.58489
-1.0198
-1.81049
0
-1.63742
0
-0.253561
-3.44757
-6.42318
-2.59906
0
-2.97756
-0.461597
-7.57677
0
-3.2581
0
-0.023648
-0.0652505
-3.73923
0
0
-1.52261
-1.61303
-5.74667
-2.2973
0
-3.54673
-2.17764
0
-4.82447
-0.823223
-0.0555113
-0.197223
-2.05442
-3.98949
-0.768793
-0.637086
0
-3.46086
-0.0203276
-2.38365
-0.677945
-1.31882
-3.37272
-0.289773
-3.235
0
0
0
-7.25607
-0.142604
-7.28683
-4.68176
-4.17792
-0.517717
0
-2.24786
-2.66058
-6.41045
-0.437278
-5.08452
0
-8.62569
-1.84137
-12.3368
-0.255999
-6.41636
-2.18613
-2.20045
-2.12898
-1.48548
-0.744991
-1.13938
0
-5.25579
-4.00098
-0.11538
0
-0.522908
0
-3.69181
-1.00056
-1.00621
0
-0.981813
0
-4.99925
0
-0.957285
-3.48006
-3.33605
0
-5.18436
0
-1.1938
0
0
-1.49043
0
-6.68269
0
0
-1.42131
-3.11383
-1.37429
-6.42592
-0.0134236
-0.139388
-4.12178
-2.45339
-2.52457
-1.9252
0
-2.74897
-5.32777
-0.709587
-7.29364
-2.67169
-3.83309
-1.75062
-6.49107
0
-3.0666
-4.01672
0
0
-7.20265
0
-1.03252
-4.58026
-4.63359
0
0
-0.939798
-5.00663
0
-2.98157
0
0
-12.2418
0
0
-1.96244
0
-1.64417
-0.139023
-2.84141
0
-2.31685
0
-0.340729
0
-1.93386
-0.737293
-9.52073
-1.50531
0
-0.696377
-3.32528
-6.65119
-4.68757
0
0
-0.441641
-0.932035
-1.39512
0
0
-3.83594
-1.92964
-5.20773
-2.63994
-2.08157
-0.418704
-0.43328
-2.38854
-0.445673
-1.99176
-2.9768
0
-3.1835
0
-2.23899
-4.82581
0
-1.61114
-4.38276
-2.9907
-5.67163
0
-4.60001
0
0
0
-0.990058
-6.50174
-1.04892
-4.42947
0
-9.55501
0
-3.72905
-2.42638
0
-6.37708
-0.118088
-1.70184
-0.131387
-0.37569
-5.91417
0
-3.05241
0
-5.91641
0
-2.64231
-6.08415
-2.74982
-2.22879
0
-8.0132
-1.54749
-5.52554
-3.94037
-4.56664
-1.61392
0
-3.16896
0
-4.62622
0
-0.00757124
0
-2.03996
0
-3.29806
-2.37662
-3.24111
-2.30844
0
-9.20905
-0.869006
0
-3.3761
-2.47789
-1.32471
-1.87442
-0.818795
0
-0.618706
-9.03979
-0.634041
-0.885347
0
-6.71742
-3.13066
-3.04519
0
0
-0.657592
0
-6.83254
0
-0.615469
-2.18332
-0.198299
-8.27202
-5.15278
0
-1.50256
0
-8.61733
-1.64508
-5.40655
-2.19124
0
0
-4.86086
-3.41604
-1.14465
-1.8134
-4.63796
-5.94648
-2.5813
-4.43923
0
-2.79711
-0.147294
-2.1137
-4.68768
-2.02504
-4.44661
-3.63592
0
-0.746224
-5.01296
0
-9.05698
-0.395352
-4.51204
0
-2.38481
-2.76145
-1.1242
-0.285866
-0.498186
-5.40371
0
-0.586874
-3.33642
-7.69633
-0.720626
-0.25921
-0.753105
0
-0.776486
0
-0.0691569
-2.78644
0
-0.851971
0
0
-0.232361
0
-8.14612
0
-1.42591
-1.18836
-2.99722
0
0
-4.28328
-0.087449
-2.75186
-2.91812
-0.53177
-2.25633
-1.68973
0
-2.47239
0
-1.46402
-4.02873
-2.67628
0
-0.233847
0
-1.87448
-1.90412
-0.0188486
-0.170396
-2.83682
-1.0819
-4.30905
-1.01606
0
-2.08484
-1.7224
-0.0996321
-0.365273
-2.35806
-5.09557
-3.38514
0
-5.74883
-2.64432
-2.05347
0
0
-1.44613
-1.96808
-6.12916
-1.36799
-3.91
-0.171233
0
-6.00002
-1.27241
-6.13844
-0.899566
-7.60748
-1.24488
-3.88807
-0.363782
-1.5215
0
-3.25854
-2.53662
-3.20611
-2.0862
-1.60024
-1.11493
-3.61677
0
-4.76809
0
0
-6.0547
-1.03671
-2.31762
0
-4.70807
0
-1.55553
-2.6567
-3.03716
-1.78101
-1.40124
0
-7.36562
0
-2.46574
-1.73794
0
-0.668105
-4.10371
-2.06212
-2.49606
-1.38544
-0.5788
-5.58446
-2.05442
-0.324024
-0.662576
-4.89394
-0.559847
-1.8977
-3.6962
-0.469089
-1.60077
-0.830107
-5.82673
0
-0.346815
-5.25829
-1.47114
-0.799658
0
-0.920432
0
-3.91477
-3.17335
-4.96721
0
-5.21443
-7.19243
-1.97818
0
0
0
-1.4613
0
0
-1.87192
-0.0893021
-1.38747
-1.70383
-2.92185
0
-0.504827
0
-1.91428
-7.72098
0
-7.29014
0
-5.69636
-0.754033
-0.64355
0
-1.88449
0
-0.058471
0
-2.63938
-2.94934
-1.19955
0
-1.19472
-4.57054
-8.01558
-0.991747
-0.93097
-2.8897
-4.29657
-1.87099
-2.89
-0.088509
-1.14999
-2.8009
-0.980104
-0.302045
-4.96304
-1.83171
-3.87031
-4.26273
0
-7.41886
-0.142247
-5.53204
0
-0.539938
0
-3.99781
-0.498552
0
0
-5.35121
-1.44295
-3.25993
-2.30166
-4.7418
0
-0.709993
-1.28827
-0.911819
0
-2.94552
0
0
-2.71908
-2.81364
-1.59847
-7.70468
0
-0.334916
-0.246087
0
0
-6.82227
-2.12765
-2.01078
0
-0.553009
0
-4.34473
-0.516035
-4.31562
-10.0844
0
-11.0215
0
-3.47405
0
-7.26611
-6.03478
0
0
-5.52499
0
0
-1.35936
-2.79621
-0.27259
-1.01916
-2.2895
-3.32053
-0.232458
-5.76698
-1.77566
-0.478783
-3.00607
-0.865887
0
0
-2.78691
0
-1.41862
0
0
0
0
0
0
0
0
0
0
0
0
0
0
0
0
0
0
0
0
0
0
0
0
0
0
0
0
0
0
0
0
0
0
0
0
0
0
0
0
0
0
0
0
0
0
0
0
0
0
0
0
0
0
0
0
0
0
0
0
0
0
0
0
-0.706144
-1.44379
-0.175993
-0.986927
-1.11867
0
-0.623283
-1.06079
-1.2997
-3.4103
0
-0.993056
-1.72752
0
-1.31897
-0.604574
-0.687328
-2.06781
0
-1.87231
-1.37352
-0.266598
-1.79877
-0.579834
-0.454817
-1.24494
0
-1.702
-0.955586
0
-1.27281
-0.692508
0
-1.96824
0
-0.616337
-2.3627
0
-3.63722
-3.42604
-2.22681
-3.04739
0
-2.21927
-0.61366
0
-2.59565
-0.0870663
0
-1.7403
0
-0.436316
-2.49116
0
-0.505243
-0.544268
-0.300055
-0.113147
-0.0388844
-3.74211
-2.13897
-0.067728
-3.09195
-0.239433
-2.57932
-4.22368
-1.22698
0
-4.61473
-0.201594
-1.69647
-2.25519
-0.905752
-5.08331
-1.64034
-2.30632
-2.30065
-0.428513
-0.716928
-4.12053
-0.711114
-8.68935
0
-7.90324
-1.87447
-3.73765
-2.17772
-2.07426
-2.71321
-3.15067
-0.715578
0
-5.60143
-4.52233
0
-2.1763
0
-6.71349
-1.26878
0
-3.77729
-0.76553
-1.08342
-0.413557
-0.308692
-1.77957
-4.65316
-0.873505
-2.39839
-2.36192
-5.79201
-0.513933
-9.90516
0
0
-0.688221
-1.90533
-5.80909
-4.84843
0
-5.48386
-0.764601
-2.3304
-3.13893
0
-4.47272
-1.37707
-4.20716
0
0
-1.62036
-2.97069
-5.11791
-2.49076
-10.2604
-1.63366
-3.65462
-1.80022
-0.142022
0
-2.7506
0
-0.666746
0
-0.225768
-4.51491
-2.90655
-4.08566
-0.691409
0
-1.04022
-0.256434
-6.76555
0
0
0
0
0
-2.22332
-3.01713
-8.95367
0
-3.92541
0
-6.04662
0
-1.3072
0
-4.29601
-1.87666
-1.2114
0
-1.96675
0
-7.59437
-1.48703
-3.32974
-0.598119
-2.19782
0
-4.36281
0
-1.17584
-1.93151
-4.04688
0
-5.88437
-0.0942068
-0.49454
-2.73046
-0.33241
0
-0.843161
-1.35556
-0.102257
-3.32887
-5.90749
-0.355037
-2.34384
-0.821921
0
-1.57537
-4.69473
-4.00204
-4.58783
-1.36634
-2.42276
-3.15172
-0.916897
-4.3783
0
-1.55461
-5.77107
-0.892246
-6.1364
0
-0.216338
-2.36703
0
-6.92094
-1.71245
-7.56192
-0.452193
-3.79209
0
-7.13821
0
-3.21086
0
-1.18723
-2.13615
0
0
0
-2.19896
0
-1.41161
-8.14329
0
-1.28347
0
0
-0.718493
-0.286872
-1.3791
-2.13566
-0.50142
-0.204938
0
-0.136774
-2.80885
-0.231206
-1.89811
-3.24283
-4.24363
-3.06765
-5.11225
-2.13459
-1.79638
-2.91783
-0.250363
-4.27857
-0.102272
-0.019667
0
-2.71329
-0.215859
-12.1292
-0.811656
-1.96271
-1.80914
-1.12202
-0.023689
-6.89864
0
-3.26062
0
-0.137322
-1.28114
-1.77218
-1.90651
-1.34036
-1.43381
-2.34119
0
-4.99873
-0.587032
-4.11178
-1.07863
-2.28501
-0.716362
-0.944235
-3.19038
-8.49518
0
0
-0.439602
0
-2.78522
-2.16423
-0.639389
-5.78509
0
-7.20331
-1.31512
-5.39052
-6.35211
-2.44443
-5.16075
-0.372742
-1.11807
-0.269484
-1.72877
0
-0.103721
0
-4.32592
-2.35298
-0.648261
-3.99406
-1.10694
-0.0508935
-4.71453
0
-2.04491
-1.3916
-1.12241
-8.12718
-0.320293
-3.40075
-1.74107
0
-3.7031
-4.13515
-4.32794
0
0
-0.888873
-4.91972
0
-6.24786
0
-5.39751
-0.0577254
-3.82088
-5.87834
-1.13511
-0.0171095
-0.815654
-0.773119
-0.499914
-0.633562
-3.70271
-3.92802
-5.57622
-1.04415
0
0
-3.33985
-0.735913
-1.50195
-6.77326
-4.44945
-1.30393
-1.05191
-1.90472
-3.19619
-0.459168
-1.85944
-5.55502
-0.394743
0
-0.759346
-3.42393
0
0
0
-5.41068
0
-3.71191
-5.80588
-2.70693
-2.8538
-1.34372
-4.7066
-0.806092
-2.216
-1.7712
-1.87174
-6.18105
-5.12972
-3.65407
-1.34571
0
-1.46575
0
-4.06696
-1.00933
0
0
-3.22748
-3.28351
0
0
0
-3.98227
-3.38872
-5.40541
-0.836508
-1.59807
0
-3.11872
-4.91203
-1.78537
-0.260325
-2.10928
-4.27088
-0.781314
-2.6961
-3.45062
-1.7852
-7.00941
-4.59145
-0.132507
-8.55625
-8.8504
-1.45851
-4.0214
-1.49967
-1.1626
-1.22912
0
-4.04302
0
-2.18107
-2.87137
-1.78455
-0.614931
-0.366381
-6.01166
0
-2.70998
-0.126931
-0.00810292
-0.570756
-0.325694
-5.42359
-2.16856
0
0
-1.44916
-1.12249
0
0
0
0
-5.02588
0
-2.3182
-3.75637
-1.20624
-3.36771
-1.56048
-2.23274
-0.174743
0
0
-1.00352
-4.29298
-1.73868
-2.77156
0
0
-4.4524
-2.82439
-1.75126
-5.24706
-0.594318
-6.07115
-0.996203
0
-1.79487
-3.26169
-3.36452
-0.148205
0
-5.71698
0
-8.58722
0
-0.0120346
0
-4.32918
0
-1.79156
0
-6.95589
-3.34004
-6.63281
0
-1.78133
-0.367921
-5.23289
-5.14552
0
-1.20515
-6.29979
-0.716077
0
-3.71659
0
0
-4.97844
-1.77755
-1.82001
-8.46633
-3.03244
-3.03998
-1.93988
-5.77719
0
0
-0.0642614
-8.75712
0
0
-1.1223
-0.906457
0
-1.17411
-0.531553
-5.81987
-2.08706
-4.5029
-1.88472
-3.49206
-2.91184
-1.83998
0
-1.45232
0
-4.75667
-2.93889
-2.90417
-9.00997
-1.06565
0
-10.2836
-1.72551
-2.41387
-4.00496
-5.64516
0
-5.27307
-0.904111
-1.91546
-0.766277
-6.71054
0
-4.64843
-0.434883
-3.95395
-2.66198
-1.03097
-6.85376
-4.06555
-4.99972
0
-1.04971
-2.50469
0
0
0
-4.61845
-0.374386
-1.74886
0
0
0
-0.916756
-2.0774
0
-1.51553
-0.74793
-7.86107
0
-5.30645
0
-3.81874
-0.0150207
-3.85435
-1.91618
-7.88527
-0.396159
-4.44207
0
-0.626979
-1.09315
-0.317422
0
-4.33156
-1.08478
-1.79296
-0.527481
-3.39034
0
-1.5052
0
0
-4.99999
0
-0.611686
0
-1.29915
-1.93728
-2.77028
-3.82734
-0.311899
-1.73735
-2.72004
-1.12805
0
-3.51577
-5.96057
-2.18198
-5.28652
0
-1.85073
-6.86608
-4.5836
-7.06706
0
-0.526163
0
-0.470232
-0.636023
-5.53803
0
-4.65353
-2.24194
0
-0.232711
0
-2.71333
-3.84332
-0.0958782
0
0
-3.98651
-8.2992
-2.07219
-5.00564
-0.798381
-4.83214
-3.88537
-5.81624
-5.76435
-0.842308
-0.492363
-5.43211
0
0
-1.12936
0
-3.38845
-4.5054
-7.16322
-6.09837
-1.25148
-0.076728
-2.74922
-5.8584
-2.06768
0
-2.9284
-7.82767
0
-8.01633
-4.83474
0
-1.45434
-1.04314
-0.417898
-4.65423
0
-8.88434
-3.29736
-3.11249
0
-1.69603
0
-5.4887
-4.0129
0
-3.45471
-1.37434
-5.68351
-3.12348
0
-7.42264
0
-1.60504
-0.389128
-4.29214
-1.28741
-3.97032
-2.64435
-2.70617
-2.94557
-0.177094
-2.15122
-6.20663
-6.07703
0
-6.54177
0
0
0
-6.19018
0
-4.99819
0
-5.96106
0
-4.18664
-0.959462
-7.11012
-0.575083
-0.05304
0
0
-6.69891
-1.0804
-3.61245
-1.73306
-3.85324
-3.19331
-4.64169
-2.74018
-1.77864
-2.49711
-6.94851
-1.38692
-2.30528
-4.09947
-0.0509902
-2.07448
-3.58923
-2.53128
-3.72096
-2.68763
-6.43897
-0.578953
-0.675628
-0.447824
-2.8695
-2.35634
-0.0220391
-0.044792
-9.0707
0
-7.21281
0
0
-0.502517
-4.6121
-1.63559
-3.41674
-0.440929
-0.362222
-2.15753
0
-0.65136
-3.29207
-0.0635703
-4.18871
-2.75838
-1.69724
-3.09823
-3.42549
-1.17543
0
-7.40114
0
0
0
-2.08785
-0.293864
-6.15734
-1.35773
-3.41234
-2.17475
0
0
-3.19009
-2.60327
0
-0.928461
0
-1.34166
-2.75718
-1.92111
0
-4.94743
0
-5.34677
-0.516541
-0.765453
-0.309983
-3.17562
-2.30756
-0.0536237
0
0
-4.39259
-1.14509
0
-2.80771
-0.268508
0
-1.44307
-0.0519784
0
-0.483554
-7.16384
-2.18711
0
-1.80031
-3.07139
-4.80818
-0.941827
-5.32953
-1.00404
0
-1.23601
0
-0.838653
-0.726694
-0.218468
0
-7.80903
-5.18789
-1.32257
-7.54837
-2.93942
-5.72416
-0.9464
-3.04545
0
-0.965665
0
-6.09133
-3.21116
-2.23092
-0.0727751
0
-1.79916
-1.09639
-2.3523
0
-4.62497
0
-3.42163
0
0
-0.772407
-4.943
-7.53184
-0.658941
-8.66461
-2.2961
-1.49628
-1.95828
0
-11.7945
0
-0.221454
0
-1.24339
-0.711161
-1.04426
-0.458792
-0.934853
-1.0009
-0.274558
0
0
-4.04709
-0.785266
0
-1.97802
-1.71899
0
-4.58502
-1.31683
-0.247362
-4.02694
-8.70368
0
0
0
-4.81343
0
0
-7.13723
0
-6.87398
-1.81868
-8.44919
-0.478539
-1.76654
0
-1.03129
0
0
-1.28605
-6.83615
-1.01256
-6.80572
0
-5.01106
0
-2.96098
0
-5.24253
-1.79201
-8.57569
0
-5.79544
-2.52761
-5.25376
-1.86131
0
-3.92909
-6.14295
-3.11875
-0.504877
-0.359055
-0.882864
-5.25544
-0.481526
-4.40236
-9.83192
-6.17882
-1.25812
-11.2042
-4.33732
-4.32367
-1.53868
-7.32953
0
-8.40694
-2.84717
-4.07408
-0.0207998
-8.94811
0
-5.76079
0
-7.81638
0
0
0
0
0
0
0
0
0
0
0
0
0
0
0
0
0
0
0
0
0
0
0
0
0
0
0
0
0
0
0
0
0
0
0
0
0
0
0
0
0
0
0
0
0
0
0
0
0
0
0
0
0
0
0
0
0
0
0
0
0
0
0
0
-0.0372683
0.0101185
0
0
-0.336287
0
0
0
0
0
0
-0.10939
-0.149547
0
0
0
-0.0274795
0
0
0
0
0
0
0
0
0
0
0
0.000816441
0
0
-0.376989
0
0
0
0
0
0
0
0
0
0
0
0
0
0
0
-0.751084
0
0
0
0
0
0
-0.0642375
0
0
-0.249155
0
0
0
0
0
0
-0.102972
-1.1154
-0.256511
0
0
0
-3.04481
-0.80731
-4.02514
0
-2.05567
0
-1.37354
0
-2.33998
-1.20472
-0.577543
-2.92045
0
-4.82201
0
-1.52191
-1.66324
0
-1.60621
-1.9072
-4.1833
-0.503847
-1.18959
-0.0803931
-2.51146
-1.32603
0
0
0
-2.6047
-4.37902
-1.29931
-1.87531
-0.791527
0
-4.78225
-2.87691
-5.58933
-4.43432
-5.21197
-0.681042
-0.52959
-1.78819
-2.31097
-8.79802
-1.41545
-5.84738
0
-4.62843
-5.70615
-3.93683
-0.501996
-0.399592
-4.66515
-3.51468
0
-1.80737
-1.76547
-0.787537
-5.22435
0
0
0
0
0
-1.96228
0
0
-3.9789
-0.197772
-2.98034
-4.00891
-7.41249
-8.07191
-0.618984
-2.25545
-8.38519
0
-4.86308
0
-6.40151
-1.0895
-3.29149
0
-6.42599
0
-2.4625
-0.650316
-0.440632
-1.67091
-1.83526
-0.0277346
-2.71827
-2.63995
-1.88686
-0.272853
-6.16085
-1.6574
-8.20023
-0.6021
-3.04095
-1.71555
-3.93197
-1.01603
0
-0.688814
-7.5934
-2.10083
-0.758293
0
-6.05757
-4.35974
-3.45864
0
0
-2.96324
-1.74233
-3.39871
-5.72262
0
-3.94229
-1.91845
-4.22534
0
-5.50774
0
-1.59974
-1.15913
-5.03596
-1.47167
0
-6.09221
-1.47018
-3.4793
0
0
-1.51419
-1.25576
-3.82765
0
-6.21941
-3.06455
-0.489315
-1.85908
-2.51835
-2.83525
-8.91595
0
-1.79085
-1.45134
0
-0.323531
0
0
-3.14258
-0.585701
0
-3.44079
0
-0.849025
0
-5.20184
-2.37218
-0.427313
0
-1.80539
-6.94358
0
-3.94351
-5.27515
-1.97617
-5.48616
-0.980264
-1.6602
-0.362021
0
-0.531743
-3.82064
-6.73169
-0.0230256
-3.24949
0
-1.21692
-1.16203
0
-4.01663
0
0
-1.9101
-8.60744
-1.12452
-0.575523
-2.91339
-1.97112
-1.15541
-7.43426
-2.33566
-1.81364
-4.22845
0
-5.01359
0
0
-1.51402
0
-6.54126
-3.41439
-2.5621
-0.357782
-2.67198
-0.801617
-0.926243
-1.67103
-4.16992
-1.32
-0.710527
-2.91714
-0.613601
0
-5.82787
0
-3.00075
-0.301253
-4.88187
-14.5881
-4.03102
-12.9632
-0.888676
-10.0081
-2.27956
-3.82489
-1.22313
0
-1.54579
-0.649321
0
0
-8.57474
0
-9.15127
0
0
-7.36896
-0.336209
-5.28072
-3.01847
0
-0.611725
-2.6534
-0.131473
0
-2.89476
0
-1.48283
0
0
-2.8144
-0.0732678
-2.98652
-0.928016
-2.34536
-0.336064
-0.600429
-2.61047
0
0
-4.11632
0
-3.30559
-1.49983
0
0
-3.84889
-1.04671
-0.896978
0
0
-4.66189
-0.680862
-4.13221
-1.70666
0
0
-0.136352
-0.378149
-2.83279
0
-5.01038
0
-9.70409
0
-5.48749
-0.599996
-9.13989
-1.78472
0
-2.41407
-1.38007
-5.46228
0
0
-4.912
0
-0.618979
-1.21969
-3.69495
-1.81232
-2.28444
0
-1.93271
0
-0.534678
-0.576263
-3.92222
-4.52459
-0.411574
0
-4.29973
-1.96571
-0.0564155
-0.231962
0
-2.81113
-2.17306
-1.21006
-3.22177
-6.1851
-0.56779
-6.22623
-4.40851
-4.11623
0
-4.59916
-5.70756
-5.01555
-0.253297
-3.00373
-0.12425
-3.32031
-0.162858
-4.48137
0
-1.12945
-7.50289
-0.991154
-5.48155
-2.545
-0.866004
-1.43401
-2.26964
-4.8476
-0.272752
-3.46517
-4.08125
0
-0.199599
-2.19697
0
-2.71829
0
-2.09093
-3.04746
0
-7.48352
-0.540766
-0.0773016
0
-7.27459
0
0
0
-1.99875
-0.696008
-2.89501
-3.57412
-1.90058
-1.1009
0
-2.5009
-0.918678
-5.6324
-0.34476
-4.49161
0
-7.04324
-1.76924
-2.23714
0
-0.800381
0
-0.296561
-2.99517
0
-0.352905
0
-7.40566
0
-2.84985
-0.197599
0
-1.86285
-5.63548
-1.39907
-1.36925
-0.587702
-2.166
-0.538396
-2.06833
-0.848768
-2.9208
-1.22513
-4.53453
-2.20303
-0.286073
-4.97402
-2.629
0
-0.4605
0
-0.46237
-6.85634
0
0
-4.22569
-3.86328
0
-6.02371
0
-4.92915
-3.17475
-2.20963
-6.82726
-0.424123
0
-7.79053
-2.89615
0
-7.41377
-2.19924
-4.33022
-6.10633
-4.87996
-0.482175
0
0
-0.0846899
0
-2.2414
0
0
-1.97011
-4.19256
0
0
-0.61937
-5.44793
-3.77838
0
-1.7922
-2.18059
-0.742357
-1.26496
0
0
0
-0.382565
0
-0.276258
-7.20036
-7.0269
-1.77252
0
-0.142317
-3.99132
0
0
-6.28569
0
-2.11122
-6.3533
-2.42392
-2.88719
-5.19906
-2.169
-1.07888
-4.59572
-0.941086
0
-2.44124
-1.78932
-5.61663
-1.79371
-3.66389
-0.275009
0
-0.0641624
-1.13007
-7.84373
0
-3.99833
-7.01269
-6.62362
-6.8705
-2.40789
-5.77211
-0.226293
-9.34287
0
-7.42375
0
0
-5.35861
-0.11509
-2.75319
-3.72333
-1.36257
-0.857137
-1.67532
0
-0.387259
-4.69011
-0.275542
0
-0.227104
-7.40738
0
-6.49896
0
-3.49074
-0.119918
-6.83004
0
-0.429644
-1.1305
-1.71585
-2.98575
-1.35236
0
-12.9667
-0.945483
-0.998502
-6.78045
0
-5.70326
0
-2.99907
0
-5.22508
0
-0.698702
-0.258923
-1.912
0
0
-0.223851
0
-5.3061
-1.41579
-0.58286
-2.33344
-3.02498
-1.89611
-2.61656
-0.0125866
-2.69324
-1.21367
-0.779723
0
-0.381173
-0.261412
-4.23248
-3.03854
-7.46336
0
0
-0.574504
-2.74704
-3.73874
0
0
-2.03165
0
-3.6582
-0.247122
0
-1.39219
-2.11302
-5.19916
-1.91686
-0.527625
0
-3.59419
-0.91562
-3.06899
-1.71723
-1.07488
0
-2.02454
-3.26588
-6.22186
-0.43371
0
-0.914915
-3.23045
-1.09554
-0.147503
-1.82952
-0.497313
-0.441238
-4.36476
-0.251856
-0.423795
-4.13775
-4.40659
0
-1.84414
-4.77629
-6.47404
0
-4.78569
-7.36857
0
-2.46105
0
-1.66955
0
-0.553258
-2.3956
-1.23906
-3.63445
-2.37478
-3.89185
-0.621741
-2.43202
0
-0.925193
-1.51136
-2.45977
0
-4.27192
-3.87635
0
0
0
-0.466606
0
-7.79813
0
-0.0575286
-0.912943
-1.68099
-0.874386
-1.76299
0
-4.20112
0
0
-0.403398
0
-8.36303
0
-0.660763
-3.25915
-0.160501
-2.77269
-2.73995
-1.59694
-0.453143
-2.12628
-3.59062
-2.3558
-5.06156
-0.778651
-1.1696
-2.11952
-1.8398
-4.2557
-0.395043
-2.15547
-2.51493
-0.640257
-1.15692
-1.66563
-1.69407
-0.957994
-4.31405
-0.808997
-4.30375
-0.507055
-2.01247
0
-4.27099
-1.50669
0
-5.31317
-1.29382
0
0
0
-14.0265
0
-13.006
-1.47956
-3.41806
-0.119948
0
-0.104596
-2.35672
-1.50609
-1.14255
-7.48478
-0.72572
0
0
-5.11291
0
-5.31738
-2.46744
-1.24654
-2.72148
-2.02409
-5.10609
-7.13854
0
-9.37288
-1.27463
-4.4183
-1.51061
0
-5.89616
-1.37526
-0.308414
-2.21181
-0.378334
-1.19054
-2.64521
0
-5.74145
-0.475029
-0.747418
-3.29638
0
-8.57853
0
-0.599483
-5.19131
-0.0129826
-3.89815
-0.542286
-4.38138
0
-3.03022
-2.24764
-0.356662
0
-2.07594
0
-1.147
-1.99771
-1.98849
-1.07326
-8.44725
-2.7977
-3.85815
-2.47295
-0.457903
-7.03658
0
-3.38163
-2.69018
-0.411883
-4.36208
0
0
0
0
-1.75361
-0.961371
-2.0318
-5.1121
-0.316412
-0.933144
-3.40482
-0.0943202
-4.96455
-1.35237
-0.402375
-0.705628
-1.45821
-1.75838
-0.88438
-4.58693
-1.23361
-1.02462
-1.53099
-2.4981
-0.372999
-2.81491
-1.1412
0
-5.75354
0
-5.58552
0
-5.34906
-5.35065
-12.6965
-0.0201193
-3.43166
-1.13349
-2.72505
-2.6437
-6.45724
-3.9651
-3.47852
-2.3411
-7.16489
-1.13846
-4.01506
-2.88717
-1.66741
0
-5.54328
0
-2.39208
-4.30679
-0.389959
0
-0.421408
-4.43356
-1.71229
-4.15569
-6.92655
-4.24453
-6.4419
-0.669236
-0.166037
0
0
0
-5.21127
-0.704011
-3.09677
-5.10601
0
-2.77198
-3.29929
0
-0.400912
0
-1.66206
0
-3.93465
0
-1.42867
0
0
-2.13707
0
-4.34155
-1.62511
-3.27569
-2.08952
-4.40165
-0.788476
-2.99634
0
-5.11119
-7.54771
0
-10.115
0
-0.376654
0
-4.52721
0
-2.04087
-0.210981
-5.2161
0
-6.16466
0
-1.75362
-7.94069
-1.08377
0
-3.32994
-5.80123
0
-4.10186
0
0
0
0
0
0
0
0
0
0
0
0
0
0
0
0
0
0
0
0
0
0
0
0
0
0
0
0
0
0
0
0
0
0
0
0
0
0
0
0
0
0
0
0
0
0
0
0
0
0
0
0
0
0
0
0
0
0
0
0
0
0
0
0
-0.279507
-1.3492
-0.267567
-1.08171
-1.37474
0
-0.709363
-1.20363
-0.676721
-1.43398
-0.802098
-0.693904
-0.794996
-0.190119
-0.723979
-1.01362
-0.34731
-0.69459
0
-1.85061
-1.39164
0
-1.24649
-0.49334
-0.0167621
-0.421152
0
-1.06384
-1.77056
-0.0586115
-1.14127
-1.10093
-1.38564
-0.686647
0
-1.94469
-0.237679
0
-0.882469
0
-0.0566599
-2.26677
0
-0.298338
-1.7912
0
-0.0650388
-1.04624
-0.705799
-0.171765
0
-2.62352
-4.10496
0
-2.15232
-0.149507
-0.453398
-2.3333
0
-0.383159
-1.38844
0
-0.0401539
-0.600512
-2.95886
-1.90407
-3.29073
0
-8.3038
0
-4.64208
-0.370821
-0.669933
-0.884624
-3.89102
0
-2.80275
-3.10764
-2.33663
-1.03076
-0.197965
-4.14604
0
-0.942015
-1.04373
-8.04542
0
-3.02174
-1.35959
0
-1.13634
-1.81938
-2.1617
-2.39348
-6.32464
-2.51093
-7.2972
0
-4.25786
-2.08444
-2.61213
-3.46988
0
-4.69233
-1.53387
-1.53058
-4.3673
-1.04121
0
0
-3.56708
0
-10.5348
-3.34746
-0.990979
-2.20714
0
-5.76614
0
-0.463372
-0.910977
-0.826371
-7.83731
0
-1.05891
0
-2.06847
0
-1.19399
-2.00893
0
-4.94543
-2.05496
-1.71642
-6.03308
-1.85414
-0.664437
-5.08435
-0.789653
-1.57702
-0.730826
-1.06357
-2.34328
-0.312507
-2.89499
-0.080298
0
0
-3.06346
0
0
-3.66664
-5.19416
-2.62324
0
0
0
0
-3.77773
-1.14617
0
-2.92013
-1.33125
-0.19457
-3.4024
-5.77045
-0.56404
0
-3.6711
-4.20427
0
-0.977395
-1.41422
-0.890183
-3.46172
-0.31398
-0.897096
-1.85879
-5.58951
-5.59672
-1.6545
0
-1.94486
-4.87426
-1.23679
-1.89144
0
-2.61282
-0.658201
-0.962026
0
0
-1.42203
-3.096
-2.42449
-2.40622
-2.42578
-0.459796
-4.34082
-1.2603
-3.3048
0
-1.0205
-7.15824
-2.56485
0
-3.14884
-6.00661
-1.36695
-5.28967
-0.421232
0
-2.95636
0
-9.12074
-0.0605891
-9.40067
0
-4.20767
0
-0.567336
-3.71182
-4.24428
-0.720924
0
-1.66383
-2.10687
0
-2.93697
-1.65354
0
0
-2.95799
-1.68118
-5.14087
-0.436723
-0.0903002
-8.64067
-7.19516
-3.4534
-0.250615
0
-1.01655
-3.56843
-6.68414
-4.29994
-6.51173
-1.76943
-1.58598
-1.74642
-5.74797
-3.90772
-2.76291
0
-1.60764
0
-3.14767
0
-2.45532
-0.298918
0
-1.18027
-0.0125587
0
-3.76712
0
-0.885278
-1.62046
-2.68915
-3.49689
-0.407669
-6.49162
-0.661028
-3.1132
-1.76719
-4.70837
-1.30019
-0.352776
-0.317995
0
-2.86411
-2.26056
-1.27833
-0.248679
-3.34739
-2.76926
-2.96827
0
-1.39758
-3.21247
-1.79708
-0.74047
0
-1.01927
0
0
0
-0.957396
-1.25274
-1.28929
-0.785053
-1.46562
-0.772044
-3.30985
-2.56091
-5.6645
-1.58282
0
-3.32934
0
-8.64315
-2.82466
-0.942663
0
0
-1.26443
-2.09596
-2.7242
-0.185228
-3.52086
-4.47631
-2.84123
-0.598305
-2.90526
-0.764198
-4.44606
-0.617634
-2.00596
-1.86271
-0.0730603
-2.44937
-1.48537
-2.4494
-2.52498
-4.38894
-0.626778
0
-0.0417171
-4.93495
-3.11935
-3.42777
-4.02878
-2.96397
-0.793952
-5.87406
-0.599916
-5.45553
0
-0.853963
0
-0.143854
-4.80409
0
-4.4793
-2.21191
-0.586633
0
0
0
0
-5.80043
-3.96625
-3.37503
-0.98837
-0.369874
-5.45883
-5.44526
-1.61376
-2.35442
-0.641501
-0.410804
-2.02685
-2.83978
-5.76998
-1.39205
-2.717
0
-4.70516
0
-9.94902
0
-3.68686
0
-0.854309
-5.07924
0
-3.14003
-1.67165
-0.224765
-0.477739
-3.70953
-2.99639
-1.93428
-2.19813
-2.66291
0
-0.147924
0
0
0
0
0
0
0
-0.711869
-3.31315
0
-1.73323
-0.924235
-2.58379
-0.498282
-1.01433
-0.833368
0
-6.4713
-0.692703
0
0
-4.20547
-1.5813
-3.75734
-2.34435
0
-1.43955
-1.79036
0
-2.21098
-1.80506
-2.681
-3.63518
-0.254252
-2.86264
0
-0.789073
-0.118024
-6.60172
0
0
0
-4.94038
-4.03053
-1.69122
-1.00977
-0.030282
-1.18034
-0.180021
0
-5.57703
-2.28085
0
0
-1.72721
-1.5675
-0.687088
-1.49047
-0.168062
-2.46452
-0.336642
-0.14542
-4.41812
0
-3.4124
-5.62918
-6.88348
0
0
0
-2.19528
0
-2.42954
-3.15905
0
0
0
-1.41658
-2.79075
-0.684181
-5.02777
-2.06018
-0.138168
-7.34863
-1.98628
-4.27825
-3.74705
-0.155444
-3.79251
0
-4.33371
-0.757222
-0.566399
-3.68518
-10.3876
-2.24919
-10.0248
-0.522331
-3.71935
-1.77761
0
-2.49482
-2.93453
0
-0.937176
-5.40002
-2.38122
0
-0.195914
-8.09689
0
0
-8.18381
0
0
0
-2.84356
-4.54845
-1.25532
-3.14203
0
-4.04448
0
0
0
0
-6.71621
0
-3.03951
0
-4.8094
0
-0.0706709
-0.717413
-1.45226
-3.76753
-3.4795
-5.31851
0
-8.07816
-1.33484
-3.17604
0
-2.28338
-6.19454
-2.14871
0
-6.23496
0
-4.85784
-0.350749
-6.32794
-0.267958
-5.02206
-0.828851
-1.99268
-4.65079
-4.74195
-0.736613
-1.75365
-0.338698
-1.85794
-1.63172
-1.43054
-0.651697
-4.29459
0
-3.49929
-1.79779
-0.735227
-1.04917
-3.46379
-5.95516
-0.143047
0
-0.133369
0
-3.50762
0
0
-0.241829
-0.0595168
-5.20532
-4.08901
-2.17981
-3.30776
0
-2.44265
-0.61939
-2.46098
0
-4.59359
-0.5741
0
-0.828047
-3.20245
-3.81844
-1.60284
-3.67104
0
-0.632631
-2.81635
0
-0.411767
-1.61925
-6.12069
0
-3.56177
-2.86952
-2.24676
-1.67692
0
-4.30124
0
-4.62719
-1.35702
-5.21326
0
-2.19055
-0.92738
-1.83604
0
-7.02034
-0.135591
-2.4423
-2.52012
-3.23385
-4.70274
-2.94694
0
-1.77733
-3.33692
-3.18605
-2.6407
-3.90824
0
-4.03613
-0.153581
-0.066321
0
-6.67965
-1.89524
-6.17477
-1.21638
-2.19799
-1.5803
-5.87552
-3.75715
-1.45576
-5.34889
-1.81729
-4.63976
-1.18848
-2.56096
-0.748962
-1.09073
0
0
-2.85903
-1.74838
-7.09401
-1.6612
0
-6.57526
0
0
-0.725914
-1.88571
-3.61106
-4.54723
-6.10433
0
-0.524886
-2.38829
-0.80782
0
-1.56993
0
-0.665645
-0.494928
-3.31553
-2.97177
-3.82934
0
-1.23481
-1.19991
0
0
-3.93328
-2.72942
0
0
0
-1.99013
-0.872921
-5.75707
0
-5.44055
-2.3486
-4.56714
0
-2.88892
-1.43988
0
0
0
-7.55403
-4.13282
-2.88086
-1.01506
0
-10.8665
-0.113239
-4.11605
0
-3.84256
-1.0726
-7.01169
-0.635435
0
-4.94422
-0.397186
-1.39129
-1.14686
-3.0102
-1.17744
-6.22646
-2.04926
-10.5517
0
-4.81969
0
0
-1.16292
-4.56879
-0.0938116
-1.36659
0
-1.11303
-6.709
0
-8.36058
-0.153009
-1.08856
0
-1.97815
-4.41029
-3.07313
-6.05017
-3.19234
-0.717778
-4.65094
-3.90231
-1.3999
-4.59557
-3.6165
0
-1.99291
0
-2.00893
0
0
-4.64419
-4.6055
-0.287137
-3.64308
-0.605933
-2.01805
-0.0806896
-6.60283
-2.17284
-2.37078
-1.80006
-0.873715
0
0
0
-3.77536
-0.303698
-1.84612
-7.09483
-3.56218
-3.61791
0
-0.426606
-7.79271
-1.76548
-4.65578
-3.24506
-0.27973
-4.01152
-3.06332
-2.45636
-0.0340923
-6.065
0
-1.71153
-1.22317
0
0
-3.6034
-8.36185
-5.53619
-1.34931
-5.309
-1.92447
-4.00128
-3.87948
-3.09004
-7.32787
0
-0.948634
0
-5.07442
-0.366656
-1.39604
-1.48021
-3.2799
0
0
-2.82173
0
-0.603516
-1.13499
-3.53344
0
-2.04404
-1.91556
-0.307503
-1.78017
-1.24829
-6.84024
-0.51834
0
-1.72764
-2.04876
-5.61007
-1.67793
-3.61399
0
-0.893917
0
-3.28405
-3.59435
-0.72356
-4.95353
-0.0230468
-6.53811
0
-5.12554
0
-3.56243
-0.229997
-2.82559
-2.61813
-2.60331
-3.91555
0
0
-5.49759
-3.54698
-4.23183
0
-0.0761027
-2.32538
-1.15102
-6.2239
0
-0.350525
0
0
-2.6457
0
0
0
-0.0214595
-0.252294
0
0
-0.469234
-6.63625
-2.27348
-1.36268
0
-8.12679
-1.74816
-0.881844
-0.102207
0
-0.419927
-0.342527
-3.97117
-0.514358
-5.7325
-3.68434
-4.16335
0
-1.37265
0
-2.69322
-1.37527
-1.79151
0
-5.55573
0
-0.138513
0
-6.12947
-2.33141
-3.80964
-1.23778
-2.77288
-1.6566
-1.57855
-5.05403
-0.843592
-0.406229
0
-4.33129
0
-5.28669
-4.12245
-5.20157
-1.54385
0
0
-1.00183
-3.96871
-4.18221
-5.24449
-2.45469
0
-1.33949
-1.76295
-1.41209
-1.57692
-2.04913
-2.20811
-3.20226
-3.58573
-1.81328
-0.968584
-2.1453
0
0
-5.44005
0
-2.6837
-0.63839
-4.19279
-2.43095
0
-8.69171
-1.14306
-6.07699
-7.51477
-0.0331202
-6.84481
-8.89567
-4.24295
-2.82106
-3.61151
-5.2405
0
0
0
0
0
0
0
0
0
0