<?xml version="1.0"?>
<VTKFile type="RectilinearGrid">
<RectilinearGrid WholeExtent="0 32 0 32 0 32" Origin="0 0 0" Spacing="1 1 1">
<Piece Extent="0 32 0 32 0 32">
<PointData>
</PointData>
<Coordinates>
<DataArray type="Float32" format="ascii">
0 0.524874 1.04975 1.57462 2.0995 2.62437 3.14924 3.67412 4.19899 4.72386 5.24874 5.77361 6.29849 6.82336 7.34823 7.87311 8.39798 8.92285 9.44773 9.9726 10.4975 11.0224 11.5472 12.0721 12.597 13.1218 13.6467 14.1716 14.6965 15.2213 15.7462 16.2711 16.796 
</DataArray>
<DataArray type="Float32" format="ascii">
-5.03879 -3.62163 -2.20447 -0.787311 0.629849 2.04701 3.46417 4.88133 6.29849 7.71565 9.1328 10.55 11.9671 13.3843 14.8014 16.2186 17.6358 19.0529 20.4701 21.8872 23.3044 24.7216 26.1387 27.5559 28.973 30.3902 31.8074 33.2245 34.6417 36.0588 37.476 38.8931 40.3103 
</DataArray>
<DataArray type="Float32" format="ascii">
0 0.524874 1.04975 1.57462 2.0995 2.62437 3.14924 3.67412 4.19899 4.72386 5.24874 5.77361 6.29849 6.82336 7.34823 7.87311 8.39798 8.92285 9.44773 9.9726 10.4975 11.0224 11.5472 12.0721 12.597 13.1218 13.6467 14.1716 14.6965 15.2213 15.7462 16.2711 16.796 
</DataArray>
</Coordinates>
<CellData>
<DataArray type="Float32" Name="Scalar" format="ascii">
0
0
0
0
0
0
0
0
0
0
0
0
0
0
0
0
0
0
0
0
0
0
0
0
0
0
0
0
0
0
0
0
0
0
0
0
0
0
0
0
0
0
0
0
0
0
0
0
0
0
0
0
0
0
0
0
0
0
0
0
0
0
0
0
-0.524521
0.0389467
-0.0696236
-0.00562958
-0.00834858
0
-0.33351
-0.371183
-0.379518
-0.0292841
-0.101423
-0.0696317
-0.322759
0
-0.260458
-0.520175
-0.448047
-0.742906
0
-0.324109
-0.500205
0
-0.0509127
-0.474143
-0.161557
0.0103065
0
-0.831663
-1.04227
0
-0.360536
-0.254645
0.00996189
0
0
-0.956699
-0.0628671
0
-0.877009
-0.0696279
-0.547691
-0.273743
0
0.0251642
-1.23094
0
-2.90654
-0.864209
0.0272527
-0.926413
-0.0380106
-1.23377
-0.112019
-0.0636069
-1.16301
-0.0286783
-0.726341
-2.66326
-0.0856335
-0.115854
-0.616343
0
-1.98034
-0.430383
-2.17562
-3.69238
0
-1.31642
-1.63321
-1.9958
-1.60134
0
-4.16181
-0.997132
-1.98338
-0.80769
-0.812565
-4.9987
-4.7727
-0.498496
0
-4.31984
-0.398133
-2.64373
-2.6121
-0.568115
-1.97984
0
-0.30991
0
-0.878068
0
-10.7966
0
-5.95058
-3.53577
-0.208073
0
-3.79545
0
0
-3.31515
-0.492276
-1.57306
0
-1.01374
-3.05718
-3.26012
0
-6.27901
0
-1.54793
-3.57339
-1.71539
0
0
-1.23727
-0.693364
-0.827976
-3.17584
-2.15077
-0.114817
-1.96875
-0.171811
-3.76732
-2.56657
-0.0770526
-3.83694
-0.740171
0
-1.48955
-0.0168694
-0.688602
0
-0.907361
-2.61815
-1.51355
-3.2954
0
0
-0.135199
-2.72046
-0.756264
-6.70638
-2.31517
-7.1111
-4.22072
-2.84883
-1.68533
-0.538179
-3.90791
-1.85575
0
0
-1.60527
-1.13169
-0.789973
0
-1.82072
-2.07398
-0.61034
-2.85088
-1.88912
0
-0.421901
-3.01107
0
-7.21364
-3.9299
-3.61226
-1.60957
-4.57084
-0.897508
0
-7.14274
-1.68665
-5.64679
-0.820371
0
-3.64105
0
-0.270735
-1.708
-2.24331
-2.61538
-4.84307
-0.0563841
-8.18199
-3.56234
-1.71574
-1.55084
0
-0.967599
-4.34742
-3.72561
0
-0.140474
0
0
-4.91133
-1.35642
-0.146846
-1.12778
-1.23716
-3.77401
-2.06448
-4.08896
0
-1.93391
-1.90159
-1.32258
-3.13633
0
-8.04175
-0.56354
-4.66514
-0.191918
-5.00835
-0.352435
0
-0.487369
0
-7.27906
-1.02241
0
-3.24705
0
-0.520356
-3.47911
-0.637361
-5.27925
0
0
-1.01977
-0.640049
-1.97516
0
-3.24275
-2.61152
-0.657683
-0.135921
-3.47605
0
0
0
0
0
-3.89633
-8.07968
0
-8.08392
-0.908807
-3.7309
-3.19139
-0.467937
-3.31239
-3.25531
-3.05313
-0.392448
-6.56207
0
0
-2.23672
-7.27426
-0.192286
-6.6857
-2.14164
-1.13555
-0.412596
-1.81478
-0.641804
-10.3249
0
-1.37172
0
-1.75378
-3.95793
-0.182515
-0.848027
-7.20999
-0.305931
-5.69578
-0.481154
-1.64892
0
-0.272417
-0.260045
-1.49065
-2.52863
-2.70359
-2.29865
-1.97343
-0.586001
-1.1911
-2.83195
-1.93498
0
-0.929543
-5.27058
-2.80592
0
0
-3.28711
-0.359123
-5.02173
-0.289509
-3.07743
0
-1.59592
-0.124288
-2.81297
-0.610446
-4.92952
0
0
0
-5.89735
-0.390553
-5.02601
-0.273479
0
-2.24841
0
-4.09851
0
-7.20122
0
-8.21518
-0.323105
0
-2.11858
0
0
-4.47367
-1.43414
-10.2953
0
-6.3866
-1.27616
0
-3.12701
-4.60518
-0.792758
-0.0664114
0
-4.50232
-6.45949
0
0
-4.41813
0
-0.116983
-1.55194
-2.39326
-0.731585
0
-1.06312
-2.26954
-0.0468269
-1.5794
-2.6433
-5.2876
0
-2.05275
-4.81227
-3.17051
-2.75446
-1.81823
-2.43869
-1.87387
-1.92692
0
-4.4531
0
-1.51076
0
-3.64554
-0.837871
0
0
-6.61116
-4.98263
-1.99305
-2.1295
-1.54328
-1.37179
-0.640352
0
-1.37456
-1.38649
0
-3.07333
0
-3.55798
-1.9316
-0.304612
0
0
-0.931853
-5.45413
-0.752084
-4.3268
-0.681286
0
-1.1957
0
-3.78944
-2.15511
-4.91598
0
-0.370174
-5.43861
-0.175557
-0.290578
-1.20635
-0.489108
-2.39567
-3.96388
-0.342115
-0.475498
0
-4.22862
-2.5328
-1.1725
-3.92928
-2.77391
-2.79022
-1.41947
-5.14362
-3.55878
-1.86663
-2.7364
-0.243529
-3.30733
-2.68558
-0.552741
0
-4.45741
0
-5.42796
0
-4.92905
-1.13436
-1.04187
-6.27649
0
-4.14093
0
-2.58604
0
-2.58185
-2.30936
-3.83924
0
-0.0218008
-0.168513
-0.858493
0
-3.72693
0
-4.20926
-2.37436
-1.51427
0
-6.38029
-0.614317
-3.20145
-1.88791
-1.08068
0
-5.12166
-6.56468
-1.4026
-0.154725
0
-3.9894
0
-0.135573
-4.30579
0
-0.620513
-2.55121
0
-0.479364
0
0
-3.05516
-3.77663
-2.35107
0
-3.62624
0
0
0
-2.2145
0
-4.33976
-1.26858
-0.0193288
-1.10784
-1.76285
0
-5.08274
0
-2.7168
-0.969612
-1.94212
-0.875767
-1.10878
-0.346214
0
0
-1.05603
-1.01821
-4.47038
0
0
-4.53155
0
-1.65725
-1.23363
-2.74041
-5.77404
-1.73706
-3.98685
-3.80374
-5.56073
-0.131024
-2.2048
0
-1.12698
-2.11877
-3.04925
-2.84548
-7.02009
-0.97554
-1.23671
-4.35975
-1.30721
-10.4079
-1.80483
-6.80603
-1.11
-3.18308
-2.33434
-1.03842
-1.79728
0
-2.9565
-3.17635
-4.73789
-2.0543
-1.05001
0
-4.27515
0
-7.19207
0
-1.24956
-4.39782
-1.91137
-6.64705
-0.571078
-2.86289
-4.04015
0
-4.4641
-1.52677
-4.22697
0
-1.9926
0
-0.0803107
-1.32259
-2.91608
-3.07048
-9.20516
-0.335494
-6.9373
-4.3082
-4.385
0
-4.23109
-3.73383
-5.03531
0
-2.29641
-2.31653
-2.07585
0
0
-2.2558
-0.128166
-4.0864
-5.78973
-2.47148
-1.36148
-0.583677
0
-4.96492
0
-1.34015
-6.34188
-0.00752187
-2.61996
0
0
-1.49002
-0.0674686
-0.742221
-3.6263
-0.0613482
-4.47155
-4.71019
0
-8.79284
0
-3.24667
0
-2.71386
-0.335688
-1.74587
-4.29971
-0.988433
0
0
0
-0.820798
0
-0.0413063
-5.1582
-2.35241
-4.04362
0
-0.14973
-3.23428
-2.80289
-2.34823
-1.48154
-4.46087
-1.55431
-8.76128
-0.344702
-6.09204
-1.64893
-0.444685
0
-1.28043
0
0
0
-3.27954
-6.43887
0
0
-0.696451
0
-6.43489
0
-1.63793
-1.12165
0
-6.2218
0
-4.42032
0
-4.70761
0
0
-4.66718
-0.985617
-6.10819
-0.572498
-2.83775
-0.425835
-0.530948
-1.22852
-2.18619
0
0
0
0
-2.87631
-1.2439
0
-10.5063
-2.05943
-9.75397
0
-2.45456
-0.757639
-3.25503
0
-0.535833
-2.53946
-4.20292
-2.67422
-7.03194
-1.21778
-6.82192
-1.25386
-6.41547
-1.40339
-8.02363
-4.55509
-0.867618
-0.298008
-2.07904
-3.75301
-1.69558
0
-2.9899
-4.23516
-4.84063
0
0
-1.28762
-0.664514
-0.80371
0
-0.682452
0
-1.73007
-0.0415234
-1.70523
-5.14213
-1.41551
0
-0.603781
-1.03417
0
-4.98818
-1.07585
-4.98064
-0.223547
-0.183183
-6.71401
-1.92849
-2.92033
-4.26328
-0.251993
-0.54393
-3.11039
-0.96109
-1.82258
-1.63639
-1.29179
-5.59287
-0.872224
0
0
-5.17836
-2.24051
-7.54199
0
-3.29781
-5.13965
-0.787335
-5.40891
0
-2.82929
-2.49834
-1.03515
0
-3.91549
-2.27127
-7.09058
0
-5.73366
-0.390306
-2.11746
-2.29624
-5.81778
-5.83969
0
-4.07116
-2.09894
-5.0807
-2.0359
0
-6.25538
-0.50448
-4.81484
0
0
-1.44723
0
0
0
-0.280971
-1.95057
0
-3.11501
-2.4485
-2.54478
-0.258689
-2.85355
0
-0.948655
-2.96536
-2.6678
-5.6096
-6.96125
0
0
-3.89697
-1.64663
0
-1.74065
-3.28883
-0.309382
-1.84936
-0.203549
-2.31268
0
-0.486612
-0.218989
-1.1927
-1.46979
-6.77493
-4.67323
-4.24515
0
-4.6011
0
-3.51342
0
-6.72016
0
-2.31366
-1.34228
-1.18726
0
-0.819053
-3.02552
0
-5.20797
-1.33148
-4.0027
-0.0697298
-1.90797
-5.03385
-0.957834
-5.853
-0.149795
-5.27496
0
0
-3.18259
0
-0.717584
-4.40606
-0.275659
-2.43281
0
-1.41226
-2.9779
0
-4.27272
-5.30974
0
-8.45146
0
-6.76177
-3.33143
-7.64458
-1.91296
-6.50199
-0.854042
-8.30857
0
-7.91505
-0.218981
-8.76875
-1.30059
-8.59803
-0.804902
-6.82972
-0.494964
0
-1.97605
-5.25708
0
-2.80821
-2.95277
-1.41311
-7.60149
-0.198809
-10.2122
-5.94715
-4.96241
0
-0.581169
-3.29871
-6.00541
-0.0871259
-4.25871
-1.4266
-3.45059
-5.71837
-0.17877
-1.9957
-0.566506
-2.84971
-0.111943
-5.36618
0
-1.07569
-4.416
-2.07285
-9.8778
-0.373453
-3.30256
-2.83035
-0.896481
-3.0384
-1.91125
-2.91812
-0.468341
-2.71239
-0.106761
-0.906519
-0.440086
-0.887907
-1.91891
0
-1.16344
0
-2.13946
-1.77753
-3.67689
-2.49418
-4.32582
-1.66465
-0.892615
-2.41685
-0.942649
-2.9666
0
-5.08861
-3.85209
-6.69792
-2.22649
-0.413638
-3.30958
-2.17901
-1.15429
-2.44059
-5.58752
-3.47581
-1.43426
-2.98856
-4.11287
-11.3251
-1.02882
-0.725158
-3.5188
-3.52768
0
0
0
0
0
0
0
0
0
0
0
0
0
0
0
0
0
0
0
0
0
0
0
0
0
0
0
0
0
0
0
0
0
0
0
0
0
0
0
0
0
0
0
0
0
0
0
0
0
0
0
0
0
0
0
0
0
0
0
0
0
0
0
0
0
0
0.080432
-1.54199
0
-2.37535
-1.91021
0
-0.916462
-0.608763
-0.924118
-1.9503
0
-0.815037
-0.462107
0
-1.33612
-0.640873
-0.336984
-2.22276
-0.609185
-0.670413
-1.23327
0
-1.35347
-1.00709
-0.235921
-1.92084
-0.0533973
-1.4301
-0.99723
0
-0.514661
-0.486188
-0.508055
-1.77706
0
-0.377495
-2.33364
0
-0.555253
-1.31861
-0.511888
-0.591566
0
-1.66128
-1.06146
-0.0753371
-3.25443
-0.796182
0
-2.33514
-0.377248
-2.4189
-2.46261
-0.0579665
-0.0982333
-1.98392
-1.11628
-0.469698
0
-1.68531
-0.616412
0
-2.54039
-3.4641
-0.743349
-2.05211
-5.00547
-1.92474
-1.16164
0
-4.89289
-0.282167
-0.167121
-3.19787
-5.52268
0
-5.70311
-0.0962161
-1.44185
-8.61636
-2.31295
-3.6916
-1.10425
-3.97333
-8.98129
0
-13.2643
-2.4446
-2.91733
-8.88291
-7.97324
0
-8.47222
0
-1.05996
-1.79649
-0.97491
-1.65658
-3.05095
0
-6.59858
-4.97796
-4.2761
-5.3871
-2.10795
-4.68591
0
-3.43204
-0.915139
0
0
-1.98006
0
0
-7.11801
-0.0370025
-5.47202
-0.340397
-2.86312
-0.617621
-0.835588
-1.97235
-0.100896
-5.4402
0
-0.437281
-2.37599
-1.34803
-4.30662
-0.835911
-2.77154
-0.660839
-8.84845
-1.98838
-5.55742
-1.21574
-1.8868
-0.723515
-1.09728
-6.93391
-2.07876
-6.85161
0
-2.05246
0
0
0
0
-1.35088
-1.56651
-0.424919
-8.15149
-1.70701
-4.25074
-2.38931
-1.36432
-2.23144
-1.96652
-3.72849
0
-1.43248
0
-3.39332
-3.23864
-1.83659
-2.31472
-4.95067
0
-1.46972
-0.410796
-0.773217
0
-7.21407
-2.3226
0
0
0
0
0
-0.883647
-1.25306
0
-1.50255
0
-0.321357
-1.14538
-2.45604
0
0
-3.81026
-0.44521
-4.15402
-6.94144
0
-0.955216
-0.327126
-4.74875
-2.47203
-3.49175
0
0
-1.53397
-1.66711
-4.91128
-2.59684
-3.06709
-1.70412
-2.72634
-3.5478
-1.65328
-6.28765
-3.07986
-2.95587
-2.46598
-0.297626
-1.44616
0
-0.535253
-2.19321
-0.386163
-6.17008
-1.78695
-4.03308
-0.325347
0
-3.00744
0
-5.45937
-0.408886
-6.07639
0
-6.61855
0
-6.79849
-1.53207
-3.18828
-0.339809
-1.49369
0
-4.33956
-2.27693
0
-4.542
-4.42295
-6.57798
-1.6347
-5.54254
-0.817163
0
0
0
0
0
-5.21882
0
-3.15412
-1.9017
-1.202
-0.609098
-3.25126
0
-4.58269
0
-1.36079
-1.29627
-0.804738
-0.792687
0
0
-3.8299
-1.33585
-1.00788
-2.17052
-2.14102
-2.18395
-2.42873
0
0
-4.75926
0
-0.319809
-6.93808
0
-4.71545
0
-4.72602
0
-6.27662
-0.406402
-4.75858
-0.0324521
-1.764
-0.741077
-2.12338
0
-0.0492662
-4.68691
-0.420112
0
-5.19888
-1.37424
-2.47293
0
0
-0.496614
-3.98556
-3.91451
-2.48685
0
-2.97814
-2.19568
-0.248058
-2.32363
-0.0478165
-3.3157
-3.22449
-0.309438
-0.37038
-2.38643
-2.53009
-1.67822
-3.36177
-0.907346
-2.84092
-0.145721
-1.87639
-2.46765
-1.48693
-0.196871
-0.158727
-1.54477
-3.69442
-5.91523
0
0
0
-1.45389
-2.17148
-0.235495
-5.30874
-2.87507
0
0
-5.01918
-3.29192
-2.27954
0
-3.95258
-3.89528
-0.279344
-0.79006
-6.25169
-1.08893
-2.92407
-4.489
-3.79672
-0.979493
0
0
-2.73994
-3.83339
-3.77259
-5.71513
-2.25816
-0.823887
-11.1399
-0.0808064
-1.63862
-5.91034
0
-3.22884
-2.78523
-0.705498
-1.50976
-5.15468
-1.30518
0
-3.85554
-3.74771
-5.47159
0
0
-0.986869
0
-0.100098
-3.53599
0
-10.0927
-0.0882931
-3.38371
-4.28481
0
-2.7201
0
-0.132246
-6.72014
-3.00264
-2.69646
-2.41531
-0.608331
0
-3.38981
0
-3.66802
-3.80292
-5.87063
-1.61522
-2.5124
-3.05986
-7.06034
0
-3.53577
-0.6695
-6.91416
-0.332078
-0.933991
0
-0.896068
0
-3.3722
-0.921767
-0.0568682
-4.64228
0
-0.702693
-0.657637
-0.314213
0
-0.179137
-0.479621
-1.16414
-4.24561
0
-2.27305
0
-5.55052
-1.77289
-1.74403
0
-5.62789
-1.10775
-3.25083
0
-0.099022
-0.810647
-0.347027
-0.4509
-5.80526
0
-1.2488
-3.62258
0
-2.15086
-3.33859
-3.28538
0
-4.5422
0
0
-0.69366
-1.28316
-0.0452901
-2.32616
-2.08093
0
-1.53999
-2.20126
-1.23015
-3.45411
-5.81065
-2.10641
0
-6.88123
-1.80363
-0.3119
-1.2433
-4.59968
0
0
-0.856773
-3.72132
0
-2.54428
-2.20294
-0.858093
-4.61037
0
-0.0528592
-3.48313
0
-1.31223
-3.0672
-3.58138
-0.797343
-1.1483
-2.4073
-0.458666
-4.76615
-0.798616
-4.54724
0
0
-2.02872
-0.125666
-6.17291
-4.29785
-5.39884
0
0
-1.2532
-0.231688
-1.64352
-0.463799
-3.61919
0
-5.37777
-4.87628
-6.11431
-2.763
-0.100753
-1.47075
-4.47351
-1.45262
-7.38959
-0.40478
0
-3.5966
-5.21825
-5.4129
-3.84087
-1.99364
0
-0.951439
0
-0.701337
-5.68072
-3.3196
-3.83454
0
-0.159846
0
0
-0.681143
-0.102262
-2.68684
-1.39763
-3.25781
-2.11853
-0.089215
-4.04117
-3.12835
-2.64845
-7.84726
-1.62731
-4.89241
0
-1.62161
-3.24867
0
-1.68689
-3.71504
0
-3.36671
0
-2.99072
0
-2.2969
0
-2.96061
0
-7.79225
-0.950365
-4.53683
-1.78928
-0.520423
-0.490149
0
-5.01127
-1.67937
-2.43095
-1.14313
-5.56688
-0.661403
0
-3.44357
-2.79164
-4.02914
-3.90221
-0.684306
-2.1345
-2.51192
-3.86674
-2.72241
-0.222298
-0.0728058
0
-4.91965
-4.90673
0
-0.396634
-8.02983
-1.73059
-3.56086
-1.63668
-2.91423
-5.87137
-1.23245
-1.28681
0
-0.387917
0
-6.49669
-0.480035
-5.12632
0
-1.75724
0
-4.65712
-2.44896
-0.680166
-6.15056
-0.867564
0
-0.224135
-0.782702
-1.28636
-1.47778
-2.52239
-0.0643532
-1.19322
-1.6234
-0.755869
0
-6.81986
0
-0.549965
-1.8175
-7.04251
-0.0944381
-0.712159
0
-1.23441
-2.05208
-1.49561
-0.991916
-8.05991
-2.40085
-2.05425
-5.28559
-2.7034
-4.16161
-0.974638
0
-6.65881
-0.953708
-8.41709
0
-0.246263
-3.21624
-1.78601
-6.68155
0
-1.19515
0
-3.57142
0
-2.47955
-0.494797
-4.4554
-0.907445
0
-6.46439
0
-0.647539
-1.58457
-3.89116
-1.94759
-1.8482
-2.18529
-4.7745
-3.42325
-2.02408
-1.00559
0
-5.63348
0
0
0
-2.36098
-4.7214
0
0
-3.9315
0
-0.608203
0
0
-0.873882
-5.21047
-1.55467
0
-4.7017
0
0
0
0
-3.46833
-1.84536
-5.25908
-1.622
-5.60261
-0.743836
-8.29358
0
-8.32403
0
-6.24771
-1.05569
-4.02632
0
-8.33646
-0.950035
-2.57371
-4.39192
-1.32663
-1.42226
-1.44598
-5.66562
-3.30171
-1.66593
-5.08308
-2.90468
-1.73222
-2.27626
-0.095754
0
0
0
-0.315659
-1.18633
-1.90179
-1.75178
-3.58904
-1.18921
-2.21552
-3.55933
-1.6351
-2.77641
-0.588942
-8.31255
-3.87707
-0.17203
0
-0.167777
-4.99813
-0.267641
-1.63585
-1.09475
-0.326168
0
0
-6.89772
-1.53616
-6.01522
0
0
-3.60289
-1.02347
-6.15686
0
-7.16866
-1.99459
-2.24214
0
-4.74428
0
-3.127
0
-2.68321
0
-0.395819
0
-3.07993
-1.34318
-2.8154
-3.09315
0
-4.86875
0
-6.06999
-0.00397586
-11.9144
0
-2.19241
0
-0.753067
-1.78574
-0.207277
-2.02691
-3.64415
-3.40443
0
-0.634255
0
-4.27547
-0.0840134
-0.297327
-2.35879
-5.15092
0
0
0
0
-5.03995
0
-2.57968
-0.452097
-6.06997
0
0
-0.540353
0
-0.0166199
0
-6.81924
-2.59401
-3.5164
-4.10012
-1.22689
-5.24337
-2.98
-1.11103
-2.7048
0
-2.69632
0
-3.97482
0
-2.77451
-0.0662799
-0.63608
-0.0865333
-1.05347
-0.212786
-1.82419
0
-3.66788
-4.53402
-2.38234
-0.440015
-0.836069
0
-0.682807
-7.78827
-1.21953
-1.87672
-3.21932
-8.60067
-3.15591
-5.70709
0
-1.6796
0
-2.73164
-3.31634
0
0
-0.0820812
-3.2395
-0.910894
-0.638353
-0.155179
0
-3.57685
0
-4.68188
-0.247383
0
-0.703043
-7.26377
-0.0709435
-1.84816
-6.83145
-0.0364057
-5.11859
-0.127805
-0.0482587
-2.77274
0
-1.17941
-0.910346
0
-5.02403
-1.55695
0
-2.99865
0
-0.9071
0
-0.838769
-2.0461
-1.81233
0
-3.82404
-0.336029
-0.737006
-5.15568
-0.0697774
-1.2045
-2.12883
0
0
-2.97655
0
-3.64637
-1.90899
-1.39628
-0.711688
-3.72559
-3.31723
-1.31962
-2.09284
-0.427038
-5.71899
-1.17807
-6.69306
-3.45696
-8.00567
0
-0.882565
-4.55111
-0.959141
-4.81492
-1.10025
-8.84275
-2.25333
-3.79306
-2.23204
-6.35477
0
-0.419712
0
-4.64432
-3.96407
-6.22688
-2.50541
-3.67155
0
-2.16526
-4.491
-0.70413
-6.53019
0
-0.322135
-4.10405
-8.3193
0
0
-5.68882
-6.57889
0
0
0
0
0
0
0
0
0
0
0
0
0
0
0
0
0
0
0
0
0
0
0
0
0
0
0
0
0
0
0
0
0
0
0
0
0
0
0
0
0
0
0
0
0
0
0
0
0
0
0
0
0
0
0
0
0
0
0
0
0
0
0
0
0
0
0
0
-0.32863
0
-0.105887
-0.0659682
-0.0216985
0
-0.0171079
0
0
0
0
0
0
0
0
0
0
0
0
0
0
-0.0245697
0
0
-0.641564
0
-0.356607
0
0
0
0
0
-0.300552
0
0
-0.0152044
-0.0152601
-0.0820634
0
0
0
0
0
0
0
0
0
0
0
0
0
0.00148866
0
0
0
0
0
0
0
0
-1.29668
-0.634249
0
-4.54984
-3.21572
-1.13791
-0.631944
-3.88092
0
-4.53699
-0.614481
-1.24625
-1.84691
-5.31669
-3.18333
0
-3.22267
-6.4402
-1.31675
-1.18251
-0.138514
0
-0.771461
-2.24497
-2.21016
-2.0214
0
-5.28375
-0.453502
-2.86443
-1.24182
0
-3.58289
-6.54829
-0.847593
-3.41566
0
-3.39865
-1.85941
0
0
-3.3424
-6.99831
0
-1.35373
-1.30488
0
-3.68052
-0.449846
-5.31587
-0.266565
-5.38734
-0.435022
0
-0.106674
-1.96727
0
-1.6157
-5.8532
0
-2.68291
0
-10.3505
-2.33449
-4.4859
0
-7.08454
-2.24873
0
-0.765378
-2.75049
-2.43368
-3.62325
-3.46883
-2.44397
0
-0.952448
-1.06623
-0.60721
-2.63917
-2.63039
-4.94918
-0.406096
-2.67407
-4.53253
-5.15518
-7.39095
0
-1.71198
-1.56982
-1.71604
0
-3.72737
-2.79298
-1.70683
-4.45115
-0.245633
-2.5569
0
-0.0213272
-4.60847
0
0
-3.6151
-4.41056
-1.04024
-3.13905
-4.58716
0
0
-12.71
-0.0535025
-7.94098
-1.3867
-6.08159
-1.63784
-3.61013
-2.598
-5.55845
0
-8.0608
0
-7.40337
0
-5.23185
-0.480773
-0.0327582
0
-4.39231
-3.95633
-3.52497
0
-1.09186
-5.69855
-0.553352
-8.27014
-0.743602
-10.0737
0
-1.27823
-5.09257
0
-3.40793
-0.564834
-5.12395
-0.145326
-1.59755
-2.86369
-5.74984
-3.08798
-8.6207
-2.38192
-2.74888
-0.998982
-0.735656
-0.708084
0
-4.14474
-4.42456
-6.4158
-3.35766
-2.74067
0
-1.00154
0
-1.14012
-1.57539
-1.71221
-3.07643
-1.80809
-4.88426
-4.03486
-0.851755
0
0
-0.687396
0
-6.04209
-2.69135
-4.24566
-0.531127
-0.564052
0
-2.49111
-3.69479
0
-2.78675
-4.08464
-2.60951
-2.7752
-1.31809
-1.9157
0
-2.82373
-5.99526
-3.77533
0
0
-2.82568
-5.67357
-3.23326
-3.56084
-3.6306
-0.742808
-3.05713
-0.637212
-1.06226
-0.72396
-4.16726
-0.198578
0
-1.31453
-3.16824
-1.13406
-0.538703
-5.94259
-2.84206
0
-3.38614
-1.25946
-1.78747
0
0
-3.61378
-5.53899
-1.00117
-1.23654
0
-1.20308
0
-4.05827
0
0
-2.77656
-0.386495
0
0
0
-7.12613
-4.75055
0
-2.42963
0
0
-2.36185
-3.01362
-0.690651
-5.94104
0
-4.21878
0
-0.0481437
-4.28186
-5.73802
-3.52935
0
0
-0.410415
-1.85397
-2.04569
-3.93994
-1.23407
-3.37695
-4.00669
-0.834316
-5.38808
-1.44115
0
0
-0.10605
-2.56288
-0.764664
-2.208
0
-3.21117
0
-0.799119
-2.00784
-7.53163
0
0
-5.92229
0
-4.23447
0
-2.38164
0
-1.32832
0
-4.19253
-1.00718
-0.915664
0
-3.54891
-0.909976
-4.2339
-0.0102324
-1.6378
0
0
-3.07356
-1.09042
-1.72085
-4.2712
-0.532432
-5.82438
0
-4.17063
-4.18908
-4.50063
0
-5.12938
-2.75518
-0.856676
-2.1039
-0.218622
-4.72879
-6.46182
-2.06395
-6.75225
-4.02692
-1.93248
-1.19074
0
-4.18805
-2.26926
0
0
-0.959344
0
-1.80553
-0.621776
0
-2.70492
-0.141213
-3.8941
-1.80438
-0.0331678
-8.15667
0
-0.119339
0
-0.466639
0
-2.17255
0
0
-0.142618
-0.164775
-1.36428
-0.312862
-0.643854
-1.29407
-6.63089
0
-6.98246
-1.27767
-0.49035
-5.02665
0
-8.51008
-2.243
-7.48582
-6.12273
-0.49321
-7.1656
-1.5128
-4.15629
-0.562865
-6.56976
-0.865654
-5.0302
0
-3.90632
0
-1.142
0
-5.91712
0
-6.2577
0
-6.20305
0
0
-1.94555
-3.30344
-0.333692
-3.47956
-1.0508
-2.8467
0
-2.2157
0
-8.33087
0
-5.61782
-2.09221
-2.91511
0
-6.3291
-3.51839
-0.587334
0
-2.2058
-0.145186
-1.77616
-3.01154
-8.07072
-0.267432
-4.64769
-1.77579
-3.96173
0
-6.79722
-0.63952
-7.24372
-1.53286
-1.80055
0
-0.770965
-2.67304
0
-1.61438
-3.919
-0.249632
-4.90998
-1.72486
-2.60564
0
0
-4.17964
-0.540061
-4.12329
-1.35219
0
-3.62724
-0.148381
-4.6455
-0.93247
-3.46181
0
-1.40291
0
-6.4503
-8.97529
-1.79048
-6.4055
0
-0.278857
-4.91588
-1.55572
-1.04399
0
-0.450645
0
-8.71841
0
0
-0.0861986
-2.63404
0
-9.51245
-2.59429
-8.95263
0
-5.89233
0
-6.7591
-0.399938
-10.9364
0
-2.99138
-2.10355
-0.358578
-1.84843
0
-5.68077
0
-6.05844
-1.00223
-0.461512
-0.145134
0
-0.466255
-1.97933
-4.06219
-1.53424
-1.7829
0
0
-2.58448
-3.32027
-0.518204
-0.734959
-4.46295
-0.949896
-5.50166
0
-4.01408
0
-3.90141
-0.184243
-0.118796
-0.587248
0
-8.24731
-0.942556
-1.37604
-2.05033
0
-2.65715
-5.40773
-0.0188838
-7.45707
-0.777579
-4.39724
-0.84292
-1.67285
-3.68377
-0.992245
0
0
-1.57377
0
-7.10651
-0.0280656
0
-1.70645
-0.272299
-8.14393
0
-7.38729
0
-0.797355
-3.057
-2.39357
-1.76185
0
-0.491128
-3.2157
-0.891815
-1.5903
0
-6.12858
-3.85712
-1.61487
-3.811
-1.83045
-0.889024
0
0
-3.34649
0
-3.12301
0
-5.2495
0
-8.92858
-6.5468
0
0
0
-1.25699
-0.371735
-0.780489
-7.6917
-5.62775
-5.17855
-4.79511
-2.49781
-2.2612
0
0
-0.872196
-0.166378
-0.252008
-6.38275
0
-4.57066
0
0
-0.266355
0
0
0
-0.798162
0
-2.13103
-2.40101
-0.358307
0
-0.873811
0
-5.49693
-0.908462
-1.88567
-3.87704
-1.83705
-10.0716
0
-3.30254
0
-5.7443
-5.51942
-2.37909
-2.01894
-6.07902
-1.40699
-0.25819
-2.83253
-6.83256
0
-0.259899
0
0
0
-0.0632785
-2.313
-2.43961
-1.33167
-5.03036
0
-5.68896
0
-6.4307
0
-7.58503
0
-5.71967
-0.95571
-3.39948
-0.841333
-3.39601
-1.1342
-0.279937
-0.992887
-1.62086
-0.472024
-1.59594
-4.76935
0
-5.76887
0
-1.88755
-1.59382
0
0
0
0
-0.535222
-4.08287
-1.17256
-0.731434
0
-0.0919847
-5.94195
-0.50045
0
-4.85358
0
-0.191855
-4.17466
-0.560783
-0.133875
-4.57058
0
0
-0.0387004
-1.90384
-3.5376
-2.21092
-6.10107
0
-5.86406
0
-1.98193
-0.0750078
-1.25062
-2.04689
-1.00432
-1.12561
0
-4.79285
-1.1111
-3.78218
0
-2.45546
0
-3.16186
-0.315771
-2.42323
-1.25955
-1.64428
-2.58506
0
-4.67665
0
-1.67127
0
-1.35368
-7.9067
-1.22822
-1.15774
-3.16775
-1.17154
0
-0.593012
0
-5.73633
-0.858929
-4.48156
-1.7653
-2.74401
0
-2.28756
-0.690883
-5.90765
0
-0.368383
-0.993648
0
-0.933711
0
0
0
0
-1.095
-1.82276
0
-1.08483
0
-4.82738
-0.410681
-0.67854
-3.13502
0
0
-2.91667
-0.0799412
-3.31508
-0.480022
-2.79174
-2.0544
-2.15485
-0.497233
-2.77296
-3.90495
-4.01499
-3.76698
-2.6847
-3.06841
-1.27107
-3.97352
-1.94529
0
-4.22735
-1.74267
-4.4702
-2.00708
0
0
-5.47324
-1.21094
0
-0.711806
-0.643114
0
-0.455373
0
-3.14629
0
-2.17351
0
-5.64467
-0.264324
-2.11801
-0.553025
-0.228184
-2.24502
0
-5.17
-1.69037
-2.07405
0
-2.69339
0
-9.67692
-0.227078
-8.72689
0
-6.47846
-3.20296
0
0
0
-0.408038
-4.09748
-2.70007
-4.16702
-1.73827
-0.882169
-8.35352
0
-6.19739
0
-0.0174493
-4.92606
-0.0406102
-3.58213
-2.1313
-0.957963
-5.32673
-1.46888
-1.88774
-1.73308
0
-8.19624
0
-2.03597
-0.322329
-1.80305
0
-1.85295
-3.04917
-0.514288
-0.753776
-1.31754
0
-0.316698
-3.37172
-1.45571
-1.41017
-1.71219
-4.9811
-2.86962
-2.48511
-4.40148
0
-3.55966
0
-2.27465
-1.86454
0
0
-1.8008
-2.08234
-1.2569
-3.0165
-0.218117
0
-1.20592
-1.05063
0
-3.90923
-2.80987
-2.94235
-0.326237
-4.46356
-0.181019
0
-4.85832
0
-1.07286
-1.95986
-2.17808
-7.45793
-1.13095
-4.23148
0
-1.22819
-1.53519
0
-3.8435
0
-5.53053
-1.10799
-9.70454
-1.03165
-9.21065
-1.15945
-1.87312
-1.31608
-6.08714
-6.98643
0
-2.53396
-0.995689
-2.58952
-0.829471
-2.8058
-2.87246
0
-7.07421
-4.98678
-1.6952
-1.3212
0
0
0
0
0
0
0
0
0
0
0
0
0
0
0
0
0
0
0
0
0
0
0
0
0
0
0
0
0
0
0
0
0
0
0
0
0
0
0
0
0
0
0
0
0
0
0
0
0
0
0
0
0
0
0
0
0
0
0
0
0
0
0
0
-0.114064
-1.09944
-0.170653
-1.14901
-0.426024
-0.141423
-2.2142
-0.734823
-1.03527
-1.24601
-0.176607
-0.766964
-1.11713
-0.0211617
-0.860256
-0.986766
-0.80482
-0.550111
0
-1.43871
-1.14944
0
-0.938819
-1.21007
-0.347212
-0.986421
0
-0.93862
-1.3719
0
-1.89544
-0.675004
-0.45547
-3.19244
0
-3.13644
-0.767963
-0.0736033
-2.21597
0
-1.50458
-1.39571
0
0
-1.2036
0
-0.197113
-1.55729
-1.254
-1.47174
0
-2.00476
-0.132812
0
-2.41071
-0.0122224
0
-2.48309
0
-0.196117
-2.77235
0
-0.595066
-2.24653
-1.74167
-1.27445
0
-1.94822
-0.967509
-4.46917
0
-5.14059
-1.14704
-0.887447
0
-2.11307
0
-0.710826
-3.61344
-4.12
0
-5.52744
-3.57426
-1.36401
-6.29137
-1.58955
-6.48322
-1.04052
-6.6581
-0.758099
-3.59618
-1.45105
0
-2.11756
-1.45208
-0.088239
0
-5.91193
-2.37549
-0.900363
-1.3746
-3.43075
-4.91462
-7.48757
-5.62282
-0.913433
0
-4.26138
0
-5.1767
-0.433342
-4.04125
-1.35811
0
-6.62667
0
-3.48222
-0.925948
-1.20149
-1.39041
-1.76796
-3.56891
-3.75309
0
-6.91384
-0.861644
0
-7.78232
-0.903201
-2.56894
0
0
-2.90202
-2.95813
0
0
-3.49402
0
-0.601078
-4.96471
-4.95018
-4.34598
-1.97507
-2.7443
0
-0.856876
-0.101259
-1.01382
-1.20266
-0.345259
-4.19724
-0.749638
-5.42107
-0.132236
-1.36565
-2.15439
-1.78681
-1.82583
-7.23317
-1.46787
-2.45899
-3.25972
0
-11.6088
-1.43884
-4.86756
-3.94833
-1.71287
0
0
0
0
-2.4439
-2.38018
-0.295933
-2.66061
-0.0785841
-0.687008
0
-0.000317676
-0.980997
-0.224102
0
0
-3.11331
0
0
-0.303278
-1.94122
0
-5.04192
-0.154647
-0.981358
0
-3.52675
-0.319738
-5.40551
-7.58855
0
-2.15913
0
-0.846158
-4.2008
0
-2.38591
-2.51274
-2.13682
-0.315562
-1.67441
-1.34335
-2.84735
-2.94536
-0.945812
-1.24001
0
0
-3.95034
-2.56285
-1.8498
-4.52835
-3.75556
-1.93779
0
-0.288483
-0.761438
-0.521612
-5.59177
-1.88206
-6.82956
0
-6.67837
-2.22021
-2.26447
-3.80492
0
0
-4.36422
-2.9621
-6.38068
-1.41796
-9.20922
-3.26248
0
-2.91448
0
-3.54369
-1.09793
-0.59634
-2.14249
-4.25805
-0.288743
0
0
-1.89889
-4.79377
0
-6.48901
-4.85528
-1.57107
-3.02465
-0.973589
-3.88986
-1.90607
-0.155454
-0.0398344
-0.179053
0
0
-5.37949
-0.341429
0
-2.81435
0
-3.22954
-1.90366
-1.08704
0
-5.07725
-0.408797
-1.82463
-4.10806
-3.382
-5.51004
0
-6.42
-0.384131
-8.6179
-2.77222
-1.58548
-4.02265
-5.03625
-0.144763
-1.43906
0
0
0
-1.34541
-0.0102024
-1.1497
-1.92667
-2.22222
-2.90208
-1.85488
0
-5.86585
0
-3.90176
-0.991571
-3.5879
0
-0.0339932
-3.59692
0
-6.26698
-0.4924
-5.34786
-2.51802
-2.30526
-0.724549
-1.03733
0
0
-0.989065
-0.306916
-2.91332
0
-1.93635
-1.36133
0
0
-0.531657
-2.37197
-6.6964
-0.860179
0
-0.944195
-4.6534
0
-4.05428
0
-7.94638
0
0
-1.21544
-1.61399
0
-2.66449
-1.09353
0
-5.02263
-1.49083
-5.54055
-0.306513
-0.814691
-4.69107
-0.698887
0
0
-0.249524
-0.0390424
0
0
-9.04339
-1.37405
-0.358278
0
-4.87689
-2.36495
-1.38611
0
-0.516862
-5.84186
-2.80141
0
-4.06205
0
-1.43443
-3.68547
-4.43348
-0.982585
0
-2.37043
-0.489195
-0.504242
-1.21853
-5.31795
-0.0499311
-4.82384
-4.72868
0
-5.50753
-0.650396
-8.40409
0
-1.33071
-0.160836
-3.86542
-3.07718
-0.480392
-0.266901
-5.40996
-0.64455
-1.40418
-1.1119
-3.65547
0
-4.65143
-3.56268
-6.22149
-0.714712
-6.27968
-1.24999
-9.28047
0
-4.63496
-3.36373
-0.743381
-2.81637
-1.07272
-2.00695
-4.41274
-3.87924
-8.26374
0
-2.42339
-5.55277
-2.55664
-2.20415
-2.99387
0
-0.954514
-4.49274
-0.98428
-5.88229
0
0
0
-0.663785
-3.71012
0
-5.9267
0
-2.9259
0
-1.42484
0
-0.487794
-6.90858
0
-0.376089
0
-0.91294
-0.840548
-1.65572
-5.69192
-2.71624
-4.06296
-0.752186
-2.72048
0
0
-3.60933
-0.161832
0
-1.32266
-10.1291
-2.90884
-12.1788
-1.67144
-9.83713
-2.58658
0
0
-1.49069
-1.25151
-2.43241
-1.93492
-0.545152
0
-0.334972
-3.76517
-7.72431
-10.9875
-0.210315
-8.26266
-2.77157
-1.56665
-3.5423
0
-0.0475838
-1.87182
0
-5.08859
-0.6263
-1.90159
-1.47726
-1.35597
-2.37203
-5.75547
-4.81571
-4.53979
0
-0.725444
-4.59715
0
-6.11746
-0.350047
-2.87236
-1.16573
-4.41623
0
-2.68337
-3.79635
-1.2189
-3.65972
0
-3.43005
-0.743803
0
0
-6.53681
-5.3974
-7.9615
-4.98065
-2.72034
-3.51254
-2.0139
-2.42053
0
-2.99475
0
-1.16777
-0.503106
-1.35319
-2.07541
0
-3.01578
-1.79391
-4.82758
-1.79984
-0.693426
-0.94682
-2.31241
-3.69694
-1.13794
-3.2371
-2.11687
-3.57995
-3.47948
-2.71873
-5.27364
-0.904489
-3.87906
-4.75074
0
-3.1993
-1.90048
-3.25932
-3.53256
-0.0642855
0
-1.59109
-3.46141
-1.12299
-2.15324
0
-5.77238
-8.26109
0
-3.48962
-6.8461
-0.17071
-1.81955
-4.05994
-3.00178
-0.0218951
0
-3.73163
0
0
-0.726571
-3.3049
0
-2.04067
-2.29592
-0.809229
-4.8495
-0.0570433
-2.06343
-4.04469
-0.976507
-7.73954
-0.667337
0
-0.116349
0
-0.712196
-4.02059
-0.992536
-6.38091
-0.784137
-6.15294
-2.13623
-3.07099
-4.88854
-0.912369
-0.71808
0
-0.478288
-1.68393
0
-1.64975
-2.82377
-4.01571
0
-5.2632
0
-5.42235
0
-0.296798
-1.9485
0
-0.361584
-6.98642
-2.73226
-11.1778
0
-4.48943
-0.905047
0
-1.66869
-1.85403
0
0
-1.07345
0
-8.04686
-2.93919
-2.29542
-1.44362
-5.28014
-0.40354
0
-7.29972
-0.155177
-7.69635
0
-3.3414
-4.88278
-2.30931
-6.5989
0
-1.75503
0
-2.28037
-3.148
-9.85325
-1.76805
-5.08944
0
-3.526
0
-1.20148
0
0
-5.3664
0
-2.98716
0
-1.26228
0
-0.729452
-0.587794
-3.03621
-3.28403
-1.73097
-7.53417
-4.67297
-7.61101
-5.3072
-0.833753
-2.03243
-2.57335
0
-2.18553
-1.1528
0
-1.41998
-1.55755
-1.09229
-1.67395
-6.32281
0
-0.0936189
-2.72373
0
-3.03728
0
-1.59063
-2.09752
-1.6853
0
0
0
-3.33815
0
0
-0.336216
-2.13964
-1.9884
-2.3014
-3.7093
0
-3.2034
0
-2.09108
0
-11.322
-0.935472
-3.34513
-2.81345
-2.5733
-1.79242
-3.00305
-5.46597
-4.48357
-3.50134
-0.303731
-2.59883
0
-5.20451
-3.38495
0
0
-4.53326
0
-0.251798
-0.199878
-2.49209
-5.68065
-1.64124
-1.70019
-1.05242
-3.99439
-2.53665
-3.34515
0
-0.676998
-5.11112
-4.87871
-0.710476
-4.23337
0
0
-0.233766
-3.05609
0
-0.699655
0
0
-1.45071
-4.09173
-0.11718
-1.43153
-0.493582
0
-2.80389
-1.20218
-3.26381
-4.36309
-3.7291
-1.76134
-2.28386
-1.09825
-1.08379
-0.521731
-0.39719
-0.0627455
-4.3073
-0.971657
-1.4224
-2.27389
-5.73785
-0.556609
-3.44754
-3.10523
0
-4.21478
0
-6.51371
-1.80335
-3.93626
-7.86358
0
-8.25161
-0.176619
0
-4.25105
-1.16702
-0.664056
0
0
-2.6568
-0.699306
-2.27865
-1.50721
-3.81353
-4.3418
-1.18924
-6.83211
0
-3.83905
0
0
-6.25158
-1.11248
-3.67664
-1.4167
-5.70146
0
-0.630308
-1.92412
0
-6.25423
0
-3.94436
0
-5.87122
0
-5.35311
0
-5.25716
-4.08466
0
-2.08609
-4.64006
0
-2.19616
-0.298268
0
-2.35925
-1.04116
-0.374949
-1.37974
-0.251542
0
-5.97226
-1.11638
-3.44626
0
-1.55102
-0.978419
-2.67974
-2.10479
-1.76181
-2.87973
-2.63039
-2.80049
-4.59901
0
-0.126128
-1.89447
0
-3.9162
-2.06372
-2.66976
0
-1.39175
-2.07371
-0.956607
-0.131161
0
-3.09287
-0.374644
-6.46056
-0.242572
-4.13358
-0.108939
-0.986316
-0.489148
-1.73981
0
-2.03406
-1.49222
-3.54728
-0.474761
-2.83017
0
-5.12054
-1.20801
0
-6.22454
-0.0616592
-0.0103931
-1.0785
0
-1.39097
0
0
-1.60956
-3.67252
0
-3.15915
0
0
-0.639299
-2.23992
-2.27066
0
-2.30634
0
0
-1.31747
-2.26164
0
-2.11525
-3.26552
-1.42678
-0.0216154
-0.910483
-2.71772
0
-1.07773
-0.279013
-3.44562
0
-6.34268
-4.7107
0
-2.6399
0
-6.81281
-1.20304
-5.67673
-0.608413
-10.1593
-1.62332