<?xml version="1.0"?>
<VTKFile type="RectilinearGrid">
<RectilinearGrid WholeExtent="0 32 0 32 0 32" Origin="0 0 0" Spacing="1 1 1">
<Piece Extent="0 32 0 32 0 32">
<PointData>
</PointData>
<Coordinates>
<DataArray type="Float32" format="ascii">
0 0.524874 1.04975 1.57462 2.0995 2.62437 3.14924 3.67412 4.19899 4.72386 5.24874 5.77361 6.29849 6.82336 7.34823 7.87311 8.39798 8.92285 9.44773 9.9726 10.4975 11.0224 11.5472 12.0721 12.597 13.1218 13.6467 14.1716 14.6965 15.2213 15.7462 16.2711 16.796 
</DataArray>
<DataArray type="Float32" format="ascii">
-5.03879 -3.62163 -2.20447 -0.787311 0.629849 2.04701 3.46417 4.88133 6.29849 7.71565 9.1328 10.55 11.9671 13.3843 14.8014 16.2186 17.6358 19.0529 20.4701 21.8872 23.3044 24.7216 26.1387 27.5559 28.973 30.3902 31.8074 33.2245 34.6417 36.0588 37.476 38.8931 40.3103 
</DataArray>
<DataArray type="Float32" format="ascii">
0 0.524874 1.04975 1.57462 2.0995 2.62437 3.14924 3.67412 4.19899 4.72386 5.24874 5.77361 6.29849 6.82336 7.34823 7.87311 8.39798 8.92285 9.44773 9.9726 10.4975 11.0224 11.5472 12.0721 12.597 13.1218 13.6467 14.1716 14.6965 15.2213 15.7462 16.2711 16.796 
</DataArray>
</Coordinates>
<CellData>
<DataArray type="Float32" Name="Scalar" format="ascii">
0
0
0
0
0
0
0
0
0
0
0
0
0
0
0
0
0
0
0
0
0
0
0
0
0
0
0
0
0
0
0
0
0
0
0
0
0
0
0
0
0
0
0
0
0
0
0
0
0
0
0
0
0
0
0
0
0
0
0
0
0
0
0
0
-0.235244
-0.00577413
0
-0.364518
-0.66383
0
-0.8365
-0.158142
-0.592805
-0.615444
0
0.0744214
0.0837542
0.128095
0.231692
-0.542743
-0.172702
0.00877113
0
-0.327306
-0.576705
-0.00694922
-0.289593
-0.389696
0.241644
0.439328
0
-0.76277
-0.334816
0
-1.26503
-0.317683
-0.76197
-0.434079
-0.00952708
-0.538808
-0.707744
0
-0.432718
-0.315235
-0.0449199
-2.31791
0
-0.743066
-1.74072
0
0.00337926
-1.13781
-0.206064
-0.408367
0
-1.71014
0
0
-0.710357
-0.0903695
-0.0011431
-0.0249763
0
-0.0376755
-3.16821
-0.700798
-1.24855
-0.426804
-1.38237
-2.4738
-6.16986
-1.57969
-1.67491
-1.35596
-3.7436
-1.46015
-0.605678
-5.34594
-0.14124
-1.18
-6.62784
0
-2.38625
-2.2339
-0.19923
-1.92397
-1.01523
0
-5.13
0
-0.00978205
-0.38605
-3.96825
-2.50781
0
-3.57391
0
-0.469844
-6.89724
-3.5025
0
-6.68139
-4.81509
-3.25458
-1.15755
-1.08312
-3.70381
-1.71797
-0.716747
-0.325458
-2.41696
-1.16592
-0.641899
-3.9544
-0.375316
0
-0.0440582
-0.920085
-4.43689
-2.42859
-4.14649
-1.73424
-4.29473
-2.03796
-2.15433
-1.97513
-3.52394
-1.36489
-0.978211
0
0
-5.4529
-6.35711
-0.784909
-0.481808
0
-0.763548
0
0
-6.71694
-2.97939
-3.52149
0
-2.42296
-1.36878
-1.95449
-0.0862006
-6.91231
-0.0515573
-2.64894
-0.374126
0
-4.94211
0
0
-3.35225
0
-1.87593
-1.52687
-1.74466
-2.40918
-0.736554
-5.41705
0
-0.734452
0
-4.45452
-2.4588
-3.55729
-8.38482
-3.43295
-6.06574
0
-1.83128
-2.61656
-0.119201
-3.5229
-0.817095
-3.9537
0
-1.49178
-3.8455
-0.929491
-6.64364
-0.985038
-0.544652
0
-0.692945
-0.164121
-1.20608
-3.456
-2.72743
-0.155591
-1.86702
-0.129016
-5.44527
-4.60745
0
-5.24667
-1.60798
-4.48888
-1.43598
-2.87562
-2.81629
-2.42945
-0.789788
-2.42119
-0.84385
0
-1.21273
-1.23147
0
-3.7651
-3.9659
-4.07499
-2.59847
0
-0.379928
-0.152575
-2.67549
-8.16688
-2.48011
-4.00088
-8.29844
-6.81634
-2.7206
-4.81961
0
0
-1.38544
-2.36889
-1.95954
-2.40632
0
-0.474768
-0.156862
-5.28992
0
0
-1.68138
-1.71108
-0.483605
0
-0.726565
-2.90487
-0.448066
0
-8.7802
-0.588033
-0.0220358
0
0
-9.93913
0
-12.0876
-1.19656
-5.17321
-3.13095
-1.40935
-3.53009
-7.78276
0
-3.0328
0
-5.47617
0
-5.26664
-1.28725
-5.55738
-0.535411
-6.60856
-3.25115
-0.294331
-4.22549
0
-3.01456
-5.28958
0
0
-5.26092
-1.38232
0
-1.53556
-5.5594
-0.0237735
-3.80914
-2.46559
-6.476
-0.0400694
0
-0.894068
-0.236493
-5.02441
0
-1.40475
-2.41852
-2.80024
-2.53751
-0.590529
-4.62324
0
-2.23503
0
-9.52937
-1.96399
-1.07482
-3.97433
-5.69932
-0.510101
-4.44219
-3.36728
-3.49706
-0.559595
-8.66922
0
-3.78758
-1.18209
-2.22905
-2.11707
0
-0.600709
-4.3638
-3.18929
-0.689923
-2.41307
-3.19505
0
-1.39439
0
-2.74891
0
-0.344277
0
-5.16518
-0.923325
-0.0691322
-1.77673
0
-0.133528
-1.99098
-6.00068
0
-2.47943
0
0
0
0
-1.09049
0
-3.82389
0
-5.63718
-3.33108
-2.41482
-0.285648
-4.04379
-0.485778
0
-4.93881
-1.77413
-6.95503
-2.21573
-6.21546
-0.846725
-3.11455
0
-0.533601
0
-3.88897
0
-2.30735
-2.27991
-0.732891
0
0
-10.5422
-0.695305
-3.40275
-3.5636
-1.23323
-6.79806
-1.75936
0
-4.10844
-0.286339
-8.76679
-2.81901
-5.65981
0
-5.18576
-1.46779
-0.781668
-3.51014
-0.872057
0
-1.02779
-1.06006
-0.240002
-1.9381
0
-2.86819
-1.66832
-3.60781
-1.83148
-1.58627
-7.00883
0
-9.76055
0
-4.10055
0
-2.62914
-6.58286
-2.0723
-1.8472
-0.921139
-0.372249
-3.42611
-0.532888
-1.0256
-5.53486
-0.0409921
0
-4.86305
0
-1.77226
0
0
-2.71722
-3.64359
-3.10731
-0.488573
-0.590391
-3.44982
-0.998321
-2.16789
-0.232376
0
-0.0290536
-0.992672
-0.16196
0
-1.02728
-1.03722
-6.67821
0
-0.411368
0
-4.68027
0
-0.215541
-4.4858
0
-0.933701
0
-0.692819
-4.43343
-3.98122
-9.24365
-1.39907
-3.86482
-0.0329748
-6.66189
-4.42054
-7.31301
0
-3.63363
-3.75891
-2.22944
-3.53905
-1.94639
-2.2874
-1.91029
-0.130935
-0.806911
-1.59382
-1.79706
0
-2.24458
-6.13527
0
-8.35697
0
-5.69996
-5.15961
-0.864534
-0.890989
-4.03078
-2.96328
-0.0350894
-3.23124
-3.45086
-2.0164
-0.474641
-5.20233
0
0
0
-0.290119
0
-2.02892
-0.731161
-0.0901633
-1.18822
0
-2.50155
-4.30275
-3.08
-4.08035
-4.47203
0
-0.474805
-2.11623
-4.31466
0
0
0
0
-1.05376
-1.47389
0
0
-3.29326
0
-1.76139
-3.03949
0
0
-4.68783
-4.27079
-1.53215
-3.56722
-2.40981
0
-2.83707
-3.49805
0
0
0
-5.79318
0
-0.521885
-0.397374
-2.99802
-3.20041
0
-10.3514
-1.06885
-1.3305
-6.10685
-0.0493798
-0.148861
-2.52628
-1.10348
-5.03202
0
-4.94286
0
0
0
0
0
0
-6.93062
0
-6.13414
0
-3.73092
0
-5.41874
-0.0776673
0
0
-2.56796
0
-2.77953
-0.612479
0
-8.56966
0
-1.00334
-1.31833
-7.45037
-0.465248
-2.45025
-5.1077
-4.71269
0
-2.08591
-1.15195
-4.2853
0
-0.355905
-1.26413
-2.18072
-0.242602
-0.730588
-1.40469
-1.36325
-8.68313
-0.358749
-0.118356
-0.337236
-0.143859
-4.97998
0
-1.27523
0
-7.05462
-2.66296
0
-5.63101
-3.58518
-0.577463
-0.930529
-3.23341
-8.58516
-2.57907
-7.5278
-1.25441
-5.69195
-0.24201
-6.07892
0
-2.72454
-4.08903
0
0
-0.0949133
0
-5.01905
0
-3.15535
-0.904432
-2.69335
-5.05422
-4.21727
0
-1.92244
-0.499006
-0.272416
0
-7.57388
-4.30032
-0.511959
-0.142472
-0.639701
-1.70584
-0.642129
-0.929757
-2.666
-0.205582
-0.155323
0
-1.08899
0
-3.95476
-3.77863
-0.437878
-1.43248
0
-1.05421
-4.42609
-0.699685
-5.4366
0
-5.21599
0
-3.16728
-5.15959
0
-4.13616
-0.0389419
-1.13098
0
0
-2.81801
-4.0158
0
0
0
-4.12453
0
-3.3956
-0.246444
-1.50081
-3.93251
-1.62482
0
-1.98786
-3.85811
0
-7.91894
-0.81555
-1.63675
-0.315268
-2.23845
-1.23755
-3.73293
-0.763431
-0.264765
-7.19918
0
-5.83074
0
-2.98198
-2.27017
0
0
-0.974604
0
0
0
-1.63991
0
-0.515761
0
-1.98522
-0.131851
0
-8.14258
0
-1.52538
-2.93497
-4.20057
-3.46901
-0.151135
-1.71562
-1.8764
-0.282758
-3.59321
-0.47907
-1.01157
-8.1881
0
-1.59843
0
0
-2.37253
-3.04922
-0.21821
-4.01789
0
0
0
-0.640037
0
0
-2.87106
-6.71336
-1.03153
0
0
-1.41622
0
-3.5886
-1.38713
-1.73191
-0.207084
0
-2.77799
-1.29835
-2.66741
-0.602111
-1.21207
0
0
-6.94196
0
-4.89632
-3.08412
0
-2.21963
-0.376979
-4.41497
0
-9.66622
-0.394604
-9.11408
0
-4.76424
0
0
0
0
-3.66403
-3.59658
0
-2.82639
-1.05928
-0.134247
-5.45696
-5.4961
0
-4.83157
-1.40101
-0.607649
-3.37263
0
-5.54098
-1.00881
-1.55817
-0.0948326
0
-0.531792
-3.27226
-2.97661
0
-1.94182
0
0
-3.57628
0
-8.06752
-3.70823
0
-12.8832
-2.33487
-0.0660598
-3.22381
0
-1.38874
-1.6908
-9.73605
0
-0.695383
0
-3.53489
0
-1.58786
-2.38586
-1.54013
-2.71507
-0.748382
0
-1.62005
-6.07118
-7.98326
-5.24579
-11.4673
-1.61748
-0.634343
-5.31585
-0.256859
0
0
0
-2.0155
-0.141275
-0.155506
-5.48775
0
-5.98899
0
0
-0.628381
0
-3.86468
-0.354315
0
-10.1371
0
-2.63778
0
-0.839792
-0.452596
-1.66526
0
-1.6034
0
-6.93529
0
0
-3.64654
0
-7.09613
0
-2.96741
-1.54048
-4.9801
-1.51229
-7.22497
-0.771499
-5.35358
-0.643167
-7.10185
0
-3.26312
-2.42519
-2.9492
-6.13955
-1.68017
-1.16412
-4.32956
0
-5.72961
0
-7.66568
-0.1761
-1.62304
-0.314709
-5.15636
-0.260129
-9.91736
0
-4.65155
-1.89022
-2.45241
-2.37924
-2.68466
-6.77076
0
0
-4.3653
-3.86544
-4.51294
-7.98183
-1.77057
-0.32997
-3.00105
-1.38754
0
0
-4.53644
-0.749635
-11.2119
-1.28019
-10.4852
-1.14716
-1.20608
-0.12961
-9.55268
-1.10569
-4.53599
-3.24239
-0.837925
-3.46468
-0.44088
-6.81742
0
-1.2506
0
0
0
-5.22002
0
0
-1.32873
-5.56383
-1.90967
-0.872716
-7.37923
-2.8964
0
-5.35483
-2.15815
0
-3.5257
-2.76517
-0.132847
-1.99649
-9.37647
0
-5.71901
0
0
0
0
0
0
0
0
0
0
0
0
0
0
0
0
0
0
0
0
0
0
0
0
0
0
0
0
0
0
0
0
0
0
0
0
0
0
0
0
0
0
0
0
0
0
0
0
0
0
0
0
0
0
0
0
0
0
0
0
0
0
0
0
-0.225925
-1.34289
-0.110063
-0.974131
-0.870632
-0.0464019
-1.22831
-1.48481
-1.32559
-1.87155
0
-0.688533
-1.25465
0
-1.4208
-0.793049
-0.315846
-0.830428
0
-0.83888
-0.543739
0
-1.82497
-0.631264
-0.232191
-0.520489
-0.247629
-0.617908
-0.68494
0
-2.02733
-0.920951
0
-1.55475
-0.108144
-0.302479
-1.47977
0
-0.0770967
-1.29942
-0.300743
-0.419485
0
-2.08204
-0.0161406
0
-3.82896
-1.07246
-1.75148
-3.79038
0
-0.516353
-2.65723
0
-0.203025
-0.904692
-0.753288
-0.18095
0
-2.31732
-0.269706
0
-1.81851
-0.100958
-3.26392
0
0
-0.0227112
-4.36274
-1.4698
-8.57152
0
-2.82545
-1.0587
-2.92443
-0.792428
-6.86803
0
-7.0362
-3.75629
-3.52733
-1.07863
-5.60748
-1.09395
-2.31215
-2.91626
-4.65912
-1.61899
-0.260925
-2.92733
0
-3.16691
-4.17109
-0.384245
0
-3.02108
-2.37422
0
-0.205114
-0.929949
-2.57402
-1.29757
-0.469245
0
-2.42301
-2.43459
-0.168791
-1.47179
-0.572112
-0.723288
-4.2101
0
-5.72273
-0.523422
-0.88027
-0.425156
-0.632313
0
-0.133119
0
-4.58195
0
0
-0.141324
-6.06251
-0.859223
0
0
0
-0.128097
-2.35217
-3.00692
-0.326335
-6.34978
-1.73064
-0.220585
0
-2.47237
0
-0.36528
-1.13481
-1.70919
-0.0822118
0
-2.70382
-2.35548
-5.46521
-0.326208
-3.12737
-1.84612
-4.46771
-1.27825
-3.93616
-3.01605
0
0
0
0
-1.05305
-1.4888
-1.4853
-4.99779
-2.05641
0
-0.0525764
0
-0.848275
-1.58611
-0.573698
-0.298916
-0.150619
-1.71726
0
0
-3.96655
-0.765128
-1.79288
-1.69099
-1.3706
0
-1.73827
-1.96939
-6.78503
-2.92179
-0.654141
0
-1.01174
-0.913549
-0.674319
-2.4186
0
-1.39403
-2.66867
0
0
0
-7.78611
0
-1.08459
-2.1842
0
-7.43662
0
-5.24656
-1.60349
-2.40647
-2.79365
-4.09696
0
-0.364575
-0.119949
0
-4.6791
-3.65756
-7.77044
-1.16905
0
-5.22511
-0.769028
-0.10764
-2.85915
-0.400413
-8.67709
0
0
-4.46806
-1.27981
-0.952209
0
-2.17424
-3.65711
-3.28742
0
0
-5.42141
-0.0906657
0
-7.36827
-0.79152
-0.172727
-0.233353
-0.949995
-3.29195
-1.91219
-2.91629
-6.89718
-4.61245
-3.5436
-2.02053
-0.424581
0
0
-0.247228
-1.14034
0
-3.43462
-0.203629
0
-1.52007
-2.92583
-0.241813
-1.06545
-0.209353
-3.43472
0
-3.96823
-1.52666
-3.33247
-0.398986
-2.14887
-4.21775
-3.7233
-0.68129
-5.59813
-1.26764
0
0
-2.60751
-0.75062
-3.99791
0
-0.134019
-0.73202
-0.915337
0
-6.53773
-0.533109
-6.70941
0
-11.5491
-0.197057
-6.21092
-1.27808
-3.24986
0
0
-0.791441
-1.02674
-1.08555
-0.0844721
-0.675521
-0.57656
-2.79951
-1.36716
-3.63762
0
-5.5889
-1.47368
-0.580781
0
0
-2.36051
0
0
-8.24189
0
-4.34655
-0.965075
-0.554643
-2.38751
0
-0.036309
-1.34029
-4.00415
-0.222554
-2.13141
-0.507068
-2.62222
-2.63003
-2.0151
-4.90505
-1.69825
-6.96014
-3.45906
-4.31716
-1.09638
0
-0.454264
-2.08484
0
-4.96848
-0.966913
-6.43349
-1.28811
-6.24527
-0.723153
0
0
-3.86522
-0.470899
-6.87354
-2.2049
0
-5.4006
-1.31897
-4.64464
-1.01619
0
-3.08759
0
-4.94501
-1.88919
-7.13769
-0.595609
-1.15174
-0.691811
-5.67364
-2.32382
-0.111297
-7.46904
0
-1.13945
-2.24242
-3.57124
0
0
0
-4.52638
-2.48149
-2.06316
-1.40207
-1.47622
-0.185371
-2.78909
0
-4.85205
-0.542484
-6.06451
0
-0.569441
-1.7235
-2.17727
-0.589498
0
-0.139503
0
-4.19153
0
0
-2.59458
-0.930915
-3.76159
-1.76729
0
0
-2.54895
-3.0243
-6.5554
-0.474278
-5.3209
-0.273294
-1.93919
-5.7128
-0.022551
0
-2.23769
-0.127415
0
-8.05526
-0.0929454
0
-6.98447
0
-2.65253
-3.67652
0
-2.29099
-4.24408
-0.653747
-1.80945
0
-1.4166
-2.76854
-0.754728
-5.1438
-1.37584
-8.74417
-1.85294
-5.24069
-0.696856
0
0
-3.45828
0
-1.12664
-0.0236438
-2.60029
-3.53596
0
-4.94992
0
-2.98898
0
-1.04165
0
0
-3.6628
-0.578436
-0.891689
0
0
-3.46476
-0.641124
0
-4.00119
-0.656334
-4.84428
0
-3.99495
-6.03292
-0.29918
-3.62205
-1.04494
-5.12507
-1.11668
-1.26332
-2.77413
-0.264298
-5.90645
0
0
-1.35131
-7.67119
0
-2.12576
0
-2.65172
-1.01227
-4.62793
-1.32948
-2.46694
0
-9.31954
0
-7.8173
0
-7.86258
-0.635895
-9.24029
0
0
-3.58337
0
-2.02419
0
0
-5.95256
-1.4261
-4.83979
0
-0.793365
0
-9.14867
0
-5.70374
-0.0814756
-6.51469
-2.2539
-0.623555
-1.5572
-3.48525
0
-7.61775
-1.60072
-3.29151
0
0
-4.22708
0
-5.54854
0
-9.0953
0
-7.32672
0
-5.05309
-1.49034
-2.98363
-4.24485
-3.05765
-1.69541
-2.99993
0
0
-4.13223
-1.15816
-2.10589
-2.42731
-0.582723
0
-1.27395
-4.03168
-5.68735
-2.18972
-1.33146
-3.44055
-2.69987
-6.60895
-0.814474
-0.691572
-0.150641
-5.204
0
-0.864802
-0.978369
-3.68261
-4.01989
-3.39835
0
-2.82728
-0.992424
-2.39283
-5.26808
-0.664909
-3.03287
-1.01839
0
-3.44113
-0.465269
-4.88643
-0.47125
0
-2.88949
-0.0215192
-0.564412
0
-1.79177
-2.16124
-4.24612
0
-3.85412
-0.70506
-6.15045
0
-5.24697
0
-5.54504
0
-2.14808
0
-0.522367
0
-0.984523
0
-0.109417
-0.148543
-0.716005
0
0
-3.68927
-1.93763
-0.199574
0
-1.15613
-2.38036
-1.42958
-6.40859
0
0
-1.27952
-0.439445
0
-4.82195
-3.77925
-0.585517
-3.07696
0
0
0
0
-7.64757
0
-5.89452
0
-5.88655
0
-5.23788
0
-2.31026
-0.561138
0
-1.31677
-3.54316
0
-4.67492
0
0
0
-1.34832
-3.78242
0
-10.0155
-0.664772
-4.20159
-1.08382
-2.61195
-3.87644
-3.0713
0
-3.71864
0
0
-4.94446
-0.363642
0
0
-4.83535
-0.853257
-3.02141
-6.09911
-1.88468
-2.43765
0
0
-1.56878
-3.65362
0
-4.01178
-3.5032
-2.75641
-0.986576
-2.60871
0
-2.5072
-0.755546
-3.4183
-3.00971
0
-0.237357
-0.974051
-1.80217
-5.4715
-1.0892
-5.27023
-3.39009
-2.0223
-3.13574
-0.239873
-0.734095
-2.18104
0
-3.51755
0
-6.85158
-2.57762
-1.74769
-0.7438
-7.92776
-1.80555
-2.58693
-0.757784
-6.10942
0
-0.388901
-5.30467
-1.47256
-1.15658
-3.6805
-2.85678
-0.570351
0
-2.81224
-1.83117
-1.75535
-2.38557
-3.12894
-1.73831
-3.11947
-2.20555
0
-3.11047
-6.03232
-2.35471
-1.69564
-0.875756
-1.43175
-1.29916
0
0
-3.03729
-2.33844
-8.50671
-1.44426
-9.7012
0
-4.05662
-1.1032
-5.65197
0
-6.87015
-3.53818
-5.67731
-2.67616
-2.39181
-6.40895
0
-0.361426
0
0
-4.79524
-1.25379
-5.22218
0
0
0
-2.85873
0
-4.62587
-7.68259
0
-0.104866
0
0
-3.48329
0
-0.639152
-4.41672
-1.25675
-6.48902
-0.0634399
-2.26848
0
-3.79845
0
-6.59674
-7.06351
-6.31817
0
-1.94151
0
0
0
-2.9202
0
-1.30124
0
-1.66405
-2.27171
-3.11701
-5.61777
0
0
-0.177545
-5.30236
0
-2.23858
-1.5465
-4.97156
0
0
-1.3298
-2.29223
0
-0.901924
-5.40906
-3.95867
-4.02984
-1.33129
-0.0713523
0
-1.95067
-2.64134
-0.608227
-0.474583
-4.77778
-2.76695
-2.61113
-1.79452
-7.34814
-4.50571
-7.62029
-5.64122
0
-1.3589
-0.106871
0
-2.55302
0
0
0
-3.1137
-3.13184
-3.15591
-1.77105
-5.60452
-2.71211
0
-7.25599
0
-4.10957
-3.46262
-3.02583
-2.53526
0
-4.70316
0
-1.15615
-0.770357
-11.0836
0
-8.90042
-0.241688
-0.534211
-5.78145
-1.32779
-6.97948
-0.46592
-2.22279
-4.13899
-1.30857
-2.6703
0
0
0
-0.417021
0
0
0
-6.81337
0
0
0
-0.347309
-3.16702
0
-0.752497
-4.8944
-1.52172
-6.09741
-0.395668
0
-1.63047
0
-6.95998
-1.19788
-7.04564
-1.02553
-0.520627
-0.359878
-0.320049
-0.435417
-4.1799
-0.631894
0
-5.5599
0
-6.33019
-0.435883
-8.06231
0
-5.02475
0
0
-2.8854
0
-3.75686
0
-6.74768
-3.4636
-2.32746
0
0
-1.73084
-3.12588
-2.89039
-2.48951
-2.24057
-2.52429
-0.516786
-2.26134
-0.283367
-2.22152
-2.67619
-0.595173
-3.06399
0
-8.3208
-3.85746
-3.47393
-2.37288
-1.41648
-3.50615
-4.01013
-5.52574
0
-9.7789
-2.6258
-3.51093
-2.13724
-9.6252
0
-4.97241
-1.55689
-0.521809
-6.35292
-1.47042
-4.26844
-3.64829
-4.83265
-1.0288
0
0
0
0
0
0
0
0
0
0
0
0
0
0
0
0
0
0
0
0
0
0
0
0
0
0
0
0
0
0
0
0
0
0
0
0
0
0
0
0
0
0
0
0
0
0
0
0
0
0
0
0
0
0
0
0
0
0
0
0
0
0
0
0
0
-0.182373
-0.0480968
-0.147636
-0.481869
0
0
0
0
0
0
-0.402371
-0.223415
0
0
-0.0821089
0
-0.0946672
0
-0.0922087
-0.421331
0
0
-0.0575768
0
0
0
0
0
0
-0.0904819
0
0
0
0
0
0
0
0
0
0
0
0
0
0
0
0
-0.0269118
-0.501162
0
0
0
0
0
0
0
0
-0.589983
0
0
-0.0915579
0
0
0
-1.74115
0
-6.43188
-1.00469
-0.962749
0
-0.694808
0
-6.41441
-1.7045
-0.534126
0
-1.99929
0
-0.154091
0
-1.08072
-1.64017
-0.555974
-1.64312
-0.943551
-1.44417
-2.4174
-2.97822
-1.39575
-4.12044
-0.951284
0
-0.646945
-5.38661
-1.73161
-3.06587
-2.78139
0
-8.40181
-0.367
-5.83266
0
-6.63026
0
0
0
-1.33631
-5.81236
0
-4.38232
-2.53712
-2.03586
0
0
-7.0041
-1.27759
-4.52406
-1.50653
-2.51477
-3.58109
-4.6618
-0.160609
-8.83036
-2.00268
-0.0750617
0
-2.09276
-4.26095
-3.51578
-5.36795
-2.53606
-0.331571
-4.18791
0
0
-3.99615
-2.56893
0
-2.87427
-4.40173
-0.157992
-0.694442
-1.75934
-1.82043
-6.18893
-0.651343
-3.96843
-0.00629253
0
-1.68496
-1.47434
-7.08815
-0.576453
0
-1.92523
-3.74894
-2.50057
-5.12171
-1.10055
-0.878832
0
0
-2.16265
-4.05075
-1.05259
-3.74454
-0.995297
0
-3.77151
-3.52725
-3.77636
-1.13995
-1.71494
-1.46067
-1.61512
-1.40105
-5.52813
-1.42464
-2.14518
0
-1.55178
-0.0295612
-3.02687
-1.7747
-1.14064
0
-6.35533
-1.91283
-7.44448
-8.11159
0
-6.74193
-12.6748
0
-9.22585
-0.628542
-1.31728
-1.0137
-2.20774
0
0
-4.42863
0
-2.76191
-0.610361
-0.153863
-0.0975412
0
-0.55905
-3.18324
-4.07938
-2.21299
0
-0.657435
0
0
-3.6247
-0.467285
-4.35306
-3.85867
-4.10056
-2.59806
-0.053702
0
-4.50233
-0.866559
-1.32816
-7.29025
-0.476468
-5.99438
0
-5.86806
-0.822509
-1.5186
0
0
-7.23507
0
-0.648998
-3.61159
-0.610646
-1.30851
-0.184879
-2.49108
0
-3.82107
0
-0.957319
0
-2.88397
-3.32332
-0.37849
-0.758572
-1.84192
-3.48306
-0.119644
-1.19227
-2.61823
-2.63146
-1.41076
-0.624393
-4.98849
-3.40383
-6.2806
-0.540424
-2.665
-1.88402
0
-3.06425
0
-3.281
0
-0.537823
0
0
-6.80247
0
-4.35962
0
-5.40734
-1.8897
-4.96503
-8.18868
-1.0683
-1.21991
0
-6.76795
-1.37437
0
-4.35144
0
-4.41994
-0.0947205
-0.682391
-4.20198
-2.22597
-2.40291
-1.7707
-3.87513
-2.69007
-5.79603
-0.184683
-2.33787
-0.830345
-4.45423
0
-1.69913
-3.9127
-3.91265
-3.45802
-3.64814
0
-3.90344
-4.98894
-4.32708
-0.106049
-2.00714
0
-3.05194
0
-2.29582
-4.12829
-1.37318
0
-6.45974
-1.31315
0
-4.91113
-1.5403
-5.09181
0
-0.770893
0
-1.30275
0
0
-1.1492
0
-0.806969
0
0
-1.38538
0
-1.24608
-0.343095
-0.964408
-7.24551
-1.03123
-4.84618
-0.570043
-0.589199
-0.511248
0
0
0
-0.890716
-1.36001
-5.83628
0
-3.79566
-0.861098
0
-2.53868
-0.202923
-3.11556
0
-0.123972
-2.02385
-2.47409
0
-0.0668054
-8.0098
0
-7.52717
-0.0530837
-2.12884
-3.41883
-0.0336535
0
-1.34183
0
-6.38197
0
-8.98824
-4.76462
-2.84099
-0.319892
-0.332651
-3.09917
-4.17423
0
0
-2.93043
0
-2.72327
-2.31418
0
0
-3.20804
0
-1.7078
-0.487553
-0.112121
-4.97254
-1.31651
-4.85375
-1.35274
-3.56385
-1.49323
-1.42874
-2.74039
0
-1.61803
-2.08422
-2.86466
0
-6.32512
0
0
0
-3.50897
-0.105849
0
-3.50233
-2.17673
-5.21322
-0.26322
0
-6.04534
-2.56713
-2.71804
-2.95182
0
-4.4066
0
-5.69637
0
-0.0165699
0
-0.237436
-4.96434
-1.02587
0
0
-2.60701
-4.21858
0
0
-3.50148
-0.309494
-1.50073
-4.14319
-0.615901
0
-3.35094
-2.54105
-1.84927
-2.66216
-1.27724
-5.45992
-0.667281
0
-2.9358
-0.869647
-1.29783
-3.29342
0
-2.1077
-1.18213
-1.21813
-4.33514
-2.45082
0
-0.661962
-2.57667
-0.277418
-2.02203
-0.507094
-3.28457
-2.67071
-9.48964
0
-0.48014
-1.36775
0
-0.359467
-0.641308
-2.53574
0
0
0
-2.94197
0
-0.184401
0
-3.78311
-3.67653
-1.1066
0
-5.20166
0
-3.27201
0
-0.62906
-3.74334
-5.50231
-0.173526
-0.719032
-4.03311
-1.34943
-5.7591
-0.0186924
-3.24862
-1.28592
-0.135776
0
-0.314431
-2.67936
-0.862386
-0.451203
-5.18912
-0.579921
-5.68061
-2.23333
-0.0598634
-3.14487
-4.41059
-1.30468
-9.48644
-0.15703
0
-3.36633
0
0
0
-6.15753
0
0
-5.17556
-1.08794
-4.02215
0
-2.35339
-0.696407
-1.30292
0
-2.51445
-0.684903
0
-5.18123
-2.54566
-3.63155
0
-4.76239
-2.32945
-0.158315
-1.25315
-2.06269
-0.126632
-1.85795
-0.601361
-0.323884
-0.532676
-2.64558
-4.40906
-0.450212
0
-0.795858
-2.28648
-1.20258
0
-5.35341
-5.37921
-1.22234
-4.4227
-3.48872
-6.86318
0
-4.64651
0
-0.301579
-0.399045
0
-1.8616
-1.1528
0
-0.738933
0
-0.258223
-0.358913
-7.21752
0
-3.5939
-0.453073
-4.69118
-0.147971
-1.16032
-0.514191
-0.325539
-1.02686
-3.51212
-4.14106
-0.0875287
0
-10.0208
-0.556594
-9.14906
0
-7.67007
0
0
-6.06563
0
-6.93469
-4.40157
-2.69792
0
-10.0323
0
-2.02121
-0.890609
-4.06365
-1.5652
0
-4.00824
-1.91823
-2.74074
-4.90498
-1.69962
-2.35607
-1.81411
-0.493755
0
0
-2.83199
-6.23672
-0.131296
0
-3.42841
0
-9.55958
-0.692664
-2.961
-2.96414
-0.0930092
-4.38119
-3.65707
0
-2.43969
-2.07951
-4.25897
-0.333079
-0.294979
-1.46756
0
-2.79538
-0.356346
-5.47286
-1.92245
-5.60359
-4.85279
-4.64674
-1.51426
-0.18837
-7.73222
-1.58925
-3.94185
-0.723716
-7.04025
0
-0.469596
0
0
-4.84167
0
-0.3551
-1.80331
-3.96009
-0.511962
-0.136175
-6.42747
-2.1208
-4.92345
-2.43189
-3.5021
0
-9.37061
-4.36707
-3.3286
-6.47005
-4.08336
-2.68057
-3.85324
0
-6.5747
-0.664146
-6.49608
0
-4.23965
0
-5.49645
-1.74238
-5.12888
0
0
-0.697573
-0.700239
0
-0.0356225
-3.34795
-0.714549
-0.443567
-1.8142
0
0
-0.50092
-4.53309
0
-1.12961
-1.22876
-6.66784
0
-0.45832
-0.515162
-0.807658
-0.141537
-2.55629
-0.248104
-2.0871
-5.42685
-2.37478
0
-2.27105
0
-4.75163
0
-0.933937
-7.33504
-4.88508
-3.87005
0
-0.426664
-2.73961
-1.14579
-4.71772
-3.66339
-1.6607
0
-4.48489
0
0
-0.121152
-0.783251
0
-2.70281
0
-1.75252
-1.54565
0
-2.87438
-0.0646
-0.354897
-1.34138
-2.93879
-6.00986
-0.158619
0
-0.286079
-0.154352
-7.32513
0
-10.0336
0
-9.18402
-0.136294
-0.247772
-1.7813
0
0
0
-1.0022
-1.63928
-3.0566
0
-4.10677
0
-2.05028
-3.20237
-4.2003
-2.91521
-3.83809
-1.35029
-1.80216
0
-6.832
-1.81992
-1.43473
-2.75109
0
-1.65253
-1.63401
-3.00313
0
-1.4649
-0.600165
0
0
0
-2.28976
-8.28188
0
-2.52245
-6.99016
-0.612433
-1.32582
0
-2.41419
0
-4.74634
-1.88469
-3.03562
-1.19798
-0.935007
-4.43624
0
0
-1.78161
-0.340221
-1.20495
-1.01904
-2.6085
-4.04731
-4.57123
-0.960839
-6.551
-1.52883
-2.9311
0
-3.21571
-3.22817
0
-0.383712
-0.982662
-1.07121
0
0
-6.40842
0
-3.95069
0
-5.36161
-0.623906
-4.35137
-2.06644
0
0
-10.0318
0
-2.83598
0
0
-1.76636
-2.74374
0
-4.37723
-0.849145
-4.91421
-0.210128
-0.189242
0
-8.82715
0
-11.5464
-4.50779
-8.87509
-13.8625
-1.0421
-13.4256
-1.26302
0
-5.8432
0
-4.38188
-3.82811
-2.13206
-4.22224
-5.0999
-0.695251
-2.00612
-2.97314
-6.54679
-0.228295
-1.43322
0
-0.66344
-0.0138103
-1.40135
0
-4.84881
0
-7.49387
0
-8.54109
-3.17123
-1.26983
0
-1.5107
0
-0.620531
-0.223571
-2.10044
-1.48223
-5.67358
-2.23485
-1.76256
-4.50979
0
0
-1.61011
-0.339899
-1.49198
-4.15521
-1.0524
-1.41696
-3.72631
-1.8084
-1.1081
-5.00746
-3.39254
-5.86483
-2.98901
-5.68217
0
-4.92709
-0.719897
-1.32004
0
-7.73315
-2.59453
0
-4.97175
-2.24054
0
0
-6.45398
0
-1.7948
-2.5806
-3.00785
-0.871797
-5.78344
-0.370023
-5.62651
-3.83807
-3.11452
0
-3.85489
-0.476486
0
-7.24619
0
0
0
0
0
0
0
0
0
0
0
0
0
0
0
0
0
0
0
0
0
0
0
0
0
0
0
0
0
0
0
0
0
0
0
0
0
0
0
0
0
0
0
0
0
0
0
0
0
0
0
0
0
0
0
0
0
0
0
0
0
0
0
0
0.112627
-0.455129
-0.0555508
-0.42604
-0.729337
0
-1.08678
-0.93545
-0.904096
-0.853443
0.00241236
-0.571848
-1.07955
-0.10727
-0.61375
-0.794029
-0.488059
-0.624011
0
-0.568904
-0.9896
0
-0.553144
-0.787919
-0.056752
-1.23395
0
-0.341296
-1.13855
0
-0.573281
-0.602349
-1.82222
-2.32069
0
-1.92666
-0.442931
0
-0.681478
-0.157209
0
-2.06216
-0.0142163
-0.296801
-2.16889
0
-0.674321
-1.61791
-0.350839
-0.14531
0
-1.50731
-0.20845
0
-1.66262
-0.0247523
-0.0667525
-2.35873
0
-0.284327
-2.52842
0
-0.990318
-1.11143
-1.31127
-4.61959
0
0
-5.01691
0
-9.35499
-2.46656
-1.96125
-1.10379
-6.35834
-4.21715
-7.08816
0
-6.26971
-0.123316
-3.36898
-3.87411
0
-0.268227
-4.84894
-0.658567
0
-3.92445
-1.40293
-0.497166
0
-4.36722
-0.0914239
0
-4.94969
-0.200377
-4.22519
-3.21394
-1.00122
-1.6528
-4.7125
0
-0.546971
-5.13851
-2.08309
-2.20866
-0.124859
-0.603464
0
0
-4.24035
-2.03048
-0.990067
-4.08013
0
-2.76525
0
0
-0.90588
-1.26399
-3.16847
0
-0.290284
-2.1402
-1.30111
-5.7717
-0.598178
0
0
-1.25699
-1.05486
-0.913474
-1.49574
-0.0932898
-9.42469
0
-3.12529
-2.27344
-0.231264
0
-5.6616
0
-2.06019
0
0
-0.289138
0
-1.85086
-4.52068
-3.65524
0
-1.34859
-2.77769
-4.36392
0
0
0
0
-1.33609
-1.11479
0
-2.80974
-0.211156
-1.50321
-1.28886
0
0
-3.25046
-1.61684
-3.80016
-1.01245
-0.734397
-2.87742
0
-5.52409
-0.863624
-1.30676
-1.81614
-5.84605
0
-3.80659
0
-1.46415
-0.982822
-3.00588
-4.04875
-0.398982
0
-3.83731
-1.94926
-2.12867
-1.13128
-0.971525
0
-0.152642
-0.701586
-6.22118
-2.52862
-3.20917
-5.47402
-3.78479
-2.50301
-4.66678
-0.366534
-6.72873
-1.73201
-3.13588
-2.85993
-2.94567
0
-1.12172
0
-0.297738
-3.12439
0
-5.01101
-0.429274
-2.77723
-0.799639
0
-0.766878
-0.918654
-6.98959
-3.00459
-0.736427
0
-2.41444
-2.75592
-1.47161
-8.70525
-0.536214
-2.85745
-0.268426
-1.26905
-5.9098
0
0
-3.06985
-4.46719
0
-1.4032
-0.544239
-2.98536
-3.07881
-1.82426
-3.14055
-1.60338
-5.33995
-0.872041
-0.950526
-0.437098
-1.48966
-5.97885
0
-2.66685
-2.61168
-1.78155
0
-3.23467
0
-0.401616
-0.941215
-0.109229
0
-1.37858
-1.09272
-1.55691
-1.63002
0
-1.199
-1.44311
0
-5.89463
-0.330963
-2.08204
-0.320466
-0.295216
-1.10581
-0.79729
-1.21541
0
-2.64885
0
0
-9.24321
-2.26827
-4.19023
-3.82728
-9.58733
-3.64672
-1.8159
0
-0.945121
-1.13924
0
-3.06332
-0.973125
-1.96335
0
0
-0.770301
-2.31844
-1.15286
0
-0.198603
-0.71634
-1.34727
0
-0.0258457
0
-1.47038
-1.3094
0
0
-1.09684
-1.99513
-2.07755
-1.75314
-1.83307
-1.07284
0
-0.797707
-4.98327
-0.30924
-3.29348
-0.334716
-5.40053
-0.425222
-4.85388
0
-2.83236
-2.33428
-3.33499
-1.59665
-0.738957
-6.35432
0
-8.21534
-3.12855
-2.6499
-1.99288
-2.19267
-4.99898
-1.9057
-3.92789
-0.307122
-2.70165
-2.7297
-1.4577
-4.98873
-0.6198
-9.44802
-0.433018
-7.29874
-0.826722
-5.00886
0
0
-0.0460833
-1.49065
0
-1.20931
-2.23134
0
-4.20065
-1.15729
-2.22308
-7.76658
0
-4.62935
-2.92288
0
-4.6247
0
0
-0.689242
0
-3.27564
0
-4.87057
0
-4.64486
0
-0.845809
0
0
-0.124795
-4.14623
-0.497752
-0.647214
-2.38759
-6.22385
0
-1.66427
0
0
-4.7773
-1.99627
-0.228778
-2.71376
0
-4.74251
-1.92415
-4.55941
0
-1.62202
-1.72195
-5.96499
-2.96956
-6.31046
0
-5.64939
-5.90648
0
-6.25618
-1.84116
0
0
-4.21272
0
-0.351912
-1.1568
-0.228397
-3.93421
0
-0.126669
-0.486658
-5.92675
0
-3.61682
-1.68652
-6.32268
-1.26269
-7.22226
0
-4.10095
-0.534486
-4.49208
0
-8.48253
-0.204109
-0.948787
-3.34998
-2.97012
0
-0.279965
0
-3.93927
-1.0574
-5.39093
-1.36767
0
-5.41239
-8.62799
-0.302358
0
-2.1825
-1.44484
0
-0.888876
-0.458721
-4.17449
-1.73393
-3.23066
0
-0.68502
0
0
-1.29601
-2.19558
-4.31084
0
-5.12772
0
-7.79694
-1.29473
-4.83303
-0.713085
-4.35733
0
-3.84242
-6.53891
-1.09804
-2.5237
0
-6.87575
-0.950481
-2.61327
-0.276258
-5.58826
0
-5.81785
-1.1407
-6.89393
0
-5.57025
-0.889805
-4.73972
0
0
0
-0.656708
-0.521322
-0.148454
0
0
-6.83838
-0.549986
0
-3.58192
-0.0193856
-3.03068
0
-2.99544
-0.555114
-5.70779
-0.182889
0
-8.04548
0
-1.18537
-4.52765
-1.2068
-6.90862
-0.135809
-7.45823
-0.628126
-0.803927
-1.43311
-2.43798
-3.73024
0
-1.26172
-8.12798
-5.98309
0
-3.36809
0
-0.494869
-0.329651
-0.327003
-0.554755
-1.34885
0
-1.63889
-4.11375
-4.78891
-7.9506
-2.95134
-8.84644
0
-3.21226
-3.98955
-0.35709
-0.139446
-4.64525
-0.457504
-7.6109
-2.81897
-0.862484
-1.99836
-5.53272
0
-2.66585
-1.19446
-4.32041
-2.07911
-4.09111
-1.85696
-4.14381
-0.0467631
-0.917515
0
-2.46703
0
0
0
0
-5.24772
-4.91556
-3.94022
-6.51463
0
-0.773865
-2.41348
0
-2.56069
0
-4.75632
-0.311147
0
0
-5.37489
-0.0227177
-2.78267
-4.38094
0
-3.66259
-4.46767
0
0
-8.01385
-0.378566
-4.93264
-1.22205
-1.30941
-0.109663
-1.80908
0
-3.73165
-2.08872
0
-1.02817
-1.30458
-0.391243
-5.21441
-2.9712
-1.22761
0
-8.16571
-0.756119
-2.66739
0
-3.46363
-0.243289
-0.224082
0
-0.153907
0
-5.00199
-2.64921
-6.61816
-1.07137
-7.10292
-0.458879
-1.61337
-3.57374
-1.59873
-0.69798
-2.25169
0
-2.16178
-1.2936
-4.06637
-3.1324
-2.13003
0
-1.39211
-2.02847
-1.88086
-1.53502
-3.93223
-3.28192
-2.30045
-3.10426
-2.52422
-1.29465
-3.68594
0
0
-3.70487
0
-1.65702
-0.72866
-4.16964
-2.46165
-1.05745
-0.34945
0
-4.82774
-5.14576
0
-0.413205
0
-0.622386
-5.91684
-0.826618
-3.91008
-3.47082
-3.82738
0
-0.497455
-3.06887
-1.08831
-0.718687
-1.59816
-3.31032
0
0
-2.00814
0
0
-0.365583
0
-2.77801
-0.490579
0
0
-3.67713
0
-3.76172
-2.6463
-2.8731
-6.64181
-6.82777
-1.61671
-4.37741
-1.13538
-4.43536
-1.35154
-5.86152
-0.310306
-4.70987
-1.11888
-8.17398
-0.238258
-5.88507
-2.97651
0
-0.589445
-0.105202
-0.37989
-4.43878
-10.8583
-3.19281
-13.656
-0.0845639
-0.609408
-0.421142
0
0
-2.41388
0
0
0
-1.10149
-7.83784
-0.700245
-6.51531
-4.7761
-0.628385
-1.48196
-2.44758
-2.62917
-3.94115
0
-7.58547
0
-3.56325
0
-0.30457
-3.79303
-3.667
-3.59279
-0.0630119
-2.4306
-0.0557771
0
-1.46772
-5.65244
-3.54752
0
-5.09901
-0.197928
-1.31718
0
-2.276
-1.34504
-1.30127
0
-2.28486
-0.0618591
0
-0.201401
-2.71917
-5.27636
0
-4.48075
-0.351974
-1.91281
0
-7.40069
-0.188401
-7.71001
-0.172673
-0.322046
-7.98295
-1.93632
-1.09907
-2.9209
-0.103038
-3.32539
-1.95802
-2.38899
-0.712475
-2.00188
-4.30377
-1.46854
-2.87549
-1.02706
0
0
0
0
-3.48155
-2.98288
-6.06198
-8.33227
-0.13419
-1.21002
-4.68823
-1.17342
-0.350458
0
-2.50338
-1.12245
-0.761609
-1.12381
-5.1635
-0.9165
-2.24488
-4.12112
-3.63082
-0.0873727
-4.39214
-0.794384
-0.00772182
-2.33562
-3.12712
-2.37726
-0.785375
-2.21842
0
-1.59897
0
-5.55166
-2.83188
-1.92203
0
-1.49565
-4.84075
-0.951026
-0.745898
-2.08396
-5.84341
0
0
0
-4.71308
0
-1.65982
0
-2.62776
-4.44866
-0.792759
-9.68774
-0.73576
-1.95349
-4.47941
-2.42324
-2.03852
-4.25815
-0.817546
-7.56342
-0.447684
-7.59802
0
-1.8467
-5.6895
-0.616163
0
0
0
-6.12944
0
0
-1.12042
-1.66451
-0.130673
-1.09796
0
-8.47828
-0.840525
-6.57882
-3.3354
-0.894987
-2.4457
-3.93934
-1.88429
0
-0.68017
0
-5.48552
0
-3.7334
0
-5.74954
0
-1.86775
-4.88774
-4.45948
0
0
-0.665993
-5.80544
-4.77906
-1.25536
-2.01447
-1.70935
0
-4.3103
-7.22981
-1.4589
-2.87677
-2.49766
-4.52934
-2.17313
-6.29339
-2.16778
-6.92817
-0.57916
0
0
-2.66596
0
-1.39269
0
-0.182581
0
-1.03266
0
-2.28606
-3.48668
-1.31491
-2.82578
-4.7765
-5.20808
0
-3.3381
-6.81961
0
-0.393599
-5.25019
0
-1.14685
-0.0951932
-5.45661
-2.57125
-2.80897
-2.31845
-1.22879
-3.0589
-2.97582
-0.655746
-4.71994
-2.55829
-5.06643
-1.20665
-9.02121
-0.452902
0
0
0
0
0
0
0
0
0
0
0
0
0
0
0
0
0
0
0