<?xml version="1.0"?>
<VTKFile type="RectilinearGrid">
<RectilinearGrid WholeExtent="0 32 0 32 0 32" Origin="0 0 0" Spacing="1 1 1">
<Piece Extent="0 32 0 32 0 32">
<PointData>
</PointData>
<Coordinates>
<DataArray type="Float32" format="ascii">
0 0.524874 1.04975 1.57462 2.0995 2.62437 3.14924 3.67412 4.19899 4.72386 5.24874 5.77361 6.29849 6.82336 7.34823 7.87311 8.39798 8.92285 9.44773 9.9726 10.4975 11.0224 11.5472 12.0721 12.597 13.1218 13.6467 14.1716 14.6965 15.2213 15.7462 16.2711 16.796 
</DataArray>
<DataArray type="Float32" format="ascii">
-5.03879 -3.62163 -2.20447 -0.787311 0.629849 2.04701 3.46417 4.88133 6.29849 7.71565 9.1328 10.55 11.9671 13.3843 14.8014 16.2186 17.6358 19.0529 20.4701 21.8872 23.3044 24.7216 26.1387 27.5559 28.973 30.3902 31.8074 33.2245 34.6417 36.0588 37.476 38.8931 40.3103 
</DataArray>
<DataArray type="Float32" format="ascii">
0 0.524874 1.04975 1.57462 2.0995 2.62437 3.14924 3.67412 4.19899 4.72386 5.24874 5.77361 6.29849 6.82336 7.34823 7.87311 8.39798 8.92285 9.44773 9.9726 10.4975 11.0224 11.5472 12.0721 12.597 13.1218 13.6467 14.1716 14.6965 15.2213 15.7462 16.2711 16.796 
</DataArray>
</Coordinates>
<CellData>
<DataArray type="Float32" Name="Scalar" format="ascii">
0
0
0
0
0
0
0
0
0
0
0
0
0
0
0
0
0
0
0
0
0
0
0
0
0
0
0
0
0
0
0
0
0
0
0
0
0
0
0
0
0
0
0
0
0
0
0
0
0
0
0
0
0
0
0
0
0
0
0
0
0
0
0
0
0.00749318
-0.994935
-0.0709518
-1.02857
-0.0467015
0
-0.109358
-1.19626
0.370599
0.235967
0
-0.555208
-0.227615
0
-0.560518
-0.700586
0.117803
-0.24685
0
0.236828
-0.601187
0
-0.54222
-0.52746
-0.0414124
-0.536628
0
-0.651079
-0.403237
0
0.0395683
-0.40818
-1.62741
-1.89358
0
-1.567
-0.0340582
0
-1.03179
0
0
-0.24568
0
-0.148522
-0.760676
0
-0.111091
-1.49977
-0.200044
-1.80051
0
-0.926817
-0.422679
0
-0.866404
-0.194246
-0.248168
-0.989353
0
0
-0.934913
-1.16761
-0.0561996
-0.500295
0
-2.45057
-4.01752
0
-1.99274
0
-4.51819
-1.59244
-4.07181
-0.979136
-4.93091
-0.338406
0
-1.45502
-2.88008
-1.52125
-2.33101
-4.08122
-0.8483
-1.13751
-4.74621
-0.104763
0
-0.409206
-2.66835
-5.43557
-0.484034
-3.67036
-2.52362
0
-6.42931
-0.2155
-4.25943
-1.93014
0
-0.405849
0
-2.53954
-0.44624
-0.844372
-1.73929
-0.0999324
-3.14302
-1.89143
-1.60033
-1.72157
0
-2.87475
-1.89258
-0.8335
-1.43982
0
-0.145518
0
-3.12202
-6.78953
-2.20562
-4.8253
0
-1.10064
-2.69712
-3.31029
-0.403058
-1.61777
-0.653479
0
-3.25344
-3.59696
0
-2.61922
-0.224646
-5.74051
-4.60041
-5.87669
-1.73928
-3.9143
-0.280717
-4.95405
-0.174473
-2.77532
-1.7841
-6.76629
-0.396461
-2.07024
-0.733464
-1.44074
0
-6.14267
-1.15951
-2.25196
-8.26826
-4.3987
-7.61272
-1.19516
0
-5.4418
-0.694161
-0.568368
-2.48393
0
-7.36403
-1.04904
-6.40817
0
-3.62433
0
-0.0296231
-1.86658
-2.62371
-7.15413
-0.810912
-3.07974
0
-4.01838
-2.61816
0
-2.86634
-4.70573
-2.88523
0
0
-0.921329
-0.83519
0
-6.72403
0
-1.76554
0
-11.0703
0
-1.0672
0
-2.52119
-2.38104
-1.76355
0
-2.06142
0
0
-2.9062
0
-3.99537
-1.12413
-0.662936
-4.5736
-0.686239
0
0
-1.82475
-0.801705
0
-7.18091
0
-2.62651
-1.52249
-4.22678
-3.00027
-2.16077
-6.07255
-1.35639
-1.29246
-8.26496
-0.515009
-2.5095
-0.580803
-1.53423
-4.56571
-3.06596
-0.585725
-2.09546
0
-0.1465
0
-2.84358
-0.992898
-2.43466
-0.321918
-1.1206
-0.42497
-3.40912
-2.1751
0
-1.68486
-1.97269
-4.31943
-1.0775
-0.780103
-2.56826
-0.894995
-7.80574
-0.816892
-8.90639
-1.21632
0
-1.22921
-0.368757
0
-1.92174
-1.1552
-6.99148
-6.73898
-8.58601
-8.92424
-6.90959
-2.26664
-0.541301
-0.847847
0
0
-1.6837
-2.31213
0
-3.13268
0
-4.70515
-0.848689
0
-1.50843
-4.75819
-2.20317
-3.40223
-1.38661
-0.836142
-3.09412
-1.95408
-4.62881
-2.54263
-4.08893
0
-7.85614
-0.345699
-0.498365
0
-9.10033
0
-2.30709
-0.520254
-1.38147
-0.913096
0
-1.38648
-3.56493
-2.31854
-1.95267
-2.77357
-4.89942
0
-2.42445
-1.8128
0
-7.89218
-0.0975462
-8.62748
-0.149056
-3.23431
-1.15723
-1.99371
-2.73285
-4.83895
-2.51407
-3.21759
-1.69639
-2.29751
-4.3331
0
-5.72734
-0.783328
-4.29924
-0.634899
-0.937895
-0.272856
-3.71301
-1.8719
-0.790413
-0.940014
-1.67002
-1.4062
0
-6.10072
0
-10.2186
0
-0.484784
-1.13054
-0.559676
-1.97012
-1.91647
-1.32485
-1.03817
-2.88093
0
-3.94568
0
-3.79252
-1.5576
0
0
-3.78096
-4.8613
-0.329212
0
-5.07795
0
0
-2.31059
-2.39822
-0.729219
-3.32671
-3.69136
-3.60025
0
-3.74205
0
-3.03623
-1.68031
0
-0.538074
-1.54332
0
-3.76702
-2.19553
-7.72162
-0.972223
-8.1994
-6.87437
0
-9.7693
0
0
0
-0.224506
-12.7625
-0.947425
0
0
0
-9.08907
-0.0311106
-0.527471
0
0
-0.554324
0
-1.33533
-5.09049
0
-7.3003
0
0
0
-10.0763
-5.22916
-1.75444
0
-2.47613
-1.45318
-5.82168
-3.70106
0
0
-8.06771
-1.46634
-6.61903
0
0
-5.35359
-2.52907
-3.16505
0
-3.56652
-4.49598
-1.79337
-5.1739
0
-9.23653
0
-1.29394
-2.6915
-0.274326
-1.62074
-2.86177
-3.06769
-2.33616
-3.68749
-4.90396
-3.4863
-0.291367
-0.609481
-2.81463
-0.667133
-5.08235
0
-3.79897
-2.1857
-4.37151
0
-4.29989
-2.34235
0
-1.70388
-0.228522
-3.53517
-0.359571
-0.889007
-2.60329
0
-8.14263
0
-1.16853
0
-3.23562
0
0
-2.05331
-2.59845
-3.02494
-1.80156
0
-0.0969228
-1.89291
-7.74591
-0.365599
-5.53753
0
-3.98559
-0.784554
-1.61975
0
-2.53765
0
-3.75327
0
-2.56075
-0.488012
-4.03771
0
-0.918161
0
-0.818287
-1.90834
-0.0465402
0
-0.448437
0
-4.10063
-0.178973
-6.08744
-0.0442171
-6.34485
-2.52967
-6.77632
-3.22308
-3.77214
-1.95474
-3.15404
0
-5.26052
-5.65228
-3.58248
0
-1.23541
-1.6202
-1.44531
-1.49995
0
-2.73657
-2.13631
0
0
-1.85479
-4.53392
0
-2.66336
-2.93183
-0.661394
-5.33315
0
-3.97634
0
-3.60786
-0.758971
-3.53043
-1.74381
0
-2.40629
-6.36757
-4.31171
0
-0.527045
-4.91508
-1.07204
-4.85132
-0.327576
0
0
-2.41265
-0.286152
-2.7914
-2.77784
-1.72195
-1.88921
-2.6072
-0.435924
-3.69376
0
0
-1.201
-0.373678
-0.80159
-2.40998
0
-1.20486
0
-0.0495952
-3.80295
0
0
-0.000100058
0
-5.04769
-4.93671
0
0
0
-3.17144
-1.66348
-4.97727
-0.889389
-5.78523
0
-1.64216
0
0
-5.06379
-0.820035
-9.36909
-0.734511
-7.46273
-0.280892
-6.51579
-8.58281
-2.49591
-1.41914
0
-0.791857
-0.819911
-2.90512
-2.61932
-1.34679
0
-4.23279
-2.47178
-1.61073
0
0
-5.20538
0
-2.37624
0
-2.58029
0
-0.981693
-0.796615
-7.30904
0
-3.10603
0
0
-2.01132
-2.34484
0
-4.94184
0
-6.24758
0
-2.77266
-1.59103
-4.70316
-1.23923
-4.27604
-1.11485
0
-5.21634
-2.28699
-0.513984
-2.13489
0
-1.00666
-6.09873
-1.67187
-1.9167
-1.98328
-0.51838
0
-8.30322
0
-8.08321
-0.0659074
-0.696678
-1.20723
-1.30525
-5.70926
-0.809104
-1.82056
0
0
-3.83956
-0.48903
-6.69797
-0.880783
-3.01001
0
-4.34089
0
0
-1.71054
-3.15847
-3.93976
-0.231515
0
-3.5186
-6.44934
0
-1.11857
0
-4.78926
0
-7.42798
0
-3.37204
-3.62158
-3.67741
0
0
-2.39677
0
-1.4125
-2.48771
-1.01383
-0.360261
-1.05857
-3.31074
0
0
-1.93446
0
-0.0556545
-5.76169
0
0
0
-3.22753
-3.50965
-0.450548
-2.39264
-2.70846
-2.91901
0
-6.87104
0
-4.52656
0
-6.48897
-0.0343274
-0.271091
0
-2.37509
0
0
0
-0.424788
0
-4.39045
-4.92607
-3.58048
-5.33576
0
-1.80954
-0.88306
-2.85542
0
0
-0.969563
-2.24705
-3.12013
-1.02424
-0.478671
-0.51062
-3.29413
-3.05993
-0.246602
0
-1.81759
-1.67045
0
-6.25629
-0.778735
-6.33082
-1.72349
-4.09557
-0.711902
0
-7.12206
0
-3.21741
-2.491
-2.61626
-3.61415
-1.26962
-3.24631
-1.93902
-0.464401
-2.71255
-2.14607
0
0
-3.93577
-0.284088
-4.59021
0
-4.41758
-1.14505
-4.61142
-0.729994
-1.67289
-2.09691
0
0
0
-2.12079
-2.84925
-2.53951
-2.17137
-5.72939
0
0
-2.44449
-4.28327
0
-1.01603
-0.0735427
-0.327786
0
0
-6.73787
-6.82858
0
-1.24434
-0.345199
-5.45774
0
-10.772
0
-7.78891
0
-8.39478
-1.58878
-8.62833
0
0
-3.53773
0
-6.4304
0
-1.63612
-1.24271
-0.0828107
0
-0.981247
0
0
-3.1203
-1.74191
0
-1.45792
-3.64884
-0.432049
-0.644606
-0.850879
0
-3.87367
-3.8529
-0.957672
-2.06161
-5.51457
0
0
-3.67677
-1.77557
-4.9097
0
0
-2.3772
0
-1.91364
-1.61894
-1.06532
-3.31522
-2.38661
-3.33856
0
-2.62299
-2.18787
-0.611097
-2.54054
-2.26211
-2.49482
0
0
-3.13976
-3.92731
-0.255749
0
0
-5.75761
-0.925728
-1.14315
-1.00204
-1.28375
-0.0407591
-0.415716
-4.38702
-0.0653516
-3.72714
0
-2.504
0
-5.85558
0
-3.11729
-0.752917
-3.42969
-1.1403
-3.91361
-3.33513
-0.196412
0
-1.73429
-1.52915
-3.82331
-4.16842
0
-2.36392
-1.5866
0
-0.137233
-1.44396
-2.95661
-4.77601
0
-0.281126
0
-4.37936
0
-3.88646
-0.327801
-0.200902
-2.05268
-4.35291
-1.64868
-2.45169
-1.03932
0
-6.39125
-3.92809
-4.29379
-0.948336
-4.44003
-4.11458
-0.752771
-1.17814
-5.0994
-0.184781
-3.50462
0
-2.42767
0
-6.68051
-2.28659
0
-5.43061
0
-6.08283
-1.16449
-3.85462
-1.6041
-2.80739
0
-3.57326
-1.11469
-5.51
0
-2.10299
-5.83127
-1.42807
-0.212952
0
0
0
0
0
0
0
0
0
0
0
0
0
0
0
0
0
0
0
0
0
0
0
0
0
0
0
0
0
0
0
0
0
0
0
0
0
0
0
0
0
0
0
0
0
0
0
0
0
0
0
0
0
0
0
0
0
0
0
0
0
0
0
0
-1.10234
-1.15877
0
-1.61893
-1.40729
0
-1.58064
-1.04221
-0.889447
-1.4687
-0.15543
-1.08115
-1.26168
-0.116779
-1.53373
-1.35425
-0.575152
-0.8859
0
-1.10404
-1.17439
0.0162023
-2.14149
-1.3863
-1.22972
-1.74668
0
-0.46124
-1.19275
-0.264395
-3.23743
-0.799824
-0.102038
-1.19698
-0.191215
-1.27103
-3.30585
0.0207128
-0.420063
-2.37308
-1.02189
-0.923826
-0.39046
-3.97418
-1.49731
0
-3.35473
-0.507497
-0.659168
-1.93427
0
-0.656392
-2.31881
0
-0.809235
-2.4327
-1.02195
-0.585894
0
-2.91019
-1.06456
-0.000987232
-0.793425
0
-4.92986
-0.085015
0
-0.583809
-4.67467
-1.76868
-6.71506
0
-4.23429
0
-1.10413
-4.31442
-6.77237
-2.89843
-1.85698
-3.52644
-1.96065
-1.83865
-1.25818
-3.68856
0
-4.58446
-4.83967
-0.209753
-0.208714
-2.99992
-0.603416
-5.22944
-4.498
0
-1.78775
-1.44382
-1.49828
0
-7.05072
-4.32968
-0.226644
-0.45051
-0.294156
0
-2.07058
0
0
-2.69559
0
-0.80209
0
-2.85146
0
0
-5.48296
-2.38729
-3.31625
-0.673332
0
-0.18218
-6.52496
-0.695169
-2.58161
-2.68206
-0.901747
-1.7165
-3.12854
0
-5.10363
-5.58226
0
0
-2.05108
-1.65874
-6.08246
-0.568113
0
-0.218793
-1.50127
-3.44157
-7.03672
-0.193315
-4.13059
-2.50322
-0.0300289
-0.690258
0
-4.10167
0
-4.68837
0
-1.41855
-1.17653
-6.23256
-0.0650556
-1.40179
0
0
-0.0116139
-2.34821
-0.980763
-4.23474
0
-0.093393
-2.21911
-0.361886
-2.98452
-0.0789724
-8.9684
-2.54855
-8.89295
-0.299809
-7.07428
-0.0539873
-1.67206
-2.922
-0.64171
-4.6631
0
-8.0869
0
-2.56932
-2.87519
-1.04568
-6.52607
-3.52992
-5.03132
0
0
-3.20499
-3.43987
-2.7393
-4.48623
0
-6.78489
0
0
0
-0.41405
-3.7994
-2.62842
-2.07272
-1.30042
0
-2.53237
-0.141728
-7.64089
-0.0849425
-1.44303
0
-10.3014
-3.32913
-7.63023
-1.47683
-8.40938
0
0
-1.24793
-5.36267
-0.710436
-2.20939
-10.9294
0
0
-2.9702
-1.13271
-3.44349
0
-6.08103
-0.673638
0
-5.50028
-1.23039
0
-6.60488
-5.90387
-4.65069
0
-4.27826
0
-2.91448
-2.19643
-3.92491
0
-9.37125
-1.01419
-3.98349
-0.630204
-0.434768
-7.48594
-0.720353
-2.10627
-2.93913
-3.54618
-3.86287
0
0
-6.25377
-2.23756
-6.02223
-4.56329
-3.05222
-1.94611
0
0
0
-0.28712
0
-3.66412
-4.05199
-0.601414
-3.42443
-4.33354
0
-2.45868
-2.20207
-1.75429
-3.89896
-0.209704
-1.67241
-7.67288
-3.76587
-1.50113
-3.67946
-1.91403
-1.86548
-2.51715
-1.79912
-2.7869
-1.50746
-1.97054
-0.256545
-1.99838
-1.42379
-2.16007
-4.65117
-6.41187
-0.198928
-0.700494
-5.7822
0
-0.959495
-1.46125
-3.83742
-0.434662
-3.01189
-1.56888
-0.228092
-6.36366
-0.383616
-1.59329
-2.33269
0
-2.26745
0
-0.634859
-1.45911
0
-0.530702
-4.15288
0
-2.80255
0
-1.70891
0
0
-3.99358
0
0
0
-0.509592
0
-3.56296
-4.70243
-0.548383
-4.71137
-0.228882
-5.12506
-1.12678
0
-4.0769
0
-3.7715
-4.65687
-1.72175
-1.0952
0
-0.741802
-0.974646
-0.961514
0
-0.259882
-1.52882
-7.01008
0
-2.25576
-1.43914
-2.28507
0
-0.886505
-8.79564
-3.07241
0
0
-3.13632
-2.65412
0
-1.68292
0
-3.30149
-2.76589
-0.701802
-0.320321
0
-7.4538
0
0
0
-9.66911
-4.19995
-2.82819
-5.13244
-1.9158
-2.96577
-4.60012
-2.78017
0
-3.72319
0
-1.74851
0
-5.38242
0
-7.67846
-1.80578
0
-1.13487
-6.18378
-1.39911
-6.06084
-1.20877
-3.82569
0
-6.67142
0
-7.75223
0
-3.70577
-2.28167
0
-0.0429892
0
-8.94526
0
0
-3.62634
-1.09417
-1.89404
0
-2.30116
0
0
-2.57925
-1.65589
0
-5.38547
-0.834544
-3.16754
0
0
-3.86511
-2.4533
-2.22946
-2.23385
-2.07946
-1.53723
0
-1.44919
0
-3.1631
-0.195607
-6.29426
0
-4.26968
0
0
-1.12816
-2.32102
-1.69523
-3.01918
-4.29443
-2.25241
-1.56208
-1.09209
-0.0102583
-0.277794
-2.53722
-0.239054
-1.89824
0
-1.2569
-0.259284
-8.58773
0
-6.7962
-0.124911
-5.72595
-3.28147
-2.46979
-1.72101
-0.935947
-5.95472
-6.59709
0
0
-7.42073
0
-6.55206
0
-1.60779
-2.52289
0
-5.33796
0
0
-0.577024
-1.3244
-0.195747
-0.872023
-0.419129
-2.64204
-2.90305
-3.61182
-2.15724
-2.10599
-6.65945
-2.97389
0
0
-1.70815
-3.21384
-0.298235
-9.63677
-6.24095
-1.56385
-5.38876
-2.87902
-2.58432
-6.68421
0
-6.2857
0
-1.63912
-1.17402
-0.833335
0
0
-3.82656
-0.0553564
-4.32046
-0.429618
-2.38963
-1.08764
-2.08177
-2.00641
-3.00535
-3.58114
-0.348767
-7.99565
-0.712889
-0.634251
-3.32812
-4.3154
-3.04422
-0.0740139
-3.7505
-2.399
-1.44497
-6.70434
-0.784119
0
-0.731166
-0.980028
-1.76748
-3.17815
-2.97636
-0.403567
-3.2704
-0.584446
0
-0.691386
-13.8754
-1.26747
-0.327292
-0.684236
0
0
-6.39614
-1.14734
0
-1.65414
-1.87574
0
0
-7.52379
-1.02452
-3.23243
-0.575293
-4.11059
-4.27995
0
-1.95102
-0.52082
-0.724633
-5.51672
-0.103202
-6.76979
-0.0577797
-4.82025
-2.82355
-5.73147
-4.71922
-1.53859
-2.26348
-1.15557
-8.66228
0
0
-1.39211
-0.342646
-6.05438
0
0
-1.91834
-1.96249
-1.83011
-3.99083
0
-0.321192
0
0
-0.961478
-4.69426
-1.24038
-1.68627
0
-5.32048
-0.984511
-1.04653
-3.39126
-0.237294
0
-1.73719
-3.61037
0
0
-0.666828
-2.48634
-0.0980007
-3.52742
-2.28708
-4.06202
-3.0909
-1.73458
0
-15.216
0
-1.04032
0
-0.889942
-1.71321
-2.95128
-2.52625
-2.96303
-2.85462
0
-3.87522
-0.140374
-2.35875
-0.448234
-0.731945
-1.84234
-2.38754
-0.752001
0
-4.03276
0
-0.00984292
-4.32901
0
-4.8553
-1.85889
-0.226371
0
-1.98049
-4.68984
-3.67661
0
-0.2027
0
0
-1.28054
0
-0.808886
-5.46362
-1.60064
0
-2.53507
0
0
-6.03801
-4.65836
0
-0.21169
-4.66548
0
-6.89933
0
-7.46035
-1.48834
-5.22045
0
-2.74126
-7.90185
0
-0.610454
-3.02968
-0.746791
0
0
0
0
0
-8.81649
0
-6.8868
-4.68612
-2.48944
-2.26717
-1.44858
-5.17238
-0.267991
0
-5.84983
-3.018
0
-2.57047
-2.61256
-1.07936
-4.47868
-1.03964
-2.5358
0
-3.76416
-2.03759
-3.1753
0
0
-0.0205089
-7.46251
-3.1805
-0.547854
-5.57775
0
-5.94688
-1.59174
0
-2.02764
-3.53526
-1.22263
-1.87072
0
-2.40872
-2.12123
-5.48458
-0.56128
0
0
0
-0.400953
-2.88489
-1.89707
-4.46181
-2.63305
-1.36686
-8.31086
-0.682157
-8.17461
-0.0337767
-3.16535
-1.1657
-2.9832
0
0
-5.04399
-5.13505
-0.430502
-0.0380472
0
-0.600639
-4.65569
-4.83615
-0.116967
-2.72867
0
-5.46531
-2.08838
-10.9914
0
0
-0.2421
-0.401888
-0.270088
-2.15097
-2.7464
0
-3.61649
0
-6.278
0
-5.0562
-1.95514
-1.27502
0
-0.38989
0
0
-0.78682
-3.89509
-1.87686
-5.28488
-3.05974
-0.361286
0
-4.58537
0
-1.11179
-1.34766
-1.19225
-5.48707
-0.774206
-1.86429
-5.93591
0
-7.00915
0
-6.95566
-1.91691
-0.0355868
-0.455895
-1.1465
-1.59699
-0.539436
0
-6.80764
0
-2.95881
-2.78521
-0.343815
-4.3167
-0.977332
0
-2.57673
-1.00841
-5.77721
-2.97008
0
-4.14032
-3.5337
-3.81286
-5.08167
-3.32126
0
-10.11
-0.35168
0
-1.98626
-1.43404
0
0
-1.19065
-3.97782
-1.51702
-3.57431
-1.93455
-3.56362
-0.641215
0
-0.836517
-1.67417
-5.63286
-1.62093
-4.70595
-0.217039
-5.63611
-1.59035
-0.710497
-0.749406
-1.27321
0
-7.59504
-1.24257
-0.386095
-5.80544
-3.43485
0
-0.586099
-2.53304
-2.78757
-2.07074
0
-1.30275
-1.57655
-1.04223
-1.82
-8.90305
-7.8003
-0.228895
-0.327527
-0.0383397
-0.138682
0
-0.825471
-3.97303
-1.07781
-1.36882
-1.00902
-2.47452
-1.36249
-1.07584
-4.36294
0
0
-7.85176
-0.70068
0
-1.40071
-0.830564
0
-1.30413
-3.31455
0
0
0
-0.875883
-2.89715
-0.483772
-0.903855
-2.80788
-1.06402
-1.22967
-0.0473008
-0.0125732
-0.0952837
-5.00601
-1.44208
0
0
-4.83475
0
-6.92586
0
-0.869935
-1.36791
-0.55611
0
0
0
0
-8.37131
-3.38012
-5.33552
-0.110829
-11.353
-2.30821
-5.60799
-0.0522297
-4.97091
-2.85727
-1.16441
-6.04844
-1.9453
-4.83922
-1.0551
-2.05577
-4.7017
-3.77427
-5.47669
-3.2881
-2.40254
-3.6491
0
-2.44078
-1.81905
-1.18041
-6.69476
0
-5.00113
0
-11.6408
0
0
0
0
0
0
0
0
0
0
0
0
0
0
0
0
0
0
0
0
0
0
0
0
0
0
0
0
0
0
0
0
0
0
0
0
0
0
0
0
0
0
0
0
0
0
0
0
0
0
0
0
0
0
0
0
0
0
0
0
0
0
0
0
0
0
0
0
-0.447585
0
0
0
0
0
0
0
0
0
0
0
0
-0.0568973
0
0
-0.120206
0
0
0
0
-0.333019
0
-0.183062
0
0
0
0
0
0
0
0
0
0
0
0
0
0
0
0
-0.361339
0
0
0
-0.0727394
-0.0206847
0
0
0
0
0
0
0
-0.592414
0
0
0
0
0
0
-0.692387
-5.42623
-1.8679
-1.55241
0
0
-3.86688
-1.02073
-0.303563
-6.25666
-0.5496
-0.452844
-1.13501
-0.327992
-0.265814
0
-1.85718
-2.33556
0
-2.48699
-2.22898
-1.62301
-3.85334
-2.75052
-1.63711
-0.399508
0
0
-1.51849
-1.57694
0
-0.889356
-3.8988
-2.31245
0
-1.46281
-1.85311
-1.54663
0
-1.81165
-1.14201
-3.36548
-1.80811
-2.12247
-3.46083
-4.23408
-0.976685
0
-2.77094
-5.01033
-1.59729
-1.71083
-0.102186
0
-7.85517
0
-5.0922
0
-4.09514
-3.26354
0
-1.11615
0
-5.29424
-1.31395
0
-2.34479
-4.35371
-6.12717
-3.27499
-1.08353
-1.61828
-4.00412
-0.0207873
-4.27851
0
0
0
-1.87942
0
0
-3.67645
-2.94526
0
-6.23913
-0.0385608
0
-4.17959
0
0
-4.90495
-3.58706
-8.18102
-2.71347
-3.07705
-2.06466
0
-0.541329
-7.13915
-3.38445
-0.339996
-0.193906
0
-3.73361
0
-4.29865
0
-2.25174
0
-1.7606
-2.523
-5.00474
-3.0598
-0.830854
-0.418679
0
-2.40646
-1.49614
-0.898216
0
-0.869678
-2.56459
0
-4.93592
-0.633339
-1.04973
-0.338596
-4.28685
-1.35397
-5.27853
-1.1004
-3.72841
-0.977109
-2.19454
-3.75355
0
-1.2903
0
-1.01678
-2.07087
-0.922953
-1.36144
-0.734449
-2.70274
-3.68489
-0.56886
-0.48571
-0.525606
-1.09131
-1.46946
0
-3.4181
-3.93984
-0.118548
-0.807937
-7.10368
-2.74149
0
-1.8989
-5.89468
-4.56217
-0.447484
-3.49648
-2.06532
0
-3.85695
0
-1.90181
-1.922
-7.37971
0
-0.744107
-0.710601
-3.16275
-3.4762
-1.13053
0
-3.20014
-1.33246
0
0
-0.941877
-0.919084
-1.63023
-2.84803
0
0
0
-0.981255
-0.738358
-1.70737
-1.3093
-1.0435
-1.49152
-1.1322
-2.39662
0
0
-3.60918
-2.11221
-2.78799
-0.754163
-3.86283
0
-1.38587
-0.195403
-2.68079
-1.72455
0
-6.49564
0
-8.72832
0
0
-6.32565
-4.09073
-3.04431
-4.27724
0
-0.517216
-3.50107
-4.90301
-1.35995
-3.02857
-0.762398
-0.631509
-0.548821
-1.34496
0
-0.903188
-0.035329
0
-5.34184
-0.172489
0
0
0
-5.47482
0
-6.26303
-1.26856
-4.84983
-1.42421
-1.63358
-0.506297
-1.24763
-5.86432
0
0
-7.47386
-0.972019
-6.6529
0
-3.40324
-2.22868
-1.73048
-1.01461
-4.15456
0
-3.47662
-0.549423
-4.46823
-0.388722
0
-5.75684
0
-6.86166
-1.68868
0
-3.92881
0
-1.89499
-0.943835
0
-0.473364
-8.65875
-1.70613
-2.17618
-4.92105
-4.31405
0
-2.17964
0
-4.09479
0
-2.81124
-1.89021
-5.36279
0
0
-1.84316
-1.00868
0
-4.01467
-2.86277
-6.30698
0
0
-0.637084
0
-3.22021
-2.07092
0
-3.85799
-1.16557
-0.0980499
-6.33094
0
-5.68587
-0.991572
-0.552793
-0.982091
-2.16945
-10.1646
0
-3.51373
0
-0.325475
-1.17714
-0.0831949
-4.46133
-6.75048
-3.06437
-7.05537
-0.862563
-6.37413
-4.64355
-0.332486
-4.22126
-1.38877
-5.16407
-7.26389
-0.282165
0
0
-0.205493
-1.29123
-0.265107
-2.87913
0
-7.66414
0
-0.62689
-2.20515
-2.0432
-2.93166
0
-0.599939
-0.823032
-0.914087
-0.850335
0
-0.840007
0
0
-3.27273
0
-0.195901
-1.13392
-1.66886
-0.0705912
-1.60285
0
-3.86374
-1.92555
-7.92487
0
-1.57092
-2.36638
-4.07292
-2.88499
-3.78775
0
-8.27707
0
-0.905782
-0.567817
-1.51627
-4.08447
-7.24135
-2.42828
-2.44328
-2.67541
-0.16149
-3.02088
-2.41268
0
-6.00994
-1.74532
-5.53352
-3.1213
-0.366685
-2.16473
0
0
-6.73954
-0.0285948
-1.58944
0
0
-4.69537
-0.425703
-2.82406
-0.881625
-1.90879
-6.32206
-1.28286
0
0
-4.7088
0
-0.130902
0
-3.12901
-5.69017
-2.48938
0
-3.24181
0
-1.09634
-5.77009
0
-4.13466
0
-4.61945
0
0
0
-2.3326
-0.600052
-3.48957
-4.39541
-0.698931
-5.80215
-0.0808608
-0.940764
-0.213182
-1.59658
-0.466457
-1.11829
-2.23244
-0.384061
-0.834694
-2.29013
-5.8105
0
-3.65804
-1.50472
0
-0.521813
-2.04662
-4.42084
-0.00154949
-2.41086
-0.0537928
-0.756949
-1.75744
-0.425508
0
-2.56294
-4.37808
0
-5.55461
-0.339998
0
-3.08933
-5.38148
0
-0.943481
-4.89016
-4.61754
0
0
-2.38078
-1.27675
-4.48896
-8.22469
-0.940219
-4.87197
0
-1.78006
0
-2.86168
0
0
-8.85337
-1.24042
-0.95089
0
-5.75586
-3.01229
-3.307
0
0
-1.787
-2.64821
-1.41305
-0.777216
-4.16337
-2.90369
0
-1.80637
-0.202809
-0.00998407
-0.25353
-2.68154
0
-0.415255
-2.07756
-2.37962
-1.47186
0
-0.384131
0
-1.53533
0
0
0
-0.390806
-0.533984
0
-5.78466
-4.57467
-4.83205
-4.42329
-1.39017
0
-4.98989
-0.242722
-0.291708
0
-1.49792
-2.97921
-10.446
0
-10.8598
0
-3.21392
-0.950161
-0.575475
-4.73438
-1.84344
0
0
-1.14451
0
0
-4.06482
-1.10397
0
-2.47778
-0.415314
-3.11817
0
-0.513292
-0.516813
-3.6978
0
-0.0744705
-3.03746
-1.26777
-2.33311
-0.136658
0
-6.48051
-0.710119
0
-3.15982
-0.735563
-1.36244
-5.31284
0
-5.60677
-0.00652379
-2.99452
0
-6.10917
-1.62734
-3.20859
-1.92893
0
-2.05108
-0.40361
-3.91931
-2.83888
-1.31391
-1.35817
-3.83662
-3.66404
-0.294341
-5.49449
0
-5.88993
0
-3.27386
-11.9318
0
-1.84217
-5.3345
-1.70197
-1.01602
0
-4.76342
-1.65753
-6.95674
-0.0291917
-1.67931
-0.481706
-0.0955708
-0.472813
0
-1.55326
-2.7787
-0.165978
-0.0821355
-1.03571
0
-11.6112
0
0
-3.55764
-2.89964
0
-3.17438
-2.56302
-0.692408
-6.61657
-3.88792
-1.6889
-1.44789
-1.59892
-1.86109
-0.162243
-0.169704
-1.97625
-2.81628
0
-5.01449
-3.65405
0
0
-5.31099
-2.68785
0
-0.272065
0
0
0
0
-0.387773
0
-2.81959
-3.07157
-10.5791
-0.483819
-0.113753
-5.46712
-2.50016
-1.17763
-3.31354
-1.31647
-9.02423
0
0
-4.55412
-6.05098
0
0
-1.21366
0
0
-4.2958
0
-6.21239
-0.289972
-1.87068
-7.60244
-0.692499
-0.379164
-4.6317
-2.82314
-5.13068
0
-0.0229058
-0.243852
-2.69264
-1.96955
-4.09601
-5.27004
-2.84946
0
-0.76402
0
-1.26018
-3.87838
-5.00559
-0.363608
0
-9.76789
-0.596959
-7.9261
0
-0.964704
0
-3.92016
-6.95495
-6.94126
-0.762246
-2.44668
-1.13173
-4.98305
-1.4522
-0.123693
-3.10537
0
-3.16624
-0.70407
-2.95607
0
-5.57788
0
-1.78742
-4.54458
0
-2.49676
-3.42296
-3.39952
0
-3.53974
0
-0.964559
-5.10163
-5.0636
-3.80383
-0.373254
0
-4.48371
-0.280827
-8.44447
-0.711112
-1.85482
-2.72046
0
0
-1.21416
-7.07874
0
-7.25921
-0.931632
-1.25999
0
-2.25383
-1.39599
-1.64485
-1.37339
-5.51714
-0.72914
-6.30825
0
-5.88558
-0.272412
-1.47432
-6.2451
0
-0.028897
-3.09735
-1.89179
-1.06394
-1.56241
0
-2.95337
-8.4902
-1.95951
-3.59384
-5.51095
-5.24888
-6.15242
-0.526258
-1.21554
0
-1.78444
-0.409855
-5.75767
-0.192947
-6.43075
0
0
-0.200076
-0.8732
-1.12748
-2.28694
0
-4.70232
-0.381775
-5.68252
0
0
-1.30343
-7.17642
-9.45187
0
-9.01141
0
-9.4806
-0.474941
-3.82343
-5.13499
0
-1.92572
-5.19707
-0.0579293
0
-2.8187
-3.33127
-3.55942
-0.839861
-4.9523
-3.57519
-4.90395
0
-0.131746
-4.82497
0
-0.0989412
-1.00132
-4.7612
-0.598426
-6.43267
0
-1.80281
-2.23044
-1.27408
-4.08238
0
-3.8307
-0.623669
-1.03526
0
-6.32189
-0.77959
-8.30542
0
-2.14147
0
-2.60753
-0.34191
-1.69813
-5.07365
0
-0.146095
0
-1.79257
-1.37232
-2.79114
0
0
-1.15588
0
-0.73272
-9.51359
0
-0.350106
-5.69631
-0.912496
-0.978956
-0.603365
-3.61099
-5.78545
-3.19212
-0.942724
0
-0.0334802
-4.57429
-0.359017
-0.468786
-6.15942
0
0
-4.53852
-2.98596
-0.993515
-6.09486
-1.53448
-0.513092
-2.91669
0
-3.3235
-6.09436
-3.20154
-3.42603
-2.36393
-0.0160226
-0.236669
-3.61928
-0.621811
-3.83821
0
0
0
0
0
0
0
0
0
0
0
0
0
0
0
0
0
0
0
0
0
0
0
0
0
0
0
0
0
0
0
0
0
0
0
0
0
0
0
0
0
0
0
0
0
0
0
0
0
0
0
0
0
0
0
0
0
0
0
0
0
0
0
0
-1.42907
-3.42569
0
-0.971713
-0.918303
0
-0.934985
-0.692156
-0.169288
-0.662654
-0.1983
-1.19045
-1.60162
-0.0507507
-1.65064
-1.70657
-0.627297
-2.22162
0
-1.75186
-1.26032
0
-1.19594
-0.562589
-0.630714
-1.53511
0
-0.233734
-0.163005
0.0200127
-0.607138
-1.09383
-0.781586
-0.194355
0
-0.786837
-0.26709
0
-1.8875
0
0
-2.55202
-0.288768
-0.938228
-2.96833
0
-0.426046
-0.655008
-1.11936
-0.00562576
0
-2.56022
-0.0522115
0
-3.11897
-0.310918
0
-3.89559
0
-1.38876
-3.44422
0
-2.6904
-2.15787
0
-1.48118
-1.01442
-2.81538
-5.11285
-2.02194
0
-3.09154
-0.771884
-0.171312
-1.98116
-5.54714
-4.13708
-1.03095
-4.87538
-2.97917
-0.835424
-5.30787
-4.21323
-0.375873
-3.04072
-0.181581
-1.25028
-0.232998
-5.7246
-6.68261
-0.0553233
-8.67606
0
-1.0132
-6.65044
-5.77997
0
0
-2.02665
-0.951712
-0.355309
-1.14402
-0.434976
-0.757172
-1.58685
-0.0110141
0
-1.46803
0
-3.28787
-0.14135
-2.98463
-0.50373
0
-0.646969
-4.89828
-6.48795
-2.97208
0
-4.94608
-0.0667102
-4.52232
-0.353626
-0.304942
-0.82016
-1.97454
0
-2.89735
0
-7.44942
0
-2.08979
0
-0.712858
-2.0084
-0.254265
-2.54187
-1.88594
-5.75216
0
-5.72809
-0.957593
-7.33202
-3.47716
-5.22069
-4.05475
-3.14068
-3.79129
-3.99365
-3.79157
-6.42336
-0.150789
-3.20458
-1.00252
-0.432337
0
-0.256493
-7.49141
-0.818701
-6.03479
-5.52033
-2.77671
0
0
-0.0602627
-7.10513
-1.48649
-1.16179
-1.70527
-3.67277
0
-5.84062
-1.05804
-5.24251
0
-1.10252
-1.2033
-2.21866
-0.166077
-1.26398
-1.87356
-0.156845
-6.65658
-9.65053
0
-7.15844
-0.903171
-3.06953
-2.30933
-3.36299
-2.31584
-0.9617
0
-0.813934
0
0
-1.22494
0
-3.63619
-1.65175
-5.45117
-0.75366
-2.15441
-1.15936
-0.27472
-1.58504
-1.09141
-1.90354
-0.468425
0
-3.78701
-0.901682
-2.53568
-1.04405
-3.53565
0
-1.57277
-6.5504
-2.68046
-3.22448
-1.62221
-6.85738
-0.0745928
-0.544278
-0.257004
-6.66553
-6.00672
-4.76478
0
-3.23476
0
-5.79206
-3.27626
0
-2.86393
0
-2.95544
-3.24607
0
-1.23834
-5.16116
-0.691887
-1.4198
-4.17313
-0.327849
0
-8.42279
0
0
-3.48276
-3.96195
-3.22873
-0.704999
-3.18063
-4.37397
-4.85041
0
-5.36401
-4.17903
-3.88112
-7.8303
0
-4.51066
0
0
0
0
-10.5217
-2.21328
-4.14956
-4.76851
-2.42073
0
-1.43696
0
-1.80931
-5.28192
-3.03018
-0.564156
0
-0.146768
-1.84561
0
-5.5184
0
-0.798815
-0.328261
0
-0.622675
-8.13537
0
-1.5689
-1.42186
0
-2.04806
-3.29516
-3.6465
0
-4.43827
-0.305112
-7.54347
-2.47319
-2.80426
-1.79482
0
-2.00525
-0.0467465
0
-3.33609
-1.17804
-0.629629
-5.33845
-1.42742
0
0
-0.861352
-6.42187
-0.903189
-5.02201
-1.53847
-3.6327
-1.13717
-7.33455
-0.505204
-2.42837
-5.62007
-1.53183
-3.15087
0
0
0
-2.8319
-4.23669
-3.96264
-1.72815
-1.60808
-1.89798
-3.89635
0
-4.82289
-2.16141
-5.46469
-4.25816
-5.11819
-1.74764
0
0
-4.9537
0
-6.2365
0
0
-2.21346
-1.38037
-1.75525
-0.0713423
-5.55919
0
-1.23703
0
-2.6207
-0.740623
-5.91412
0
-1.76107
-2.13677
-1.4251
0
-1.45395
-4.33839
0
-3.55668
0
-2.55701
-1.63218
-2.1056
-1.17131
0
-3.6924
-2.8764
-2.40273
-4.75327
-5.86647
-2.17847
-4.85782
0
-3.48384
-4.61818
-4.25771
-6.07864
-1.93998
-6.77406
-4.11976
-0.832721
-0.877364
0
0
-2.24623
-1.7615
-3.09487
-2.33156
-3.30895
-2.33516
-2.57467
-1.36707
-0.86044
0
0
-0.28846
0
-2.56241
-0.353486
-5.36532
0
-8.27875
-0.860258
-3.98517
0
-1.59654
0
-1.89147
-2.26291
-1.14788
0
-1.60967
-1.04023
-1.31016
0
0
0
-0.0905783
-8.20735
0
-1.00856
-0.0383653
-1.72257
0
-3.75411
-3.22564
-6.80349
-7.57033
-0.484698
-3.55033
0
-0.258727
0
-0.395429
-2.52392
-1.57353
-1.72172
-4.77494
-0.381388
-2.45094
0
-0.773989
0
0
-6.0195
0
-0.373745
0
-7.57206
-5.02179
-4.36207
0
-2.89636
-0.126044
-5.78259
-3.24404
-0.120942
-0.200681
-4.4598
-0.212322
0
0
-5.63244
-6.18221
-1.34571
-0.458561
-1.29996
-6.24743
0
-9.42869
0
0
0
-4.84194
-4.33107
-3.67386
0
-1.02843
-1.72621
-2.60724
0
-1.105
-0.655155
0
0
-0.0697488
-6.29438
-0.912999
-2.15367
-2.11122
-0.204899
-2.52944
-8.54833
-3.12099
0
-2.5558
0
-2.16942
-1.53047
-3.11957
-4.01117
0
-0.29674
-2.06663
0
-2.11764
-0.949654
-2.79693
-4.00419
-1.61221
-1.33887
-0.966476
0
0
-2.18497
-5.28875
-1.88045
0
-3.69506
-4.61612
-0.238446
-1.59968
-12.5973
-0.0746185
-5.91689
-3.51754
0
0
0
-0.374278
-6.50403
-5.71078
-1.67305
-1.00766
-5.02846
-2.5573
-0.0517908
-1.12984
-2.89305
-1.2265
-2.90306
-4.85724
-4.28527
-3.12718
-6.1674
-1.0728
-5.79241
-1.36359
-5.05573
-0.0798637
-0.13766
-4.72343
0
0
-7.14431
-1.73395
-5.60113
-3.11459
-2.121
-4.11472
-0.551281
-6.29333
0
-6.62376
-1.32646
-4.02349
-1.01589
-4.62879
-0.329415
-0.0757336
-1.74719
-5.51173
-3.31105
-0.627086
0
0
-3.08082
0
0
-2.57637
-0.891986
-4.56088
-6.09403
0
-0.880641
0
0
0
-5.37145
-3.24947
-3.51106
-0.891704
-0.189657
-6.41057
0
-6.0086
-6.12232
-3.72063
-2.9021
-0.229727
-4.65195
-4.95276
-1.54982
-2.18956
-0.0881262
-8.4362
-1.56921
-8.08524
-2.90037
-4.21368
-2.93742
0
-2.74904
-0.902172
-0.158169
0
-4.07642
-1.92907
0
-5.07692
0
-2.90959
-2.32233
-1.36596
-0.438449
-4.36369
-0.505556
0
-2.87177
0
-5.55625
0
-1.85028
-0.911055
-3.90172
0
-2.5997
-2.20843
-0.0611688
0
-4.42048
-7.68371
-8.55917
-0.76378
-4.13163
-2.16149
0
-3.49276
-1.40025
-5.61722
-0.828451
0
-6.06476
-0.543162
0
0
0
-0.216546
-5.03594
-6.3247
-2.35992
-5.17697
-2.24194
0
-11.7185
0
-6.94369
0
-0.55465
-2.62466
-3.88276
0
-1.76564
-0.0732035
-1.16276
-3.95016
0
-1.10114
-0.0487132
-1.00079
-2.37567
-0.47352
0
-6.30675
-1.83157
-1.01585
-3.34561
-2.81452
-1.68709
0
-3.80832
0
-0.478531
-1.14887
-0.447633
-2.90201
0
-3.80817
0
-3.14112
0
-1.34345
-3.38593
0
0
-0.870401
-4.83114
0
-0.0324129
-0.597145
-2.26019
-5.01629
0
0
-3.3892
0
-1.12226
-0.640857
-6.72885
-1.46337
-5.15565
-0.38608
-0.751894
0
0
-1.56602
-1.99549
0
-4.91723
0
0
0
-2.4396
-3.80281
-2.2341
-2.24688
0
-1.55146
-2.08625
0
-2.82273
-3.70219
-4.24826
-2.79632
-3.83056
-1.26999
-5.51297
0
-5.52799
0
0
0
0
-5.43023
-1.17957
-3.68079
0
0
-3.02779
-4.39293
0
-4.18347
-6.46408
0
-4.31707
0
-1.57998
-0.597722
-4.64389
-1.93332
-0.783517
-1.19463
-3.4952
-0.909741
-1.53263
-2.12389
-0.853391
-5.61339
-1.98258
-5.95963
0
-3.55551
-1.89065
-4.20556
0
-5.00774
-8.6437
-0.606279
-5.68026
-3.64156
-2.53429
-0.908938
-4.31516
0
-14.0318
-1.2106
-1.62306
-1.08365
-4.65025
0
0
0
-3.39018
-1.00549
-1.34352
-5.03548
-2.85664
-0.121998
0
0
-1.31018
-0.0383296
-0.57604
-0.698394
-0.82596
-0.257754
-3.57701
0
0
0
-9.78758
-0.505576
0
-10.7091
0
-1.7736
-0.31898
0
-0.524197
0
-6.31884
-4.92505
0
-2.72216
-1.17406
-0.385268
0
-3.43899
-0.922443
-1.70196
-4.18807
-0.631873
-7.0394
-1.55881
-3.97942
0
-5.19403
-7.18373
0
0
-3.92293
0
0
-7.79552
0
-1.44512
0
-2.21276
-1.16738
-2.39803
-0.389429
-1.64906
-1.7294
-2.52297
0
-0.873014
-4.70846
0
-8.41557
0
-2.1936
-0.943951
0
-0.581458
-3.51832
-2.30623
-1.92619
0
0
0
-5.98885
0
-4.10475
0
0
-1.237
-0.412265
-3.00852
-0.787462
0
0
-2.00309
-3.7096
-1.48014
-0.519949
-2.45299
0
-2.47867
0
-4.05709
-2.85687
0
-0.556491
0
0
0
-9.51186
-0.260393
-6.59057
0
0
0
-3.65038
-0.0372364
-0.066777
-10.0272
-5.77522
-2.21301
-2.36505
-6.87485
0
-4.94511
-5.1521
0
-5.45377
-5.13298
-0.623718
-0.296159
-4.456
0
-6.84235
-0.45545
-1.14477
-0.744576
-8.26423
-5.01815
-9.01164
0
-2.44185
-3.28991
-1.10079
-0.043997
-3.3661
-3.65359
0
-4.66192
-0.921588
0
0
0
0
0
0
0
0
0
0
0
0
0
0
0
0
0
0
0
0
0
0
0
0
0
0
0
0
0
0
0
0
0
0
0
0
0
0
0
0
0
0
0
0
0
0
0
0
0