<?xml version="1.0"?>
<VTKFile type="RectilinearGrid">
<RectilinearGrid WholeExtent="0 32 0 32 0 32" Origin="0 0 0" Spacing="1 1 1">
<Piece Extent="0 32 0 32 0 32">
<PointData>
</PointData>
<Coordinates>
<DataArray type="Float32" format="ascii">
0 0.524874 1.04975 1.57462 2.0995 2.62437 3.14924 3.67412 4.19899 4.72386 5.24874 5.77361 6.29849 6.82336 7.34823 7.87311 8.39798 8.92285 9.44773 9.9726 10.4975 11.0224 11.5472 12.0721 12.597 13.1218 13.6467 14.1716 14.6965 15.2213 15.7462 16.2711 16.796 
</DataArray>
<DataArray type="Float32" format="ascii">
-5.03879 -3.62163 -2.20447 -0.787311 0.629849 2.04701 3.46417 4.88133 6.29849 7.71565 9.1328 10.55 11.9671 13.3843 14.8014 16.2186 17.6358 19.0529 20.4701 21.8872 23.3044 24.7216 26.1387 27.5559 28.973 30.3902 31.8074 33.2245 34.6417 36.0588 37.476 38.8931 40.3103 
</DataArray>
<DataArray type="Float32" format="ascii">
0 0.524874 1.04975 1.57462 2.0995 2.62437 3.14924 3.67412 4.19899 4.72386 5.24874 5.77361 6.29849 6.82336 7.34823 7.87311 8.39798 8.92285 9.44773 9.9726 10.4975 11.0224 11.5472 12.0721 12.597 13.1218 13.6467 14.1716 14.6965 15.2213 15.7462 16.2711 16.796 
</DataArray>
</Coordinates>
<CellData>
<DataArray type="Float32" Name="Scalar" format="ascii">
0
0
0
0
0
0
0
0
0
0
0
0
0
0
0
0
0
0
0
0
0
0
0
0
0
0
0
0
0
0
0
0
0
0
0
0
0
0
0
0
0
0
0
0
0
0
0
0
0
0
0
0
0
0
0
0
0
0
0
0
0
0
0
0
0.162488
0.584678
0
0.369606
0.248481
0
0.368685
0.476298
0.13917
0.412527
0.567828
0.276848
0.657351
2.73572
0.261308
1.26264
0.167091
0.284516
0
0.303768
0.563057
0
0.457869
1.2873
0.175789
0.33677
0
0.479384
0.301631
0.221322
0.288511
0.789738
0.236076
1.38373
1.00741
0.541259
1.28357
0
0.377809
1.2832
1.38991
0.253717
0
0.757225
0.151349
0
1.02319
0.367985
0.0505576
1.14184
0.45126
0.394714
2.61072
0
0.217766
1.62854
0.834806
0.223685
0
0.845287
0.425729
0.878597
0
1.13948
1.20386
0.584158
0.67888
0
0.678997
0
1.06925
1.21729
1.05286
0.291525
1.03432
0.601596
0
0
0.671994
0.340315
0
1.03407
0
0.942436
0
0
0
1.19754
0.77838
0.550094
1.34169
1.56118
0.667595
0.913489
0.480099
0.119064
1.19669
0.521681
0
0.678912
0
1.15212
1.01902
1.28036
1.18826
1.21929
0.491339
0
0.67603
0.460024
0
0.598308
0
0.282951
0
0.811642
0.937028
1.86193
1.03204
1.3772
1.87711
0
1.32317
0.52023
0.828241
0.406263
0.849988
0
0.537656
0
0.751375
0.795446
0.990537
0.9255
0
1.16275
0.497037
0.802449
0.79194
0.641366
0.836498
1.41582
0.743744
0.540532
0.535136
0.70582
0.866137
0.818672
0
0.678009
0
0.427399
0
0.217602
0.850463
0
0
0
1.20112
0
0.322651
0.478073
0.981917
0.805156
0.384141
1.15334
0.497972
0.648483
1.68382
0
0.71108
0
0.581898
1.17635
0.395384
0.523722
0.1715
0.680446
0.331464
0.449097
1.13007
0.972061
1.32737
0.771128
0
0
0.46605
0.455857
0.581319
0
0.79529
0.43119
0.493278
0
1.31989
0
0.872726
1.0921
0.418487
0
0.703048
0
0
0.36667
0
0.179778
0.457011
0.519605
1.13172
0.925286
0
0.524252
1.12699
0.72515
0.561147
0.749693
0.81501
0.670764
1.25047
0.382081
0.876992
1.03717
0.867855
1.32335
0.277467
0.666599
0.897968
0
0.671469
0
0.81837
1.22996
0.484688
0
1.17758
0
0.320981
0.943605
0.408719
0
0.510208
0
0.487124
0
0.430049
0.554655
0.261398
0.585361
0.668749
1.64342
0.592164
0
0
0.414035
1.63448
0.879272
1.09091
0.356479
0.789476
0.611495
1.1052
0.44161
0.55933
0.537276
0.569157
0.546242
0.690257
0.225888
0.375985
0.51074
0
0
0.924203
0.697602
0
0.776318
1.61105
0.531301
0.79732
1.18657
0
1.07246
0.803722
0
0.534224
0.524862
0.560347
0.70806
0.562727
0.492726
1.27417
0.477887
0.393832
0.61913
0.673813
0.697138
0
0.571398
0
0.384592
0
0.463575
0
0.657438
1.10935
0.627097
1.77232
0.475994
1.37302
0.358931
0.43425
0.680008
0
0
0.441081
0.648803
0
0.28034
0.463998
0.565115
0
0.447234
0.784536
0.468518
0
1.20748
0.662652
0.946166
0.402245
0.866076
1.30733
0.746008
1.27112
0.915775
0
0.790292
0.177222
0.330877
0
0.561402
0.390736
0
0
0.984777
0.721038
0.628899
0
0
0.552041
0.522855
1.03174
0.655307
0.252855
0.720731
0
0
0
0.518003
0.833097
0
0
0.363776
0
0.516389
0
0.266885
0.269097
0.486057
0.393183
1.4705
0.759442
0.539289
0.42127
0.852397
0.348936
0.411146
0.828073
0.425267
1.43116
0
0
0.568278
0
0.590236
0.550506
0.506571
0.494332
1.35282
0.51175
0.453724
0.502483
0
0
0.418134
0.589597
0.459521
0.953109
0.50398
0.566383
0
0.556608
0
0
0
0.921052
0
0.535949
0.554019
0.349455
0.762198
0.919975
0.794404
0
0
0.556306
0.284795
0.787538
0
0
1.09736
0.681491
0
0.761668
0
0.753238
0
0.706697
0.305341
0
1.08934
0
0.434303
0
0.31661
0.676497
0.646809
0.757262
0.546759
1.01053
1.69233
0
0.723784
0
1.16148
0.258959
0.395249
0
0
1.04556
0.747086
0.206314
0.840259
0
0.861709
0.917903
0
0.548268
0
0.855838
0.53037
0.680616
0.685092
0.271867
0.728503
0
0.379028
0
0
0.647243
0
0
1.44382
0.89253
0
0.371391
0
0.619577
1.30439
0.784401
0.511911
0.728571
0
0.767035
1.70819
0.774568
0.969972
1.19573
1.02853
0.431999
0.384203
0.581533
0
0.239968
0
2.00215
0.203649
0.856252
1.16212
0.396763
0
0.480309
0
0.967079
0
0.641878
0.807926
0
0
0.365793
0.417109
0.782244
0.736366
0.651412
0.769546
0.503481
0
0.925877
1.71299
0.556438
0
0.787703
0
1.34734
0.43891
0.44137
0.455872
0.577469
0.557908
0.32686
0
1.18139
1.32021
0.568594
0
0.486994
0
0.296949
0.881038
1.13601
0.542844
0
0.927473
0
0.264954
0
1.75932
0.986667
0.650647
0
0.555611
0.748538
0.496998
1.42849
0.578634
1.14285
0.586441
0
0
0.553107
0.71289
0.117771
0.62447
0.828893
1.07
0
0.3661
0.783683
0.513007
1.58019
0.97141
1.24077
0.975801
0.638628
0.602163
0
0.583978
0.586524
0.867848
0.97243
0.658579
0.374773
0.908534
0
0.755641
0.274238
1.6454
0
0.774354
1.35278
0
0.673337
0.657709
0
0
0.812452
0
0
1.2793
0.521325
1.52291
0.789985
0.582526
0.15684
0.330862
0.213258
0.554585
0
0.568113
0.703541
0.863034
1.02731
0.265807
0.549026
0
1.67168
0
1.60659
0
0.513376
0.712303
0.914648
0.596851
0
0.758334
0.237545
0.533812
0.922471
1.28362
0
0.798948
0.124787
0.330555
0
0.175711
0.320484
0.31644
0.360798
0.365397
1.36891
0
0.530621
0
0.829198
1.57773
0.929565
0
0.47559
0
0.473832
0.680102
0.845516
0
0.483415
0.343081
0.463449
0.544768
0
0.291818
0.220713
0
0.650732
0.980836
0.465173
0.608489
0
0.423436
1.79383
0.39535
0.906461
0.955924
0.657835
0.350738
0.584824
0.230605
0.674572
0
0.584606
0.570947
0.984518
0.624474
1.06031
0.661318
0
0
0.485853
0
0.196321
0
0
0.302973
0.746805
0.634275
0
0.810129
0
0.559686
0
0.336316
0
0
0
0.502397
0
0.541024
0.3041
0.644054
1.1221
0.880526
0.304484
1.05031
1.07704
0.46118
0.561725
0
0.536102
0.631988
0
0.277522
0.636242
0.410379
0.415059
0.474095
0.713751
0
0
1.54447
0.220406
1.35868
0.709541
1.1152
0.306958
0.866402
0.77758
0.361826
0
0
0.512718
0.300999
0.603091
0.430038
0
0.818671
0.722159
1.10434
0
0
1.31653
0
0
0.165109
0.420915
0
2.61609
0.0831669
0.988546
0
0.90238
0.458985
0.702486
0.14821
0.456133
0.956008
0.391228
0
0
0.957567
0.494387
0.963075
0
0.444678
0
0.379682
0
0.811454
0
0
0.569289
1.16921
0.590738
1.05722
0.104506
0
0.501026
0
0.709937
0.737314
0.574652
1.05699
0.757293
0
0.432998
0.88456
0.585034
1.43152
0.956776
0.428313
2.60217
0.98056
0.316296
0.719446
1.0199
0.694565
0
0.469525
0
0.663191
0.679105
0.984772
0.778224
0.795119
1.84779
0.708909
1.08453
0.92903
0.348957
0.545892
0
0.443433
0.79738
0.648745
0
0.669146
0.350036
0.850453
0.511093
0.81877
0.193637
0
0.646216
1.27787
0
0
0.731602
0
0.786706
0
0
0.574559
0
0
0.976416
0.710352
0.971513
0.584109
0.525127
0.563302
0.296286
0.99145
0
0
0
0
0.736202
0.231099
0
0.889625
0.329347
0.729171
0.685365
0.457833
0.255454
0.675101
0.647492
0
0
0.493018
0.299781
0.594373
0.604144
0.151335
0.851708
0
0
0.802
0.726082
1.68153
0.419145
0
0.398246
0
0.489895
0
0.51585
1.4528
0.503285
0
0.801861
0.433318
0.650183
0.703723
0.696034
0.287535
0.52063
0
0.449586
1.04494
0.781061
0.422332
0
0
0
1.3669
0.592322
0.508706
1.12087
0
0
0.611682
0.4416
0.566013
1.18322
0
0.746658
0.519851
0.957006
0.368733
0.743262
0.416293
0.655608
0.262797
0.389317
0.453107
0.608888
0.848309
0
0.407112
0
0.83901
0.488669
0.44185
0.530709
1.33671
0.520661
0.635836
0.34241
0.279722
0.475211
0.459517
0.428198
0
0
0.248041
0.187245
0
0.831687
0
0.791999
0
0.612397
0.159392
0.261436
0
0.254496
0.328667
0.327415
0
0.334435
0.718049
0.292229
0.184269
0
0
0
0
0
0
0
0
0
0
0
0
0
0
0
0
0
0
0
0
0
0
0
0
0
0
0
0
0
0
0
0
0
0
0
0
0
0
0
0
0
0
0
0
0
0
0
0
0
0
0
0
0
0
0
0
0
0
0
0
0
0
0
0
0.39079
0.58986
0
0.477386
0.52821
0.110358
0.349583
0.779199
0.208103
0.520005
0
0.491725
0.394916
0
0.386836
0.93239
0.243942
0.717797
0.285471
0.445479
0.554936
1.87082
0.709101
1.46318
0.619571
0.604355
0
0.401299
0.625286
1.01898
0.490495
1.11271
1.47903
0.994368
0
0.22474
0.276334
0
0.770873
1.85524
0.531364
1.0147
0
0.781699
0.861706
0
0.810499
1.04762
0.869796
0.354093
0
1.01548
0.814824
0
0.793488
0.546981
0.255889
0.373963
0
0.169839
1.0917
0
0.303748
0
1.26389
0
0.671587
0.736285
1.12633
0.809271
2.32604
1.44364
0
1.05745
1.83104
1.12592
1.05501
0.376452
0.856548
0.890805
1.32449
0.535282
0.313346
1.09099
2.5915
0.995357
0.98541
1.04994
0
0.774787
0
0.528035
0.475676
0.249987
0.694581
1.529
0.327119
0.607578
0.411532
0.890166
1.10038
1.2033
1.59708
1.40212
1.16942
1.02434
0
0.554359
1.25743
0.454085
0.676296
0.253532
0.691237
0.138943
0.550521
0
0.748222
0.678253
0
0
0
0
0.677907
1.80173
0.742667
0
0.625935
0.420996
0
0.35492
0
0.94246
1.21206
0.662582
0
0.680485
0.195051
0.88337
0
0.549323
0.707359
0.773343
0.289055
0.784381
0
0.70696
0
0.580769
0
0.70551
0.512595
1.55291
0.45869
0.47913
0.411099
1.41876
0.865342
0
0.881014
1.17623
0
0.438668
0
1.27988
0.681462
0.964997
1.084
1.07643
0.975495
0.735719
0.667144
0
0.658243
0
0.435032
0
0
0.417405
0
0.860877
0.855522
1.12838
0
1.13797
0.820546
0.602286
0.297202
0
0.341497
0.532752
0
0
0.363173
0.387392
0.819021
0.838049
1.46646
0
0.793512
0.772642
0
0.765796
0
0.642299
0
0.613334
0.849278
0.471473
0.744091
0.503149
0.417654
0.848295
0.592089
0.962672
0.506279
0.785891
0.565225
0.349273
0.541876
0.804146
1.03576
0.613811
0
0
0
0
0.386243
0
0
0
0.385933
0.42052
0.622299
0
0.452921
0.564572
0.790585
0.30455
0.895064
0.78369
0.783776
1.01756
0
0.45496
0.515013
0
0.316926
0.716131
0.951304
1.00317
0.92405
0.660187
1.93368
0.500461
1.00786
0.631221
0
1.07563
0.840322
0.824593
1.1276
0.792418
0.605181
0
0
0.963885
0
1.02484
0.557057
0.755583
0.352685
1.30066
0.932558
0.623476
0.811168
1.27428
0
0.423969
0.618968
0
1.09033
1.07939
0.436308
0.551877
0
0.470541
0
0.543896
0
0.880791
0
0.61171
0.887466
0.686698
0.719082
0.574665
0.56498
0
0.242253
0.614798
0.802563
0.841364
0
0.417321
0
0.319515
0.739679
0.476896
0.397373
0
0
0.841518
0
0.477685
0
0.564182
0
0.358442
0.482885
0.572765
0.622662
0.364172
0
0
0.614679
0
0.549307
1.20279
0.803636
0.512736
0
0.454663
1.27494
0.750476
0.400494
0.660522
0.495933
0.48623
0.591864
0.20008
0.616037
0
0.383569
0.34958
0.486151
0.211259
0
0.650503
1.60372
0.681918
0
0.890693
0
0.513978
0
1.20439
0.899275
0.348349
0
0.696354
0.555325
0.73302
0
0
0
0.435906
0.204834
0.654573
1.8955
0.643242
0.424357
0
1.08197
0
0.514209
0
0
0.756506
0.572955
0.674806
0.429149
0.855775
0
0.700084
0.984018
0.238678
0
0.286921
0.19779
1.08662
0
0.353942
0
0.591393
1.06914
0.463611
0.562993
0.512914
0.574303
0.486514
0.438751
0.374464
0.512759
0.290417
0.519682
0.479272
0.363955
0
0.502502
0
0.760313
1.92814
0.751481
1.15254
0
1.29753
0.41256
0.686581
0
0.682735
0
0
0.66216
1.44595
0.678025
0.602976
0.546164
0.27799
0.682747
0.442202
0.49268
0.648149
0
0.486165
0.607182
0
0
0.354242
1.35746
0.418715
0.714696
1.08865
0.405217
0.918237
0
0
0.555913
0.565426
1.03934
0
0.869221
0
0.282974
1.12321
0.39986
0.249637
0
0.437708
0.231625
0
1.06914
0.230841
0.923001
0
0.513663
0
0.3839
0
0
1.96996
0.192036
0.870494
1.14944
0.265363
0
0.702443
0.408504
1.15119
0
0
0.24131
0
0.480863
0.940653
0.712589
0.750547
0
0.503759
0
0
0.522097
0
0.378303
1.1516
0
0.620759
0.280673
0
1.05837
0
0.527565
0
1.06763
0
0.533181
1.77813
0.859515
0.189539
0.547269
0.320972
0.314212
0.307794
0.706697
0
1.4647
3.13102
1.57525
0.511993
0.792606
0.980787
0.566081
0.38843
0.562389
1.71612
0.230173
0.134989
0.441896
0
0.568262
0
0.576074
0
1.29633
0.491009
0.742527
0
0.600446
0
1.05636
0.413025
0
0.478816
0.547405
0.869816
0
0
2.67814
3.37226
0.62617
0.674479
0.325732
1.33097
1.08807
0.86317
0.261176
0.495752
0.405253
0.780014
0.502798
0
0.920028
0
0.103097
1.13582
0.657099
0
0
0.632182
0
0.522375
0
0.634904
0
0
0.705572
0
0
0.402768
0.349626
0.936106
0.728178
0.647979
1.13692
0.429587
0.272792
0.381862
1.11359
0.667532
1.68404
0.606736
0.850688
0.341808
0
0.442835
0
1.0475
1.24524
0.700782
0.56874
0
1.83022
1.14063
0
0
0.830853
0.548834
0.710199
0.352519
1.13511
0.686267
0
0
1.18507
0
0.77918
0
0.691179
0.611424
1.43541
0.246545
1.05549
0.653811
0.579776
0.516507
1.73585
0.445845
0.214347
0.940203
1.32489
0.924018
1.00969
0
0.681917
0.673048
0.655938
0.424672
0
0.246963
1.44202
0.481725
0.986357
0.829132
0.979835
0
0
1.06922
0.211515
0.582365
0
0.573697
0.471545
0.314956
0.445519
0.584133
1.26431
0
0.156154
0.258474
0.318432
0.926431
0.805217
0
0.583261
0.590804
1.33536
0.391238
0
0.437339
0.530315
1.20174
0
0.591676
0
0.452965
0.508198
0
0.468581
0
0.655825
0.664216
0.624758
0
1.10534
0.495651
0.835684
0.254502
0.51465
0.725343
0.787601
0.42019
0.900008
0
0
0.673932
0.389466
0.422684
0
0.413451
0
0.811522
0.181489
0.506401
0.341676
0.362151
0
0.119226
0.596564
0.691002
0
0.954185
0
1.57291
0
0
0.755068
0.277986
0.666239
1.45041
0.919537
0.881866
0
0.440311
0.343902
0.855149
1.05109
0
1.12948
0.592206
1.28988
0.906495
1.29443
0
0.595689
0.461733
0.416722
0.589146
0.889276
0
0.27126
0.258625
0.686415
0.757106
1.22032
0.473954
0.157957
0.412653
0
1.05719
0
0.844991
0
0.720946
1.7399
0
1.15189
0
0.9755
0.496857
1.50053
0.866332
0.379804
0.271106
0.526026
0.347022
0.397483
0.753061
0
2.02154
0
0
0.764377
0.68109
0.905625
0
0.738486
0.955204
0.794902
0.596829
1.26137
0.715331
0.790135
0.769435
0.542514
1.25168
0.881958
1.52963
0.531679
0
0.66609
0.521347
0.460938
0
0.536645
0.884916
0.817346
0
0.413393
0.191297
0.687549
0.693993
0.173849
0.112014
1.23709
0
0.533998
0
0.542349
0.966489
0.208868
0.531125
0.888666
0.532238
0.103597
0.55365
0.444211
0
0.664457
0
0
0.508867
1.24691
0
0
0
0.378769
0
0.924301
0
0.677444
1.47197
0.832193
0.777128
0
0.461016
0
1.09331
1.39003
0.53965
0
0.401975
0.441927
0
0.673311
0.511227
0.902653
0.516773
0
0.61104
0
0
0.580207
0.455849
0.469385
1.25677
0.472803
0.98694
0
0
0.276293
0.510474
0.452502
0.605782
0.0604569
0.433833
0.504472
0
0
0
0.663247
0
0
0.934949
0.584993
0.686819
0.902894
0.810187
0.432939
0.252846
0.882092
0
0.329546
0.288535
0
0.747597
0.491869
0.394735
0.424688
0.449644
0.732854
1.22862
1.13497
0.50346
0.534747
0.842853
1.02104
0.133927
0
0.628039
0.64246
0.832107
0.816021
0
1.10919
0
0.520065
0.252396
0.529675
0.698273
0.608158
0.459521
0
0.671371
0
0.342335
0
0
0
0
0.828818
0.125669
0.959225
1.18118
0
0.378091
0
0.387574
0
0
0
0.729369
0
0.586466
0
0.629794
0
0.393421
0.495614
0
0.377698
0.222234
0.514502
0
0.371743
0.67201
0
0.370633
0.55938
0.699686
0.729373
0.592758
3.13651
0.564859
0.560541
1.06926
0.401296
0.361979
0.690025
0.62985
0.265138
0.523413
0
0
0
0
0
0
0
0
0
0
0
0
0
0
0
0
0
0
0
0
0
0
0
0
0
0
0
0
0
0
0
0
0
0
0
0
0
0
0
0
0
0
0
0
0
0
0
0
0
0
0
0
0
0
0
0
0
0
0
0
0
0
0
0
0
0
0
1.05858
0
0
1.57215
0
0
0
0
0
1.2921
0
0
0.98441
1.18358
0
0
0
0.669874
0
0.965298
0
0
1.05637
0
1.05328
0
0
0
0
0
0
0
1.23388
0
0
0
0
0
0
0
0
1.02385
0
0
0.671955
0
0
0
0.735513
0
0
0
0
0
0
0
1.24827
0
0
0.5598
0
1.01565
1.14744
0.639892
1.0048
0.849118
0.886968
0.737419
0.837484
0.498144
1.19731
0.776384
1.46678
0.192431
0
0.705156
1.23662
2.13867
0.542124
0
1.41182
0.580107
0.779107
0
1.44002
1.34976
0.43844
0.2182
0.591978
0
1.4654
0.980967
0.459102
0
0
0
1.09047
1.40973
0.551645
0.79088
0
0
1.18748
0
0.902569
0.520408
0.453891
0.593387
0.529597
0.870163
0.540945
1.36665
0.859561
0
1.67606
1.36974
0
0.854077
0
0
0
0
0.591458
0.576392
0.313792
0.861016
0.345855
1.01691
1.1521
0.319646
0.571366
0.583429
0.868064
0
1.49125
2.6519
0.572133
0
0.296826
0.409393
0
1.35268
0.642375
0.585197
0
0.720271
2.53252
0.849123
0
0
0
1.33863
0.559315
0.40135
0.953016
0.877323
0.721872
0.812214
0.851378
1.32404
0.645706
0
0.682724
0.452
0
0
0.968489
0.533549
0.808481
0
0
0.934355
0
0.337437
0
0.491677
0.659997
0.682738
0.417425
0.651774
0
0.295169
0
0.920643
0.537054
0.428709
1.0371
0.989473
0.7551
0.865924
0.764683
1.61014
0.42186
0.931839
1.24924
0.488761
0
0.599882
0
0.844417
0.297309
0.683247
0
0.424475
0.454223
0.849024
0.36695
0.170466
0.84786
0.3169
0
3.8812
3.57249
0.937795
0
0
0.944724
0.308905
0
0
0.336358
0.353128
0
0.548928
0
0.487542
1.65116
0.354602
0.515861
0.413802
0.392022
0
0
0.733562
1.39882
0.791732
0.846176
0
0.546051
0.715765
0.138718
0
1.01248
1.60056
1.24491
0.850169
0.724263
0.513705
0.967185
0
0.570631
0.477481
0.561812
0.428673
0.802955
0.30622
0.525728
0.915808
0.444162
1.03817
0.33736
0
0.685863
0.690953
0.230588
0
0.81831
1.20875
0.497074
0.639883
1.73007
0.572822
0.440201
0.524439
0.431544
1.39905
0.781844
0.989053
0.428168
0.634137
0
0
0.985718
1.08246
0
0.713427
0.205763
0.416638
0
0.14745
0.494193
1.01089
0.460197
0.654144
0.801091
0
0
0.836472
0.355633
0.930531
0.823653
0.419915
0.189489
0.440399
0.54281
0
0.468015
0.568788
0.599243
0
1.0166
0
0.583622
0
0.946384
0
1.20116
0
0.596669
0
0.42261
0.912988
0.998168
0.180409
0.532785
1.02258
0.614317
0.58699
0.921988
0
0.530056
0
0.390559
0.743896
0.404629
1.0578
0
0.493602
0
0
0.500131
0.424354
0
1.11306
0.613552
0
0.466221
0.0930635
0.302408
0
0.698649
0
0.715537
0
0.652197
0
0.392737
0
0
0.886546
0.690667
0.723028
0.744799
0
0.623491
0.441562
0
0.5149
0
0.985458
1.31137
0.549663
0.577272
0.342323
0.32865
0
0.55036
0
0
0.844105
0
0.582186
0.743244
0.497525
0.693335
0.818388
0
0.442664
0.963759
1.12028
0.67845
1.25564
0.929081
0.730131
0
0.720078
0.310649
0.115001
0.589205
0
0.638957
0.472162
0
0
0.44658
0.730606
0.774294
0.248685
0.696382
0.642996
0.59103
0.453279
0.670009
0
0
0
0
0
0.281131
0.200237
0.569392
0
0.630071
0.596296
0.532922
0.862074
0.895381
0
0.368576
0.507058
0.517496
0
0.674909
0.731669
0.524937
0.802278
1.15541
0.651396
0
0.370956
1.11397
0.446523
0.239333
0.310888
0.767898
0.434026
0
0.500812
0.482058
1.22981
0.58433
0.535764
0.363987
0.531668
1.1421
0.880076
0.531715
0.255618
0.0728591
0.600251
0
0.584476
0.190319
0
0
0.264863
0.633769
0.56455
0.869477
1.52514
0.685181
0.788296
0
1.16183
0.678261
0.694451
0.416858
0.539835
1.00978
0
0.250118
1.75202
2.16022
0.531908
0.468042
0.611858
0.445047
0.436091
0.473141
0
0.37204
0.597236
0.641312
1.08992
0.622043
0.158153
0
0
0.439626
0
0.658402
1.09055
0
1.26863
0.955689
0.792819
1.17495
0.583689
0
1.0684
0
1.29975
0.909963
0
0.318384
0
0.720968
0
0.294663
0
0.606563
0.853452
0.588682
0.244924
0.730531
0
1.09602
0.413775
0.494441
0
0
0.770312
0.268085
0.789645
0
0.458941
0
0.782122
0
0.723561
0.661399
0.731039
0
1.21916
1.09676
0.660929
0.660255
0.760833
0.728749
0
0.225128
0.597803
0.570306
1.26736
1.12784
0.272631
0.503321
0.325232
0
0.649876
1.08727
0
0.588829
0.418765
0
0.241583
0.484732
0
0.655348
0.470632
0.84384
0.72392
0
0
0.6348
0
0.287907
0.528458
1.00724
0.366223
0.633434
0
0.421603
0
0.59264
0
0.921982
0.825239
0.635198
0.608754
0
0.468327
0.688521
1.38485
0
0
0.562653
1.19923
0.299005
0.517661
0.273172
0.615135
0.3931
0.681494
0.790975
0.781885
1.84299
0.961181
0.349857
0.67838
0
0.574898
1.01621
0.583813
0
0.432126
0
0.787445
0
0.245276
0.323343
0.329451
0.631624
0.524358
1.14522
0.506942
0.779775
0.621713
0.487806
0.557737
0
1.23194
0.732507
0.971124
0.322791
1.53313
0.472882
0.699997
0.19251
0.6987
1.18872
2.56796
0.81581
0.806328
0
0.489797
0.338643
0
0.415481
0.67796
0.902369
0
0.412387
0.564607
0.199442
0
0.557857
0.443477
0.779317
0.638073
0.665451
0.430267
0.222334
1.02502
0.344814
0
0.687072
0
0
0.363233
0.467555
0.183037
1.03807
0.202646
0.328099
0.669317
0.695139
0
0.36473
1.29023
0
0
0.677455
0
0
0
0.273492
0
0.743769
0
0.492526
0.770302
0.411334
0
0.441412
0
0
0
0.754544
0.353902
0.299622
0
1.10773
0.20045
0.358802
0
0.470646
0
0.532978
0
0.392715
0.0369257
0
0.441516
1.40955
0.350862
0
0.74508
0.411494
0.662816
0.763098
0.995268
0.776729
0
0
0.670394
0.59614
1.24718
0
0.952951
0.46148
0.101742
0.271208
0.173
0.829613
0.572925
1.18773
0
1.12697
1.07665
1.18803
0.77222
0.566265
1.27684
1.07328
2.55012
0.3422
0.744615
0
0.445257
0.456526
0.604701
0.424615
0
1.64323
1.62452
1.07604
0
0
0.513344
0
0.565333
0.276292
0.751095
0.172366
0.370085
1.16417
0.418323
0.62575
0.391081
0
1.56684
1.10693
0.26248
0.639401
0.958916
0.658691
0.421361
0.268988
1.38669
0.930656
0.582984
0.0924906
0.370248
0.304149
0.241885
0.425285
0.590444
0
0.743732
0
0
1.17141
0.638866
1.01221
2.25129
1.07886
0.565461
0.851968
0.539597
0
0.959501
0.568149
0.613035
0.807988
0.562863
0.406497
0
0.515949
0.98528
0
1.0918
1.08723
0
0
0.527206
0.538929
0.212019
0.680113
0
0.424097
0.61491
0.533301
0
0
0.922211
0
0.375988
0
0
0
1.2597
0.835049
0.560999
0
0.656707
0.437451
0.516316
0
0.331679
0.282191
0.688637
0.651691
0.798476
0.667895
0.647817
0.839339
0
0
0.616362
0.309492
0.613337
1.4856
0.517029
1.02323
0.464411
0.75122
0.667092
0
0.271033
0.169406
0
0.493976
1.26332
0.358807
0.883004
0.197815
0.980265
0.590897
0.369506
0.388469
0.568037
0.595
0.486514
0.453745
0.664215
0.550783
0.392366
0
0.310746
0.553849
0.324992
0.487836
0.747979
0
0
0.678976
0.56493
0.65391
0.550609
0.799716
0.944534
0.331231
0.918321
0.547576
0.553224
0.986095
1.70455
0.233225
0.59263
0
0.218803
0
0.809644
0.686809
0.440806
0
0.448183
0.350004
0.575342
0
0.390737
0.412797
0.531862
0.58352
0.794023
1.16764
0.559889
0
0.406733
0.734056
0.342741
0.66259
0
0.916185
0.449706
0.944091
0.43843
1.93558
0.488216
0.622145
0
1.31284
0.255623
0.249801
0
0.218992
0
0.441922
0.219709
0.221828
0
0.317754
0
0
0.860834
0
0.569335
0.480673
0.439762
1.16691
0.842296
0.179809
0.370431
0.50664
0.529737
0.466175
0
0
0
0
0
0
0
0
0
0
0
0
0
0
0
0
0
0
0
0
0
0
0
0
0
0
0
0
0
0
0
0
0
0
0
0
0
0
0
0
0
0
0
0
0
0
0
0
0
0
0
0
0
0
0
0
0
0
0
0
0
0
0
0
0.269088
0.353188
0
0.589246
0.463538
0
0.443087
1.28955
0.24341
0.488609
0
0.421157
0.72936
1.10085
0.457817
1.22972
0.368652
0.491754
1.33418
0.741366
0.457094
0.972354
0.602871
0.988651
0.167305
0.59775
1.3317
0.507088
0.882024
1.71257
0.492385
0.879041
0.304886
0.490241
0
0.611096
0.98531
0
0.334349
0.901345
0
0.594015
3.39167
0.882644
0.710284
0
1.08872
1.29596
0.436143
1.1004
0
0.818819
0.739155
1.11273
0.540122
1.9113
1.00365
0.228169
0.717037
0.711259
0.455592
0.780988
0.472515
0.796918
1.16851
0.621506
0
1.8394
1.1341
0.697463
0.761568
0
1.60525
1.41939
1.18594
1.34131
0.638676
0.7098
0.584582
0.352984
1.05883
0.936167
0.572958
0
0.560417
0.598906
0.674234
1.48831
1.18574
0.670289
1.00575
0.819758
0.91453
0.800872
1.29557
0.802967
0
0.572293
0.618315
0.95276
0.934121
0.647761
0.425435
0.651268
0.555324
0.676769
2.17336
0.408798
0
0.512873
0.363751
1.05116
1.63374
0
0.623828
0
0.864653
0
0
0
0
0.0462304
0.48036
0.558985
0
1.50442
0
0.454614
0.511702
1.72397
1.35454
0.479665
0
0.480786
0.576019
0.971419
0.669187
0.890803
1.14547
0
0.954083
1.0204
0.653623
0.408146
1.05858
0
1.00986
0.563449
0.506485
0
0.699637
0.958103
0.606634
1.4475
1.24268
0.219117
0
0.200428
0
1.36447
0.68871
0.988753
0
0.67557
0.798867
0.770964
0
0.933833
0
1.10571
0
0.650595
0.347129
1.31752
0.171009
0
0
0
0.600496
0
0
0
0
0.668543
0.45181
0.341619
0.75413
0
0
0.596308
0.787659
1.71268
2.39428
0
1.0258
0.658073
0.885496
0.372185
0.701884
1.05654
0.808129
0
0.809428
1.20947
0.678498
0.249974
0.282984
0.69386
1.79372
0.101372
0.402961
0
0
0.61787
0.177174
0
1.16245
0.275384
2.13363
0.447795
1.50688
0.662124
0.967159
0.839039
0
0.998102
0.948248
0
0
1.63828
0.719357
0.612749
0.288497
0.418214
0.467749
0.845895
0.58935
1.13077
0
0
0.410427
0
0.616949
0.384077
0.731626
0
0.85408
0.958017
0
0.762502
1.57329
0.363258
0.684371
1.05375
0.852241
0.597144
0
0.650947
0.64671
1.06296
0
1.0899
0
2.10049
0.96037
0.164363
0
0.499383
0.216232
1.10532
0
0.848999
0.610554
1.47053
0
0.481469
0.828339
1.75978
0.45761
1.41862
0
0.201409
0
0.355702
0.648375
0
0.496496
0.976219
0.302877
0.467245
1.53958
1.11402
1.0104
0
0.399137
0.488765
0
0.570284
0.869948
0.308498
0.500524
0.305361
1.11597
0
0.492243
0.808281
0.762061
0
0
0.740338
1.22595
0.633829
0.530802
1.01331
0.857992
0.791772
1.52077
0.421039
0
0
0.624719
0
0.701256
0.634719
0
0.393582
0
0.779063
0
0
0
1.00616
0.456026
0.886538
0
0.650311
0
0.372501
0.504784
0.482293
0.475207
0.452046
0.264647
0
0.407307
0
0.593766
0
0.171789
0.77456
0.587153
0
0
0.555723
0
0.512572
0.704144
0.378394
0.442246
0.938123
0.443503
0.508258
0.627758
0
0
0.582349
0.252741
0
0.490061
0.397386
0
0.324303
0
0.603966
0
0.338415
0.438182
0
0.647712
0.664309
0.576375
0.424459
0.572435
0.54014
0.364982
0.702331
0.618442
0
0.625917
1.46105
0.771802
0.659657
0.539574
1.13862
1.32234
0.892864
0.45879
0.810636
0.483829
0.368714
0.35619
0.783491
0.770043
0.719463
0.294007
0.697968
0
0.585024
0
0.579924
0.380253
0.700175
0.517871
1.36645
0.525089
0
0.405034
0
0.548358
0.693778
0.364476
0
0
0.530228
0
1.08694
1.43362
0.860384
0
0.497881
0.192115
0.540306
0
0.53402
0
1.05822
0
0.452334
1.09977
0.749302
0.317662
0.703206
0.446058
0.466884
0
0
0.645998
0.500784
1.07687
1.81472
0.803778
0.817743
0.680149
1.58228
1.18656
0
0.547733
1.68091
0.477204
0.426322
0
0.531324
0
2.19162
0
0.399525
0.35892
0.51416
0.310902
0
0.813228
0
0.864213
0
0.993883
0.621572
0.647999
0.273766
0.8421
0.370597
1.32379
0.181039
0.639372
0
0
0
0.598612
0.40425
1.00903
0.26501
0
0.450555
0.510457
0.956647
1.21229
0.836885
0.871907
0.470904
0.759617
0.711995
0.520012
0
0.683018
0.668781
1.08101
0.399892
0
0.644899
0
0
1.20976
0.400327
0.6948
0.654916
2.18275
1.54679
1.01261
0.424133
0
0.814351
0.331657
0.387259
0.899428
0.471925
0.324305
0.238651
0
0.64827
0.507477
0.451322
0
0
0.67443
0.987625
0.529256
0
0.543763
0.806132
0.601882
0
0
0.081326
1.54625
0.854133
0.728042
0
1.26939
1.30178
0.799145
0.666558
0.166285
0.347713
0.433392
0
0.626565
0.761394
0.676449
0.837234
0.700373
1.8834
1.10801
0.192502
0
0
0.589031
0.829935
0.913531
0.65994
0.400853
0
0.444579
0.451807
0
0.932808
0
0.869004
1.02347
0
0.489493
0
1.2639
0.773059
0.408698
0
0.567599
0.88161
0.88585
0.769527
0.832297
0.185062
1.01213
0
0.480835
0.413345
0.369095
0.643966
0
0.49935
0
0
0
0.638753
0
0
0.688944
0.638518
0.599224
0.799873
0.398596
1.21513
2.79267
0.622999
0
0.636096
0.576044
0
0
0
0.648454
0
0
0.55737
0.474344
0.417845
0
0.548488
1.24828
0.457869
1.14043
0.558613
0.445934
0.202278
0.526012
1.14597
0.728065
0
0
0.675547
0.633184
0
0.819511
0.696914
0.58702
0.744323
0.748304
0.926796
1.05774
0.407
0
0.975374
0.701667
0.300593
0.253631
0.487718
0.484425
0.821876
0
0.342674
0.488601
0.725451
0.226768
0.722844
0.787443
0.561029
0.629889
0.377497
1.97105
0.343807
0
0.519186
0.646038
0.64582
0.888828
1.25468
0.421555
0.504848
0.289525
0.449841
1.18505
0.392367
0
0.91082
0.472043
0.516292
0
0
0.681045
0
0.861794
0
0.533253
0
0.570779
0.833534
0
0.773031
0
0.886754
0
0.647771
0.658664
0.48323
0.477108
0.872461
0.85616
0.707076
0
0.430148
0.661682
0.752017
0.590312
1.30915
1.14913
0.549215
0
0.296764
0.178734
0
0
0.484186
0
0.666394
0.600509
0.236267
1.30709
1.57936
0
0.559642
0
0.209477
0.605218
0
0.681215
0
0.74002
0.221183
0.947418
0.476893
0.529594
0.726468
0.549394
0.361344
0.717728
1.07421
0
0.275103
0
0.408574
0
0.0651456
0
0.455311
0.592804
0.702117
1.2751
0
0
0.655043
1.65725
0.317265
0.62335
0.31038
0
0.591811
0.609964
0
0.502231
0.87131
0.812057
1.12519
1.47477
0.877564
0.583392
0.451642
0.265944
0.823046
0.35609
0.531278
0.641595
0.647634
0.292904
1.13613
0.952983
0.962188
0.678693
0.543509
0.295464
0
0.500492
0
0.924434
0.29309
0.287336
0.845116
0.263161
0.547361
0.791606
0.458115
1.08057
0.667275
0
0.603748
0.354695
0.447479
0.486508
0.754757
0.441559
0.701777
0
0
0.491215
0.571108
0
0
1.55571
0.677669
0.629769
0.618012
0.479086
0.587298
0
0.649596
0
0
0
0
0.499335
0.276796
0
0.468508
1.10004
1.08373
1.05159
1.34329
0.883782
0
0.255051
0
0.550862
0.270846
0.411796
0.275348
0.712283
0.468075
1.08171
0.584976
0.64248
0
0
0.314013
0.296825
0.491823
0
0
0.735836
0.75311
0.296161
0.508233
0
0
0.402871
0
0.327043
0.816595
0.679125
0
0.679171
0.498335
0.516627
0.466539
1.11816
0
0.517846
0.125948
0.346407
0.339455
0.536403
0
0
0.639049
0.873233
0.341592
0.567887
1.41606
0.473297
0.385635
0.390151
0
0.403125
0
1.16073
0
0.437324
0.467666
0.909993
0.626052
0
0.343413
0
0.566804
0.846481
0.535519
0
0
0.369789
0.537535
0.414758
0
0.406367
0
0.269874
0
0.710333
0.418301
0.868612
0
0
0
1.15186
0.630621
0.35762
0.525609
0
0
0.401183
0.484563
0
0.512516
0.177456
0.219383
0.23294
0.185334
0
0.384435
0.381055
0.639079
0
0
0.449761
0.330206
0.265147
0.148651
0
0.625651
0.0600562
0.498712
0.441603
0.740207
0.382212
0.208273
0.512693
0.291555
0.447781
0.664049
0.543794
0.504416
0.572388
0
0.58218
0.324
0
0
0
0
0
0
0
0
0
0
0
0
0
0
0
0
0
0
0
0
0
0
0
0
0
0
0
0
0
0
0
0
0
0
0
0
0
0
0
0
0
0
0
0
0
0
0
0
0
0
0
0
0
0
0
0
0
0
0
0
0
0
0
0
0.216436
0.443887
2.07957
0.420715
0.884604
3.97928
0.431808
1.32948
0.475795
0.406686
0.589326
0.630042
0.490962
0
0.681474
1.44847
0.335131
0.51988
0.56946
0.537606
0.43418
0.984187
0.408988
0.520623
0.219667
0.575141
1.00998
0.571432
0.528023
0
0.499559
0.796069
1.18344
0.192008
0
1.13436
0.339915
0.266695
1.51473
0.488673
0.158997
0.47732
0
0.662121
1.62337
0
0.602048
1.42662
2.22018
0.410655
0
0.75216
0.233842
0
0.535783
0.500844
0.241642
0.587874
0
0.319877
0.824558
0
0.125191
1.8512
0.460344
0.275679
0.397151
0.946454
0
0
1.36318
0.738763
0.87266
0.902368
1.04467
0.919294
2.25373
0.634006
0.56625
1.12159
1.07089
0
0.994302
1.02019
1.96322
0.383825
1.04109
0.689857
1.29579
1.19027
0
0
0.656561
0.531789
0.630072
0.399581
1.4933
0.425127
0
1.30703
0
0.629272
0
1.15694
0
0
0.542225
0.241374
0
0.414428
0.764572
2.45719
0
0
0.792962
0
1.24482
0
0.258848
0.74988
0
0.848657
0
1.37406
0.352362
1.5338
0.415221
0.405538
2.08021
0.792166
0.614597
1.05915
0
0.683531
3.61992
0.40678
0.979696
0.726759
0.915034
1.13906
0.897157
2.77592
0.903723
0.906188
0.761789
0.549212
0.72422
1.28983
1.28215
1.40308
0.433869
0
0
0.700664
0.430097
0.958764
1.17066
0.41236
0.687956