<?xml version="1.0"?>
<VTKFile type="RectilinearGrid">
<RectilinearGrid WholeExtent="0 32 0 32 0 32" Origin="0 0 0" Spacing="1 1 1">
<Piece Extent="0 32 0 32 0 32">
<PointData>
</PointData>
<Coordinates>
<DataArray type="Float32" format="ascii">
0 0.524874 1.04975 1.57462 2.0995 2.62437 3.14924 3.67412 4.19899 4.72386 5.24874 5.77361 6.29849 6.82336 7.34823 7.87311 8.39798 8.92285 9.44773 9.9726 10.4975 11.0224 11.5472 12.0721 12.597 13.1218 13.6467 14.1716 14.6965 15.2213 15.7462 16.2711 16.796 
</DataArray>
<DataArray type="Float32" format="ascii">
-5.03879 -3.62163 -2.20447 -0.787311 0.629849 2.04701 3.46417 4.88133 6.29849 7.71565 9.1328 10.55 11.9671 13.3843 14.8014 16.2186 17.6358 19.0529 20.4701 21.8872 23.3044 24.7216 26.1387 27.5559 28.973 30.3902 31.8074 33.2245 34.6417 36.0588 37.476 38.8931 40.3103 
</DataArray>
<DataArray type="Float32" format="ascii">
0 0.524874 1.04975 1.57462 2.0995 2.62437 3.14924 3.67412 4.19899 4.72386 5.24874 5.77361 6.29849 6.82336 7.34823 7.87311 8.39798 8.92285 9.44773 9.9726 10.4975 11.0224 11.5472 12.0721 12.597 13.1218 13.6467 14.1716 14.6965 15.2213 15.7462 16.2711 16.796 
</DataArray>
</Coordinates>
<CellData>
<DataArray type="Float32" Name="Scalar" format="ascii">
0
0
0
0
0
0
0
0
0
0
0
0
0
0
0
0
0
0
0
0
0
0
0
0
0
0
0
0
0
0
0
0
0
0
0
0
0
0
0
0
0
0
0
0
0
0
0
0
0
0
0
0
0
0
0
0
0
0
0
0
0
0
0
0
0.0869344
0.391373
0.707107
0.483806
0.372878
0
0.368416
1.14591
0.0939787
0.263023
0
0.53037
0.466332
0
0.320921
1.58779
0.323652
0.403163
0
0.361111
0.291161
0
0.640909
1.37592
0.162962
0.321315
0
0.331438
0.327021
0.473287
0.479975
0.826735
0.139845
0.468873
0
0.451995
0.86573
0
0.538556
1.33962
1.75583
0.31883
0
1.15246
0.176885
0
0.797834
0.586154
0.0725069
0.744775
0
0.188641
2.30195
0
0.156178
0
0
0.275562
0
0.514175
0.179212
0
1.06935
1.05022
1.16961
1.03645
1.84751
1.31865
1.00031
0.811919
0.489652
1.03187
0.944501
0
0.387299
0.84426
0.85095
1.06995
0
0
1.24171
1.34234
1.27583
0.644593
0.570705
0.64235
0.704178
0.910658
1.47748
0.695148
0.425703
1.15808
0.540246
0.693984
0.989663
0.588291
0.81442
0.921568
1.45152
0
0
1.63799
1.01522
0
0
0.435394
0.232559
0.823035
0.30132
0.399726
1.43559
0.592101
0.478337
0.55709
0.134046
0.756095
0.632905
0
2.59032
1.28829
0.736311
0.301245
1.47737
0.463328
1.49904
1.00117
0
0
0
0
0.875177
1.18246
0.699981
0
0.421774
0
0.843824
0
0
0.615793
0.646969
0
0.962942
0.88157
0.719186
0.642936
0.599183
0
0
0.887255
1.54792
0.467619
0.434977
0.330889
0.587382
0.49452
1.29817
0
0.633175
1.45415
0.817434
1.28398
1.3496
1.03364
0.621207
0
0.904686
0
0.570736
0
0.8427
0.983332
0.521478
0.382616
1.43905
0
0.414691
0.437982
0
0.64057
0.282323
0
0.722895
2.12622
0.48492
0.888932
0
0.654633
0
0.669623
1.35166
1.18771
0.637865
0.786915
1.13326
0
0
0.918862
1.40064
0.707967
1.05854
0.600424
0.622003
0
0
0.643419
2.10117
1.35995
0.923266
0
0.386862
0
0.533711
0.934725
0.535396
0
0.317896
0.622354
0.439026
1.44645
1.10139
0.369649
0.449551
0.351765
0.437838
0.76609
0.542585
0
0.632514
0.931973
0
0.828072
1.42351
0
0.707291
0.782593
0.472915
0
0.718548
1.04202
0.729278
0.202134
0.56671
0.453676
0.428417
0.695971
0.26269
0.342199
0.686735
0
0.575092
1.50769
1.27803
0.763349
0.305515
0.525869
0
0
0.857244
0.184509
0.814226
0.638236
0.369451
0.95361
0
0.977818
0.655661
0
0.407767
0.529398
0.557446
0
0.740579
0.621137
1.59383
0.963138
1.27971
1.24774
0
1.14935
0.446483
0.881865
0.281735
0.725605
0
0.329029
0.932396
0.43473
0.419357
0
0.57017
0
0
0.269769
1.38761
0
0.703882
1.16973
0
0.915675
1.30696
0.306627
0.417743
0.338976
0
0.862625
0.970256
1.16303
0.985885
1.31927
0.490005
1.30713
0.959775
1.02648
0
0.215481
0.32615
0.42143
0.77481
0
0.931233
0.559114
0.925507
0.85332
0
0.781857
0.444712
0.792931
0
1.05501
0.834794
1.221
0.240928
0.348168
0.152523
0
0.585438
1.12649
0.853337
0.224091
0.362733
0.585718
0
0.935093
1.34415
0.229897
0.705359
0
1.69427
0.166431
0.534384
0
0.651245
0
0.702891
0.696861
0
1.79211
1.51253
0.923428
0
0.558376
0
0.442831
0.258922
0.0759826
0
0
0.731657
0.340116
0.17595
0.707801
1.22751
0.822257
0.215277
0.357276
0.300903
0.995875
0.654806
0
0.837342
1.08744
0
0.471333
1.05984
0.287778
0.756107
0
0.974769
0
0.82747
0
0
1.16359
0.153321
0
1.02932
0.757902
0.824272
0
0.790515
0.31632
0.689392
0.858749
0
0
0.557173
0.548517
0.607258
0.860182
0.680635
0.58125
0.559063
0.837327
1.2537
0.946608
0
0.467042
0.202103
0.607394
0.422303
0.716411
0.559964
1.16252
0.719425
1.38117
0
0.831153
1.47747
0.827044
0.840332
0
0.181045
0.206779
0.360679
0.689841
0.340374
0.44429
0
0.377598
1.08391
0.529717
0
0.236481
0
0.482306
0
0.668126
0.714378
0.863077
0.424292
0
0.307556
0
0.409566
0
0
0.448113
0.821576
0.470331
0.115658
0
0.451122
0.681035
1.09742
0.570808
0.399279
0.31086
0.61978
0
0.927707
1.36123
0.807042
0
0.696874
0
0
0
0.87845
0
0
0.507913
0.130863
0.812763
0
0.646541
0
0.484927
0.401192
0.482452
0.387044
1.06714
1.03315
0
0.361567
0
0
0
0.994085
1.00397
0.809067
0.60814
0.739555
0.7386
0
0.863735
0
1.0639
0.719461
0.482278
0
0.385191
0.455287
0.21391
0.647395
0.220638
0.538972
0.4447
0.549578
0.785496
0.524331
0.263029
0.777517
0
0.636545
0
0.866934
1.2124
0.286997
0.390874
0
0.814466
1.45836
0.521559
0.6563
0.958497
0.620799
0.489068
0.344108
0.315392
0.613085
0.264175
0.799641
0.867565
0.608345
0
0
0.728099
0
0.738748
0
0.540565
0
0.613636
0.452044
1.28473
0
0.849612
0
0.807207
0.376235
1.07513
0
0.668414
1.25066
0
0
0.645783
0.352569
0.394974
0.44545
0.510477
0
0.483847
0.573254
0.52727
0.868494
0.35509
0
0.634018
0
0.226969
0.740743
0.431922
0.823783
1.48643
1.16098
0
0
1.41062
0
0.226803
0.383573
0.380198
0.624748
0.372182
0.661482
0.510218
0.866904
0.797386
0
0.744661
0.659542
0
0
0.552739
0
0.531428
0.53752
0.359397
0.631653
0.561143
0
0.827568
0.751849
0
0
1.13658
0
0.319082
0
0.573496
0.549507
0.394102
0
0
0.804122
0
0.716124
0
0.394922
0.58566
0.295613
0.437505
0.61172
0.493497
0.335425
0.995972
0.502468
0.228206
1.03906
0.101649
0
0.729023
0
0
0
1.18619
0.931883
0.413335
0
0.750601
0.302196
0.164126
0
0.614777
0
0
0.225996
0.276831
0
0
0.48871
0
0
0
0
0.430408
0.302301
0.512011
0.643467
0.528551
0.618758
0.442195
0
0.707126
0
0.980421
0
0
1.00849
0.921108
1.06569
0
0.594795
1.13516
0
0.45904
0.635144
0
0.438004
0.550341
1.02533
0
0.619231
0.391653
0.508141
0.543723
0.15623
0.257576
0.736766
0.415947
0.396232
0.55748
0.0788131
0.713159
0.792148
0.797088
0.519752
0
0.615122
0
0.540821
0
0.36502
0.256576
0.941186
0.778244
0.323672
0
0.920403
0
0.439194
0
0
0.485883
0.37463
0
0.398894
0.639383
0.803932
0
0.489695
0.84656
0
0.888107
0.394073
0
1.91212
1.27114
0
0.861364
0.648451
0.997742
0.448677
0.508395
0.471269
0
0
0.366282
0
0.49033
0.564144
1.09606
0.86163
0.532202
1.90761
0
0.466843
0
0.975158
0.553112
0.693496
0
0.465999
0
0.66562
0
0.695381
0.502434
0.265213
0
0.615283
0
0.888927
0
0.524162
0
1.27403
0.604786
1.17302
0.413914
0
0
0.652637
1.36727
0
0.382248
0
0.624355
0
0.649934
0.461632
0
0.252456
0
0.536285
0
1.17499
0
0
0.853957
0
0
1.19996
0
0
0.152013
0.762685
0.612079
0
0
0
0
0
0.917268
0.906154
0.599621
0.747316
0.412398
0.512668
0.375655
0
0
0.523594
0
0.548084
0.520519
0
0.338372
0
0.35754
0
1.80325
0
0.320459
0
1.06943
0
0.796434
0
0.585479
0
0.370755
0.766104
0.565069
1.16017
0.389955
1.11523
0
0.470147
0.252103
0.545815
0.478901
0.32403
0.662265
0.615697
0.669795
0.388287
2.55965
0.677749
0.754832
0.843316
0.378731
0.411208
1.02306
0.448553
0.403651
0.549601
0.222925
0
0.601594
0
0.803092
1.03262
0
0.502852
0
0.273054
0
0.412859
0
0.62204
0.316346
0
0.638118
1.81215
0.973635
0.66351
0.39712
0
0.589381
0
0.563652
0
0.489419
0.424356
0
0
0.360424
0
0.881195
0
0.481695
0
0.669365
0.500156
0
0.347863
0
0.540464
0.991523
0.4895
0.526855
0.666224
0.445107
0.364231
1.46584
0.276592
1.15334
0.371027
0.818926
0
0.0881378
1.13397
0.351104
0.533844
0.392492
0.568735
0.824019
0.491573
0
0.253479
0
0.652614
0.370521
0.440202
0.601843
0.915367
0.450024
0
0
1.12046
0.688183
0.554923
0.424533
0.617404
1.07062
0.41575
0.32164
0.296316
0
0.831133
0.654548
0.720716
0
0.410916
0.271878
0.599124
0
0
0
0
0
0
0
0
0
0
0
0
0
0
0
0
0
0
0
0
0
0
0
0
0
0
0
0
0
0
0
0
0
0
0
0
0
0
0
0
0
0
0
0
0
0
0
0
0
0
0
0
0
0
0
0
0
0
0
0
0
0
0
0
0
0.318564
0.511988
0
0.497526
0.633661
2.55839
0.713828
1.13555
0.585681
0.718281
2.33969
0.541345
0.605069
0
0.585897
0.758543
0.257807
0.783451
0.697913
0.812757
0.574702
0.663238
0.317421
0.927472
0.379909
0.37685
0
0.523591
0.427482
0
0.388609
0.773395
0.410254
0.252184
0
0.648647
0.652104
0.35227
2.23049
0.714177
0.266581
1.75547
0
0.35602
1.20002
0
0.592585
0
0.425217
0.634287
0
1.48645
0.464228
0
0.403153
1.03862
0.332119
1.17426
0
0.335369
1.68478
0
0.477996
0.720687
0.871347
0
1.3836
0.836105
0.545228
0.627834
0.445096
0
1.6246
1.65973
0.831798
0
0.573218
0.49956
0.476918
0.500074
0
0
0.991005
0
0
0
0.458656
0.422005
0
0.48289
1.36006
0.989011
0.64994
1.14548
1.31115
0.518467
0.644232
1.41816
1.04474
1.17978
1.2083
0
1.36958
0.736517
0.355681
0.973567
0
0.763408
0.609119
0.332221
0.684774
1.19239
0.924851
0.336131
0.397772
0.243334
0
0.717786
2.01629
0.532192
0.618184
0.578058
0.976664
2.55107
0.669232
0.65864
0
0.903252
1.36289
0.483127
0.675226
0.924826
0.256556
0
0
0.732448
0.35003
0.734371
0.602098
0.809501
0
0.692142
1.51732
0
0.606687
0.503186
0.588874
0.50765
0
0.683506
0
1.14624
0
0.609021
0.441855
1.41193
1.91091
0.803906
0
0.453925
1.03931
0
0.96845
0.418357
0.946691
0
1.02235
0
0.387138
0.75087
0.750814
0.616781
0.423398
0.480335
0.685427
0.590193
0.415248
1.65143
0.60349
0.527014
1.09349
0.958046
0
1.25097
0.983622
0.622834
0.54187
0.664999
0
0.749751
0
0.840473
0
0
0.928965
0.489793
0.852405
1.01568
1.21385
0.611546
0
0.433923
0.471823
0.51853
0.74633
0
0.335728
0.4208
0.678715
0.385192
0.586005
0.910932
0.199993
1.76388
0.233211
0.656527
0.796751
0.649805
0.968178
0
0.563037
0.91768
0.759586
0.475243
0.738102
0
1.35675
0.618566
0
0.718583
0.689395
0.52971
0.86954
0.635781
0.573091
0.359214
0.449323
0.634197
0.636953
1.02898
0.551143
0
0.918278
0.57774
0.725828
0.428071
0.726235
0
0.610118
0.515076
0.188314
0.228732
1.8952
0.454447
0
0.359606
0
0.380109
0
1.28582
0
0.785108
0.654189
0.298003
0.615339
0.463292
0.654154
0.626742
0.891751
0.211163
0.864292
0.936158
0.493766
0.226892
0
1.34795
0.693354
0
0.84701
0.401009
0
0.806945
0
0
0.714013
0.770552
1.40045
0.498299
0.736515
0
0.595822
0.726193
0.610964
0.56711
0.84555
0.107818
1.09193
0.857727
0.699951
0.15798
0.29712
0.898491
0
0.455269
0.640698
1.5497
0.479092
0.528621
0
1.43986
0.724776
0.203958
0.36874
0.330585
0.591689
0.408018
0.497516
0
0.543905
0
0.904824
1.04488
0
0
0.412824
0
0.520257
0
0
0.475608
0.475141
0.640192
0.593939
0.583908
0.795869
0.675718
0.640378
0
0.71662
0
0
0.925561
0.787587
0.689462
0
0
0.635558
0.415783
0.395669
0.441933
0.336208
0.455391
1.09005
0.487769
0
0
0.329494
0.658949
0.973287
0.461821
0
0.260245
0
0.406616
0
0
0.29694
0.572374
1.15777
0.824722
0
0
1.13602
0.739976
0.435053
0.652598
0
0.528602
0.996364
0.850175
0.92155
0.630896
0.64909
1.29
0.528643
0.336157
0.523849
0.395648
0.526278
0
0.623375
0.502324
0.313203
0.901042
0
0.0924657
0.990822
0.473791
1.4153
0.530133
0.75752
1.17015
0.926292
0.617203
2.53395
0.559592
1.29083
0.410515
0.678903
0.341835
0
1.83397
0
0
0.725482
0.461865
0.743314
0.636575
0.489427
0.560873
0.625052
0.128257
0.457721
0.801897
0.455079
0
0.501299
0.471968
0.373121
0.391097
1.07761
0.889589
0.686124
0.340503
0.774103
0.709511
0
0.38715
0
0.146145
0
0
0.473186
0.430578
0.683326
0
0.520087
0.434921
0.478718
0
0
0
0.661836
0
0.626108
0.374649
0.74584
0
0.314598
0.349792
0
0.384386
0
0.455492
0
0.526493
0
0.823939
0
0.777635
0.394774
0.401905
0.695808
0
0.52719
0.163226
0.6484
0
0.716689
0
0.810964
0
0.701186
0.480083
0.614083
0.796031
0.575371
0
0.469207
0
0
0.777799
0.561389
0.379518
0
0.47004
1.16238
0.452092
0.323629
0.807205
0.530832
0.572424
0.554146
0.422294
0
0.909501
0.618659
0.678706
0
0.626451
0.615374
0.700137
0.586971
0.666899
0.766433
0
0.867786
0.4833
0
0.364152
0
1.13242
0.921222
0
0.656773
0.59754
0.900964
1.31415
0.945981
0.963336
0.510785
0.754895
1.27398
0
0.452851
0.739743
0.368214
0.884094
0.23009
0.841245
0
0.210208
0.582974
0.488133
0.69432
0.482855
0.975434
0
0.626688
0.542199
0.330648
0
0.428369
0.511555
0.655771
0.962817
0.398028
0.38891
0.190661
0.275576
1.03013
0
0.164485
0.0840749
0.554911
0.625399
0.847733
1.06037
0.541084
0
0
1.37255
0.461092
0
1.21526
0.626345
0.657349
0.437376
0.741753
0
0
0.623478
0
0
0.125187
0.901364
0.93174
0.897854
0.851948
1.15912
0.805061
0.291964
0
0.48593
0
0.537271
0
0.73881
0.637763
0.375309
0.801547
0.931612
0
0.787358
0
0.602113
1.25887
0
0
0.996763
0
0.266449
0.581411
0.740573
0.687389
0
1.45544
0.924233
0.832353
0.659594
0.896643
0.647511
0
0.339667
0.4765
0.252815
0.470533
0.666645
0.636334
0.492455
0.913304
0.225333
0.663584
0.600786
0.665819
0
0.698472
1.2775
0
0.508567
0
0.445605
0
0
0.937985
0.227847
0.755506
0
0
0.753735
0.616254
1.28599
1.365
1.03314
0.831558
0.969706
0.77271
0.752835
0.627016
0.488592
1.01393
0.588913
0.956363
0.651928
0.261522
0.887803
0.612949
0.841103
0
0.433296
0
0
0
0.150703
0.660573
1.35135
0.90497
0
0.746762
0.357483
0.493761
0
0.458116
1.07545
1.05999
0.745773
0.427545
0.712921
0.995846
0.724404
0
1.63316
1.15634
1.05599
0
0.553483
0
0.83536
0.817357
0.0801871
0.438515
0
0.563083
0.416579
0.260242
0.53703
1.35608
0
0.53326
0.975799
0.457081
0.0965659
0
0
0.769397
0.866665
0.687523
0
0.658795
0.518924
0.698748
0.273095
0.504542
0.886028
0.803294
0.830734
0.688528
0.905688
0.970235
0
0
1.66443
0.673149
0.170246
0.369275
1.12817
0
0
0
0.526452
0.567071
0.942513
1.05186
0.431934
0.493444
1.08709
0.223551
0.380085
0
0.795313
0
1.36989
0
0.74383
1.04911
0.57766
1.16379
0.804086
0.589577
0.28043
0
0.212792
0
0.901028
0.686981
0.446404
0.502919
0
0.596332
0
0.586229
0
0.845442
0.829007
0.708314
0.1357
1.15284
0.823702
0.872403
0.362113
0.437663
0
1.23101
0.354677
0.232537
0.70303
0.29296
0.657609
1.01465
0.571966
0
0
0.914508
0
0.745353
0
0.422628
0.178259
0.907116
0
0
0
0.424293
0.285033
0.982693
0
0.982516
0.343587
0.540983
0
0.686768
0
0.70693
0.184318
0.546752
0.506968
1.01595
0.74168
0.392253
0.617394
0.435659
0.506539
0.12196
0.370282
0.429736
1.03558
2.28088
0.527619
0
0.450529
0
0.657413
0.461359
0.396081
0
0.348548
0
0.5445
0
1.03378
0.490145
1.38991
0.778024
2.52583
0
0.492697
0
0.637595
0.536442
0.746984
0.534861
0.845159
0.287468
0.6388
0.443903
0.40656
0
0.731255
0.405431
0.761381
1.25476
0.866981
0
0.49179
0.281971
0.263525
0.451744
0.261857
0
1.02513
0
2.26245
0.451229
1.5525
0.99624
0
0.659357
0
0.394689
0.283781
0.54326
0.902419
0.619284
0
0.603352
0.765435
0.406611
0.3941
0.362747
0.19749
0.815299
0.966806
0
0.397669
0
0.201797
0.341541
0
0
0.715513
0.276945
0.488142
0
0.114535
0.218467
0.702682
0.481217
0.285966
0
0
0.238703
0
0.634969
0.264845
0
0
0
0
0.403433
0.61749
0
0.437947
1.27077
0.824949
0
0
0.357353
0
0.822888
0.873612
0.52621
0.411286
1.99815
0.962227
0.277764
0.556075
0
0
1.08418
0.381271
0.412046
0.274434
0.430791
0.461312
0.108966
0.682388
0
0.438987
0.533381
1.41403
0.626827
0.965894
0.621211
1.34248
0.732014
0.188546
0.687759
0
0.41476
0.306056
0
0
0
0
0
0
0
0
0
0
0
0
0
0
0
0
0
0
0
0
0
0
0
0
0
0
0
0
0
0
0
0
0
0
0
0
0
0
0
0
0
0
0
0
0
0
0
0
0
0
0
0
0
0
0
0
0
0
0
0
0
0
0
0
0
0
0
0
0
0
0
0
0
0
0
0
0
0
1.07058
1.93796
1.799
1.13644
0
0
0
0
0.991606
0.574771
0.326621
0
0
0.572792
0
0
0.0994562
0
0
0
0
0
0
0
0
0
0
0.805419
0
0.420774
0
0
0
0
0
0
0
1.19976
0
0
0
0
0
0
0
0
0
0
0
0
0.529013
2.51316
2.33761
1.37865
1.67338
0.544912
0.367749
0
1.55087
1.19243
0
0.998337
0.577462
0.785108
0
0.744472
0.453796
0.671977
1.33924
0.896402
0.951097
1.22397
0
0.723466
0.756677
0.458425
0
0.44662
0.410089
0
0.890716
0.668572
0
1.06932
0
0.658903
0
1.49015
0.843318
0
0.437798
0.348399
0.781752
0.548717
0.938277
0
0
0
0.459402
0
0.878958
0.369456
0.285092
0
0
0.946854
0.68804
0
1.33417
0
0
0.762683
1.17998
0.486172
1.02696
0
0
1.44867
0.963347
0.672108
0.783761
0.492242
0
0.852275
0.842766
0.740934
0.866041
0
0
0.846331
0.610743
0.508896
0.910123
0
0
1.00832
0.478187
1.08461
0.947797
1.01408
1.46288
0
1.29004
0.740099
0.743513
0
0.534773
1.01446
0.958361
0
1.05842
0.683916
1.05779
0.269682
0.657476
0
1.10216
0.492911
0
0.511215
0
0.801672
0.885159
0.596567
0
1.1299
0.665659
0.702503
1.25705
0.760583
0.624724
0.709156
0.389347
0.80797
0.631292
0.600679
0.533947
0.904326
0.560922
0
0.861406
0
0.385798
0.505519
0.704735
0.677723
1.51096
2.90262
0.782699
0.678
0
0.684792
0.925339
0.284393
1.04737
0.326942
0.272655
1.59507
0.980699
0.381241
0.492457
0.749476
0
0.529753
0.301543
0.417533
0.441299
0
0.638819
0.0742381
0.947041
0.71637
1.189
0
0.552187
0.513022
0
0.469486
0
0.536102
0.634819
0
0.896095
0.573636
0.748969
0.388262
0
0
0.354498
0
0
0.507554
0.700242
1.2616
0.250424
0
0
0.388694
0
1.11317
0
1.08017
0.361777
0.6786
0.139923
0.947945
2.39691
0.823119
0.775533
0.781068
0.28517
0.540699
0
0
0.57526
1.52907
1.5696
0.433605
0.376163
0.443875
0.676043
0.865947
0.60253
0
0
0
0.523194
0
0.220735
0.559978
0
0.754627
0
0.92862
0.140111
0.755228
0.534033
0.425646
0
0.208346
0
0.852222
0.744967
1.26988
1.40365
1.50438
0.552314
0
1.11636
0.731331
0.459946
0.466005
0.934842
0
0.549152
0.788308
0
0.753635
0.701561
0.570414
0
0.441882
0
0.524852
0
1.35011
0.729128
0.569628
1.0577
0
0
0.560716
0
0.464259
0.845783
0.604513
1.29126
0
0
0.824908
0.403017
0.768131
0.687504
1.56807
0.817339
0.788218
0.822418
0.37161
0
0.731101
0
0
0.855104
0.412664
0.52101
0.545745
0.349815
0.322888
0.307434
0.654694
0.553994
0
0.358258
0
0.973293
0.955475
0.485327
0.613231
0.87671
0.931201
0.311766
0.714351
0
0
0.695059
0.718527
0.843386
0.607533
1.02881
1.09452
0
0
0
0
0.388158
0.770729
1.14332
0.723893
0.642607
1.09774
0.790178
1.45556
0.550943
0.46618
0.508407
1.04107
0
0
0
1.25637
1.00115
0
0
0.785522
0.598675
0
0
0.419047
0.310973
0
0.826968
0.484293
0
0.873009
0.753227
0.154398
1.24718
1.68003
0.562636
0
0.655643
0.231967
0.376203
0.475925
0.558148
0
0.65338
0.997691
0.708325
0
0
0.378943
0
0
0.10377
0.295814
1.15179
1.1169
0
0.380783
0
0.528696
0.768422
0
0.87402
0.310954
0
0.206235
0.0454395
0.463273
0.540353
0
0.504882
1.32293
0.595439
0
0.43151
0.374695
0
0.81338
0.777858
0
0
0
0.757184
0.571591
0.413292
0.36153
1.21503
0
0
0.310556
0
1.14914
0
0.820094
0
0.650498
0.398476
0.330411
0.668524
0.462506
0
0.580586
0.491159
0
0.656641
0.818663
0.500984
0
0.895675
0.793691
0.36857
0
0.682209
0.656576
0.57895
0
0.194356
0
0.812348
0
0
0
0.577446
1.60394
0.923134
0.381128
0
0.653219
0.162488
0.333876
2.0751
0.782055
0.451002
0.583042
0.622229
0.557855
0.441257
0.74573
0
0.31083
0.662753
0.232738
0
0
0
0
0.327949
0.707303
0
0
0.392613
1.03977
0.733282
0.794995
0.755115
0.435687
1.06593
0.717839
0.364741
0.54278
0
0.614651
0.619687
0
0.399126
0
0
0.525062
1.45503
0
0.469586
1.39131
0.829165
0.584922
0.797019
0.752292
0.321382
0
0.635361
0
0.695586
0
0
0
1.44293
0.685071
0
0
0.423406
0
0.805431
0.963773
0.592095
1.08488
0.870932
0.152762
0.447429
0.710789
0.281275
1.08205
0.380631
0
0.591523
0.980562
1.78946
0.465166
0
0.332113
0.107414
0.166926
0.633646
0
0
0
0.65186
0
0.609934
0.464965
0.796597
0.520165
0.260655
0
0.443203
0.348447
0.591394
0.603879
0
0.712165
1.69336
1.01027
0.916477
0.752555
1.08103
0.56539
1.25542
0.35941
0
0
0.671734
0
0.516859
0
0
0.662404
1.41905
0.623559
0.79407
0.369909
0
0.255266
0.491238
0.64091
0.500109
0.877994
1.65482
0.94999
1.09603
0.756111
0
0.796812
0.847964
1.42635
0.709342
0.31868
0
0.586891
0
0.501528
0.861657
0
0
0.458065
0.767223
0.515708
0
0.391581
1.15508
0
0
0
0
0.294619
1.22746
0.847305
0
0.374731
0.609756
1.07166
0.678159
1.61381
0.865051
0.738633
0
0.480001
0.499334
0.310441
0.951118
0.313773
0.612302
0.290257
0.66187
0.482252
0.297442
0
0.564298
0.529831
0.586736
0
0.519991
0.683104
0.567635
0.536428
1.10346
1.23812
0.89991
1.21232
0.575735
0.91083
0.719805
0
0.486192
0.606266
0.737251
0
0.782983
0
0
0.519154
0.435007
0
0.380808
0.223198
0.911155
0.707868
0.750063
0.725823
0.322923
0.33488
0.335117
0.516057
0.42982
0.627492
0.590469
0
0.511694
0.429233
0.355851
0.376791
0
0.806515
0
1.76938
0.999958
0.671469
0.317712
0.727683
0.487948
0.633052
0.897535
0.409118
0.603425
0.352357
0.454644
0.0486414
0.488867
0.63265
0.425768
0
0.611563
0.876042
0.904564
0.0421767
0.737175
0.290879
0.883925
0.670143
2.22383
0.619874
0
1.03746
0
0.516175
0
0.553715
0.59701
0.504547
0.856077
0.738504
0.14364
0
0
0.618625
0.284978
0
0
0.451794
0.380012
0.479121
0
0.268749
0.883368
2.15155
0.733661
0
0.595202
0.610632
1.21856
0
0.640229
0.576593
0.901989
0.961126
0.859747
0.474003
0.808566
0.450291
0.455297
1.37691
0.680191
0
0.40893
0.862385
0
0
0.653606
0.588197
0
0
0
0.663683
0.629109
0
0.399192
0.250034
0
0
0
0
0
0.485463
1.1015
0.486296
0
0.576534
0.537846
0.66832
0
0.517891
0
0
0
0
0.350947
0
0
0.568208
0.127058
0
0
0
0
0.208836
0.477279
0.866967
1.06035
0.793193
0.386242
0.735365
0.446132
0
0.456744
0
0.0877334
0
0
0.331604
0.625696
0
0.543297
0
0.627539
0.727273
0.744417
0.442199
0.376011
0.69663
0.524072
0
0.481601
0.765675
0.516064
0.435327
0.53469
2.77783
0.474459
0.431079
0
0.946886
0.473658
0
1.04996
0.109199
0.657328
0.580366
0
0.654556
0.397247
0.530767
0
0.452816
0.390316
0.450008
0.550662
0.650284
0.541714
0
0.776462
0.441512
0.465114
0
0.601704
0.606853
0.798932
0.577331
0.562766
0.289531
0.207174
0
0.578739
0.76172
0.421358
0
0.385601
0
0.275807
0
0.402747
0.568445
0.728762
0.410518
0.0410689
0.561792
0.391769
0.37531
0
0.807168
0.515461
0
0.606971
0.686089
0.349365
0.276726
0.456737
0.363771
0.91722
0
0.54934
0
0.542883
0.476332
0
0.465945
0.480884
0.414762
0.805421
0.880347
0.471894
1.04673
0.281761
0.272361
0
0.281675
0
0.758179
1.16916
0.705639
0.735509
0.772871
0.592136
0.716936
0.482863
0.588718
0.514019
0.654647
0
0
0
0
0
0
0
0
0
0
0
0
0
0
0
0
0
0
0
0
0
0
0
0
0
0
0
0
0
0
0
0
0
0
0
0
0
0
0
0
0
0
0
0
0
0
0
0
0
0
0
0
0
0
0
0
0
0
0
0
0
0
0
0
0.481181
0.567839
0
0.363482
0.484318
0
0.488678
0.683256
0.253906
0.675253
0
0.481432
0.27992
0.996992
0.425566
1.07087
0.333498
0.312832
0
0.399034
0.349078
0
0.812966
0.862615
0.197781
0.488605
0
0.435506
0.469086
0
0.708586
0.842226
0.0516033
0.568835
0
0.206332
0.684142
0
0.571156
0.73228
0
0.625637
0
2.32663
1.03204
2.38371
0.30823
0.635852
0.184372
0.34507
1.03056
0.936349
1.04446
0.729754
0.479703
0.389632
0.415028
0.345365
0
0.672508
0.364794
0
0
0.116784
0.327026
0.812618
1.7729
1.0154
2.20573
1.35677
0.64467
0.857246
0.779046
0.752502
1.6889
1.26635
0.48371
0.61963
0.635434
0
0
0.493573
0.843588
0
1.12993
0
0.642242
0.866092
0.619421
0.305039
0.652349
0.923106
0.596666
0.590319
1.29969
0.905574
0.478227
0
0.703685
0.976634
0.925983
0.524562
0
0
0.614563
0
0.819747
0
1.13752
1.09956
0.559621
0.463699
0.84634
0
0.841993
0.670825
0.718128
0.326985
0.39793
0.485458
2.10397
0.941212
0.334053
0.824377
0.465568
0.645081
2.28134
0.855284
0.572309
0.998385
0.6949
0
0
0.436857
0.902022
1.44961
0
1.18471
0.784707
0.687006
0.653601
0
0.65214
1.40949
0.838779
0.73183
0.818134
1.42067
1.24335
0.520193
0
0.381537
0.634345
0.705597
0.703459
0.455552
0.810103
0
0.70215
1.15611
0.797429
0.35404
1.5768
0.420966
0
0
0.819152
0
0.357922
0.539459
0.825215
0
0.959296
0.579992
0.53022
1.04271
0
0.971608
0
0.900512
0.337707
0.564343
1.26158
0.638912
0.697065
0.801645
0.450207
0.373165
0.573606
0.834309
0.217289
1.01017
0.351136
0.770328
0.282196
0.232704
0.372568
0.69113
0.467877
0.874493
0
0
0
1.36717
0
0
0.459552
0
0.831494
0.567702
0.786742
0.826216
0.814197
0
0.534687
0.270901
0
0
1.50109
0
0.778217
0
0
0
1.0604
0.875563
0.282667
0.789048
0.402984
0.501464
0.68188
0.840529
0
0
0
0.708133
1.19064
0.554475
0.818259
0
0.670289
0.375244
0.389083
0.392762
1.0559
0.509397
0
0.635331
0
0.319675
0.449784
0.713057
0.557128
2.39437
0.185549
0.950256
0.620051
0.495214
0.878445
0.456313
0
0.903683
0
0
0.210784
0
0.985322
0.617403
0.557052
2.07732
0.807108
0.393687
0.552422
0
0.55973
0
0.653574
0
0.650863
0.824145
0.420934
0.506059
0.964938
0.498578
0.906843
0.663043
0.695993
0
0.315249
0.600001
0.328485
0.632363
1.42951
0.5934
0.539932
0
0.452427
0.296216
0.995981
0.702193
0
0.387635
0.443678
0.418194
0.674863
1.03034
0.721343
0.167094
0
0
0
0.388777
0
0.357666
0
1.03686
0
0.246102
0
0.839491
1.47014
0.09349
0
0.480298
0.650618
0.315058
0.887309
0.717003
0
0.695786
0.900712
0.848472
0.301385
0.986373
0
0.603398
0
0.361746
0.954953
0
0.693881
0
0.442728
0
0.523246
0.464491
0
0
1.1134
0.82748
0.754323
0
0.578764
0
0.759961
0
0.793766
1.61557
0.27665
0.868437
0
0.604116
0
0
1.35532
0
0.549693
0.145977
0.703548
0.757438
1.18738
0
1.54164
2.35842
0
0.746565
0.209013
0.613454
0.567348
1.07856
0.757679
0.952931
1.35349
1.33083
1.1558
0.400032
0.742577
0
0.498686
0
0.37563
0.356874
0.721057
0.232669
0.36928
0.520982
0.470685
1.41429
0.67413
0.507014
0.753213
0.760779
0.558715
0.645719
0.816449
0.768662
0.606006
0.637837
0
0.545388
0
0.744111
1.46792
0
1.01563
0.594264
0.596633
0
0.863412
0
0
0
0
0.68675
0
0.831665
0
0.2734
0
1.20113
0.325213
0
0.551474
0
0.66491
0.169855
0.418377
0.641505
0.811014
0.0217154
0
0.491637
0
0.177002
0.58646
0
0.722051
1.39858
0
0.570841
0.677644
0.522876
0.940834
0
0
0.886892
1.1251
0.355582
0.8993
0.393607
0.685077
0.788652
0.530504
0
0.742272
0
0.548013
0.478828
0.565824
0
1.08284
1.06333
0.556848
0
0.149912
0.575592
0.492618
0.191184
0
0
0.856056
0
0.290978
0.395529
0.415741
0.660925
0
0.548632
0
0
0.449048
0
0.737098
0
0.505585
0
0.929437
0
1.03872
0.818939
0
0.373277
0.345948
0.568317
0.362143
0.450798
0.241195
0.12296
0.273013
0
0
0.534222
0.31841
0.558353
0.537355
0
0
0.399105
0.781902
0.403484
0.734875
0.853021
0.493914
0
0.576927
1.39793
0.779802
0.912968
0.643754
0.873154
0.541578
0.7283
0
0.578824
0.876439
0
0.340604
0
0
0
0
0
0.497189
0.516292
1.86632
1.01421
0.95289
1.19096
0.877732
0
0
0.855546
0.426429
1.09441
0
0.797458
0.787632
0.356503
0.789372
0.48292
0
0
1.02817
0.846741
0.464575
0.1246
0.423482
0.521466
0
1.552
0
0.439334
0.303268
0.53266
0.59894
0.284305
0.357382
0.63682
0.800715
1.08647
0.553192
0.720641
1.11335
1.92679
0.250654
0.342496
0.601248
0
0.568776
0.297816
1.27741
0.171309
0.787977
0
0.739792
0
0
0.416908
0.358873
0.242085
0.347556
0.550086
0.497493
0.384546
0.643331
0
0.818417
2.69283
0.900003
0.764348
0.683354
0.432248
0.575286
0.678059
0.300058
0
0.470538
1.08787
0.451804
0
0.890997
0
0.926885
1.01725
1.61062
1.05883
0.825956
0.558039
0
1.50599
0
0.536294
0.701888
0.468779
0.592757
0.446017
0
0.429813
0.381109
0.816358
0.246792
0.614124
1.34446
1.26876
0
0.681442
0
0.27627
0.120197
0
0.666789
0.37421
0
0.675815
0.166913
0.479936
0.344473
0.797039
1.89649
1.04227
0.368844
1.12073
1.72022
0.60168
0.571881
1.3634
0.71604
0.515612
1.21873
0.425476
1.0119
0.385971
0.728053
0.658291
0
0
0
0.829234
0
0.288206
1.04162
0.676837
1.36261
0.40434
0
0
0.800636
0.448718
0.496232
1.16688
0
0.707836
0.561374
0.288429
0.531701
0
1.01189
0
0.620627
0.722225
0
0
0.234897
0
0
0.613849
0
0.809437
0.335367
0
0.774565
0
0.686085
0.228641
0.550762
0.643077
0.281592
2.26199
0.709152
0
0.802041
0.531064
0.479004
0.945445
0.433557
0.835209
0
0
0.668859
0.39325
0.586552
1.01376
1.61597
0
0
0.608724
0
0
1.31627
0.385063
0
0
0.598291
0.259406
0
1.51113
0.568916
1.02856
0.656681
0.985791
0
0
0
0.97042
0.553699
0.71847
0
0
0.372616
0.518226
0.53842
0.423997
1.4389
0.537756
0.395718
0.599711
0
0
0.451729
0
0
0.369349
0
0.907723
0.85621
1.58611
0.499162
1.07024
0.95001
0.577714
0.685023
0
0.550529
0
0.610014
0
0.559471
0
0.485335
0.360649
0
0.468328
0
0
0.477166
1.02482
0
0.713658
0.755705
0.158505
0
0.352706
0
0.280996
0
0.310249
1.41371
0.619342
0
0.805559
0.197112
0.526028
0.983961
0.577968
0
0.34613
0.577546
0
0.656789
0
0
0.860481
0.573546
0
0.293284
0
0.332924
0.675077
0.71654
0
0.742246
0
1.09644
0.329649
0.615138
0.696162
0
0.758836
0.645782
0.264641
0.523034
0.0651108
0.420129
0.989124
0.661816
0.345197
0.575387
0
0.285566
0.579264
0.502473
0
0
1.07591
0.638752
0
0.396584
0
0
0
0
0.805379
0.204534
0.637254
0
0.189216
0.563045
0
1.05017
0
0.726915
0.604126
0.874161
1.29427
0
0.724602
0.773676
0.644895
0
0.510826
0
0
0
0.670691
0
0.559769
0
0
0.26095
0.607972
0
0
0.428036
1.05368
0.0680217
0.501322
0
0
0.0787899
1.3168
0.771439
0
0
0.821904
0.887335
0
0.300185
0
0.375382
0
0.364927
0.517692
0
0.559904
0
0.422795
0
0
0
0.562227
0.800591
1.02753
0.478217
0.122581
0.355743
0
0
0
0
1.1256
0.443966
0.614245
0
0.406257
0.255858
0.281858
1.1425
0.772391
0
0.410453
0.416113
0.498799
0
0.494083
0.519489
0.891835
0.575987
0.73387
0.500083
0
0.487039
0.747874
0.638049
0.52954
0.532892
0.809631
0.252858
0.436869
0
0.870424
0
0
0
0
0
0
0
0
0
0
0
0
0
0
0
0
0
0
0
0
0
0
0
0
0
0
0
0
0
0
0
0
0
0
0
0
0
0
0
0
0
0
0
0
0
0
0
0
0
0
0
0
0
0
0
0
0
0
0
0
0
0
0
0
0.275232
0.479411
0
0.363599
0.416311
0
0.354843
1.09914
0.379844
0.224825
1.0898
0.334606
0.294055
0
0.514307
0.76585
0.240096
0.392536
0.492531
0.467183
0.635814
3.29395
0.501405
0.846821
0.28828
0.510081
0.484382
0.593241
0.406369
1.08102
0.517454
1.0338
0
0.422086
0
0.751601
0.217418
0
0.618518
1.03628
0.313854
0
0.838949
0.681787
0
0
0.265554
0.8534
1.1454
0.551064
0
0.376578
0.598113
0.291072
0.828521
1.15542
0.390106
1.24445
1.19059
0.443185
1.20799
0
0.31038
0.460164
0.494732
0.944164
0.58168
1.00162
0.978723
0.926618
0.719514
0
0
0.80717
1.11227
0.394669
1.57162
0.712329
0.785316
0.973027
1.64731
2.47244
2.31818
0.686134
0.838379
0.581455
0.874915
0.92378
0
0
0
0
0.711727
0.561537
1.1522
0.923282
0.791153
1.1285
0
0
0
0
0.594402
1.15994
0
0.705174
0.608373
0.745549
0
0.594495
0.480119
0.862199
0.723836
0.371493
0.308411
0
1.04395
0.31418
0
0.953611
1.47543
1.15351
0
0
0
0.553364
0
0.399815
0.416012
0.475927
0.454028
0.573642
0.495364
1.25599
0.513385
0.834442
0.707099
0.368613
0.869539
0.206351
1.92495
1.22607
0
0.988941
0.561175
0
0.4382
0.969137
1.95914
0.546634
0.973872
0.896387
1.19049
0
0.408302
0
2.03124
0.988382
0.700223
0
0.411522
0.681212
0.884595
0.615099
0.811682
0
0.599115
0.880849
0.539512
0.836348
0.992121
1.18858
0
1.23811
0.756024
0
0.382289
1.3519
0.78942
0.304335
0.184055
0.705148
0.398389
1.2212
0.189349
0.155322
0.598316
0.409107
0
0.517114
0
0
0
0
0.793554
0.87599
0.999946