<?xml version="1.0"?>
<VTKFile type="RectilinearGrid">
<RectilinearGrid WholeExtent="0 32 0 32 0 32" Origin="0 0 0" Spacing="1 1 1">
<Piece Extent="0 32 0 32 0 32">
<PointData>
</PointData>
<Coordinates>
<DataArray type="Float32" format="ascii">
0 0.524874 1.04975 1.57462 2.0995 2.62437 3.14924 3.67412 4.19899 4.72386 5.24874 5.77361 6.29849 6.82336 7.34823 7.87311 8.39798 8.92285 9.44773 9.9726 10.4975 11.0224 11.5472 12.0721 12.597 13.1218 13.6467 14.1716 14.6965 15.2213 15.7462 16.2711 16.796 
</DataArray>
<DataArray type="Float32" format="ascii">
-5.03879 -3.62163 -2.20447 -0.787311 0.629849 2.04701 3.46417 4.88133 6.29849 7.71565 9.1328 10.55 11.9671 13.3843 14.8014 16.2186 17.6358 19.0529 20.4701 21.8872 23.3044 24.7216 26.1387 27.5559 28.973 30.3902 31.8074 33.2245 34.6417 36.0588 37.476 38.8931 40.3103 
</DataArray>
<DataArray type="Float32" format="ascii">
0 0.524874 1.04975 1.57462 2.0995 2.62437 3.14924 3.67412 4.19899 4.72386 5.24874 5.77361 6.29849 6.82336 7.34823 7.87311 8.39798 8.92285 9.44773 9.9726 10.4975 11.0224 11.5472 12.0721 12.597 13.1218 13.6467 14.1716 14.6965 15.2213 15.7462 16.2711 16.796 
</DataArray>
</Coordinates>
<CellData>
<DataArray type="Float32" Name="Scalar" format="ascii">
0
0
0
0
0
0
0
0
0
0
0
0
0
0
0
0
0
0
0
0
0
0
0
0
0
0
0
0
0
0
0
0
0
0
0
0
0
0
0
0
0
0
0
0
0
0
0
0
0
0
0
0
0
0
0
0
0
0
0
0
0
0
0
0
0.275517
0.241338
1.29171
0.432798
0.349521
0
0.289352
1.21687
0.0840142
0.492519
0
0.429642
0.363449
0
0.222791
1.05671
0.214676
0.544303
1.51322
0.210039
0.751852
0
0.294308
2.12008
0.236241
0.416244
0
0.339458
0.213534
0
0.302905
1.21427
0.204936
0.125924
0
0.137605
2.25027
0
0.121757
0.957721
1.56602
0.0428124
0
0.647126
0.212122
1.0863
0.954495
0.540598
0.0720382
0.84346
0
0.380125
1.33329
0
0.112774
1.39274
1.26897
0.0756212
0
1.20697
0.484194
0
1.21192
1.01493
0.330991
0.750419
1.01493
0.68175
0.975482
0
0
0
0.63396
0.345534
0.397782
0.409506
0.651739
0
0.61242
0
0.954394
0.432273
0.352433
0.488846
0.641826
0.724669
0.637954
1.62737
0.941454
0.618354
0
0.646588
0.509368
1.0655
1.32521
0.237429
0.488644
0.654698
0.970737
1.29214
0
0.804147
1.46238
1.25341
1.23979
0
0.95246
0.562002
0.354693
1.06742
0.656237
0
0
0.47597
0
0.600532
0
0
0.353354
0.331162
0.659441
0.691505
0.933611
0.675928
0.61393
0
0.312416
0.239959
0.447182
0.375695
0
0.770925
0.523675
0.48321
0.348636
0
0.263019
0.709051
0
0
0.912157
2.35235
0.277376
0.539541
2.33665
0
0
0.442802
0.437782
1.14438
0.56918
0
0.21463
0
0.907657
1.13413
0.445145
0.534409
0
0
0.782745
0.392739
0.49657
1.31086
1.1137
0
0
0.400317
0.79107
0.230186
0.223616
0.515368
0.578144
0.410634
0.333404
0
0.341158
0.912818
0
0.471286
0
0.551196
0.519789
0.870349
0.667151
0
0
0.459158
0.501524
0.329463
0.465385
0
0.899165
0.827231
0
0.876228
0.566
0.900179
0
0.401789
0.604971
0.410292
0.585329
0.804108
0.486241
0.599354
0.208562
0.443785
0.40304
0.704563
0.39751
0.959461
0.537844
0.803085
0
1.8382
0
0.371616
0
0.885952
0
0.998195
1.06956
0
0.158753
0.596061
0.557634
0.48451
0.233435
0.470897
0.564036
0
0.51692
0
0.624849
0
1.38513
1.10227
0
0.582296
0
0.409889
0
0.509765
0.760845
1.35848
0.338534
0.412396
0.601003
0.217715
0.587966
0.441495
0.575966
0.424325
0.401741
0.548917
0.529771
0
0
0.515636
0
0.375902
0.384762
0.520916
0.304739
0.643629
0.563413
0.558133
0
0.623711
0
0.641477
0.386672
0.303258
0.608742
0.311649
0.589536
0.608607
0.228724
0.32875
0.474471
1.07774
0.35986
0
0.461109
0.542521
0.598083
0.637267
0.610558
0.404346
1.3661
0.34176
0
0
0
0
0
0.486764
0.887544
0.529697
0
0.660221
0.514251
0.68953
0.779777
1.00785
0.485883
1.20701
0.893785
1.23403
0
0.931432
1.41987
0.976375
0.651584
0
0
0.561928
0.817528
0
1.6803
0.83846
1.77292
0.437912
0
0
0
0.345443
0
0.705934
1.14744
0.370871
0.574369
0.688881
0.899576
0.390162
0
0.942099
0.525993
0.749959
0.473917
0.471506
1.1895
0
0.396463
0.43903
0.362232
0
0.381124
0
0.839395
0.232517
1.48227
0.428744
0.767619
0.257326
0.53554
0
0.508274
0
0
0.444261
0.780374
0.566885
0.605417
2.2236
0.433483
0.453195
0.471889
0.0906598
0.449776
0.045943
0.683693
0.501881
0.660659
0
0.946001
0.621141
0.321375
0.475516
0
0.439365
0.381032
1.52165
0
0.445899
0.511931
0.174463
0.458963
0
0.922847
0.412609
0
0.634866
0
0
0.873798
0.914854
0.298404
0.643792
0.59699
0
0
1.53075
0
0.383638
0.727716
0
0.920977
0.285366
0.313117
0.503102
0.219315
0.576508
1.38441
0.360741
0.78544
0.552886
0
1.62945
1.03553
0.980707
0.438811
0.50262
0.241199
0.861477
0.721039
0.305577
1.09623
0.481305
0
0
0.523834
1.18534
0.430964
0.653357
0.379274
0.32181
0
0
0.495282
0
0.777758
0.467926
0.339955
0
0.726175
0.712771
1.17285
1.30407
0.354495
0
0.536176
0
0.320702
0
0.509891
0
0.334741
0
0.958767
1.3289
0.840209
0.43789
0
0.59068
0.441829
0.586362
0
1.59676
1.56713
0
1.01885
0
0.245311
0.452701
0.284765
1.10372
0
0
0
0.534746
0.259514
0.882858
0.391921
0
0.362492
0.618358
1.34547
0.384378
0.638948
0.415109
0.64826
0
0
0
0.783092
0.51353
1.26395
0.862223
1.61026
0.934636
0.474887
1.12582
1.0088
1.05896
1.12801
0.817034
0
0
0.932314
0.159762
0.448817
0.558023
0
0
0.370224
0
0
0.96732
0
1.26799
0.32388
0.626991
0
0.275801
0.61882
0.329685
0.555901
0
0
0.883284
0.139913
0.226655
0
0.6301
0.554507
0
0.944815
0
0.354444
0
1.45327
0.766882
0
0.476294
0
0
0.903349
0
0.27756
0.918862
0.592215
0
0
0.213921
0.398685
0
0.928572
0.311782
1.14346
0.880906
0
0.82761
0
0
0.937107
0.570799
0
0.378145
0.792147
0
0
0.507724
1.27881
0.618159
0.903087
0.457019
0.443612
0
0.877193
0.65082
0
0.704478
0.464727
0.331811
0
0.625609
1.61205
0
0.717001
0.649671
0.148966
0
0.494303
0
0.595427
0.7156
0.201403
0.827372
1.40427
0.552133
0.462977
0
0.710608
0.423715
0.811699
0.618754
0.644535
0
0
0.256347
0.629254
1.10779
0
1.7248
1.28421
0.744958
0.694577
0.980324
0
0.534388
0
0.830458
0.813089
0.627957
0.456323
0.751977
0.968118
0.394686
1.05345
0
0.579026
0.413773
0
0
0
0
0.647932
1.06258
0.706828
0.674941
1.3783
0.567856
0
0.869147
1.70486
0.58818
0.663203
0.542277
0.109654
0.715567
1.10526
0.477869
0.381769
0
0.390965
0
0.170201
0
0
0
0.640039
1.02316
1.05262
1.16111
0
0.588993
0.329661
0.415264
0.805982
0.661449
0
0.474674
0.790261
0.706043
0
0
0.529124
0.763444
0.51775
0.677829
1.00804
1.01228
0
0.470616
0.565102
0.255546
0.535199
0
0.83428
0
0.367986
1.00013
1.02073
1.66719
0.419346
0.668667
0.331304
0.891228
0.59241
1.13514
0.672508
0.71166
0
0.647295
0.68971
0.80485
1.27809
0.324109
0.80984
1.02434
0.604082
1.08166
0.615968
1.07091
0.68135
0.648997
0
1.01061
0
2.03375
0
1.14874
1.23873
0.772692
1.02139
0
0
0
1.05136
0.96567
0.744009
1.17022
0.651462
0.550532
0
0.524256
0.771817
0
0.641911
0.804169
0.437123
1.46194
0.378576
0.761406
0.633651
0.205391
0.634962
0
0.749124
0.807988
0.656717
0.484676
0
0.771772
0
1.29019
0.760852
0.867289
2.25627
0.77775
0.512936
0.309815
0.671376
1.44473
0
0.606467
0.834315
0
0.546287
0.485391
0.430578
0.274244
0
1.19327
0.599945
1.04626
1.83349
0
1.88392
0
1.11041
0
0
0
0.554079
1.25463
0.694631
1.35371
2.1254
2.03114
0.601771
0.764554
0.558339
0.246254
0
0.234328
1.0753
0.898107
0.637924
1.31771
0.671873
0.428717
0
0
0.261875
0.556803
0.850398
1.12652
0
0
0.73079
0
0.795884
0
0.676105
0.376431
0
0.711638
0.483524
0.801902
0
0.791651
0.624133
0.997787
1.27683
0
0.677884
0.722131
1.40328
1.18969
0.398073
0.955289
0.509479
0
0.692628
0.890422
0.590985
0
0.218582
1.30426
0.343025
0.524549
0
1.34847
0.489313
0.560345
1.9203
0
0.250042
1.00195
0
0
0.495708
1.03103
0.706504
0.643853
0.642563
0.916365
1.14878
0.50192
0.312528
0
0.916938
0
0.750809
0.305939
0
0
0.739872
0.349825
0.463622
0
0.701489
0.560538
0.189371
0.882234
0.956827
0.380803
0
0.656237
1.09548
1.01025
0
0
0.60641
1.8592
0
0.913233
0.522282
0.466031
0
0.447488
0.651729
0
1.17312
0.99485
1.23878
0.278317
1.05181
1.77486
1.0304
0.575765
0
0.598637
0.672976
0.896291
0.81297
1.21222
1.63043
0.558395
0.693057
0.964359
0.794372
0.783111
1.11261
0.866069
0.669214
1.32366
0.660949
0
0.651242
1.9423
0.686385
0
0
0.914073
0.789035
0.598707
0.604563
0.172993
0.71516
0.773445
1.39937
0.804631
0.770913
0
1.04183
0.80344
0
0.524551
0.454285
0.492247
0.752976
0.833914
0
0
1.12583
1.01568
0.878085
0.416031
0.683746
0.721008
0.358509
1.31197
1.97838
1.07301
1.64263
0.441484
0
0
0
0
0
0
0
0
0
0
0
0
0
0
0
0
0
0
0
0
0
0
0
0
0
0
0
0
0
0
0
0
0
0
0
0
0
0
0
0
0
0
0
0
0
0
0
0
0
0
0
0
0
0
0
0
0
0
0
0
0
0
0
0
0.320931
0.406097
1.86564
0.758889
0.330641
0
0.350317
1.31624
0.397901
0.580716
0
0.479625
0.570865
0.434298
0.638281
0.663824
0.286997
0.523594
0
0.647267
0.440997
0
0.505403
1.3472
0.337297
0.396069
0.36059
0.601509
0.482495
2.67726
0.613808
1.66131
0.773518
0.441039
0
0.756765
0.379614
0.0688589
0.570707
1.35845
0.568607
0
0
0.105251
0.600095
0.522868
0.171946
0
0.494795
0.218114
0
1.71888
0.203102
0
0.904187
1.13147
0.364412
1.33743
0
0.063653
1.43848
0
0.385992
1.50415
0.686249
0
0.986719
1.15226
0.928376
1.94812
0.854741
0.66235
0.181946
0.858251
0.38461
0
0.500406
0
0.49087
0.594242
0.679277
0.936449
1.02763
0.752986
0.455265
0
0.451365
0.485176
0.438302
1.12119
0
0.547047
0.558559
1.13468
0.870686
1.38289
0
0.596397
0
0.459718
0
1.32769
0
1.43664
1.53047
0.601855
0.655228
0.705179
0.883383
0.737751
1.18656
0.585008
0
0.390206
0
0.753326
0
0.44056
0.694826
0
0.484583
0.484849
0.917582
0.578493
0
0.504012
0.240791
0.560201
0
0.606502
0.646709
1.09936
0.518568
0
0
0
0
0
0.39423
0.539376
0
0.990966
0.853852
0.373576
0
0.38286
0.592834
0
1.01971
0.478386
0
1.4729
0.567834
0
0.306319
0.265674
0.102633
0
0
0.760413
0
0
0.614725
0
0.574139
1.07191
0.639949
0
1.05832
0.460792
0.411176
0
1.09959
0.592113
0.785961
0.684803
0.385829
0.561187
0.55651
0.595976
0.29798
0.543769
0.50947
1.04088
0.560917
1.40133
0.849824
0
1.04966
0
1.24303
0.638576
0
0.673971
1.11906
0
0.173112
0.279799
0
0.359106
0.901252
0.390122
0
0.517492
0.736246
0.236334
0.251938
0.445909
0
0
0.756874
0
0
0.441277
0.67444
0.685788
0.116673
0.539424
0.951282
0.753377
0.412706
1.5539
1.20632
0.903784
0.558985
0
0.466004
0.754177
0.337078
0.780839
0
0
0.762795
0
0.635501
1.08498
0.790253
0
0.732122
0
0
0.770456
0
0
0
0
0.702339
0.473678
0.76973
0.609497
0
0.24513
0
0
0.320348
0.716333
0.493972
0.422854
0.44647
0.256552
0.410119
0
0
0.511089
0
0
0.396243
0.322111
0.702085
0.810574
0
0.441985
0
0.513111
0.549289
0.290303
0.187921
0
0
0.431482
0
0.655792
0.373423
0.278922
0.691349
0.440873
0
0
0.815499
0.556493
0.403993
0.825782
0
0.745321
0
0.486304
0
0.535766
0
0.410688
0.514466
0.699879
1.34185
0.600648
0
0.868511
1.28693
0.407581
0
0.598249
0
1.94916
1.91688
0.593219
0
0.679669
0.51561
0
0.729089
1.10593
1.21679
0.89997
0.992775
1.22726
0
0.6141
0.487274
0
0.613142
0
0.569698
0.468197
0.291289
0.532764
0.413123
1.11161
0.421279
0.485397
0.530431
0.18946
0.367219
0.59648
1.15835
0.673663
0.685909
0
0.620647
0.698363
0
0
0.83343
0.776725
0.622743
0
1.09359
0.223759
0.647178
0
0.44683
0
0.366209
0
0.490705
0
0.412687
0.397666
1.22167
1.82915
0.614956
0
0.894246
0.322489
0.305778
0
0.264556
0.556466
0
0
0.384076
1.44767
0.612456
1.06018
0.811321
0.491508
0.223801
0.182675
0.750061
0.38974
0.300104
0.685967
0.513213
0
0.778799
0
0
0.732779
0
0
0.843473
0.79191
0.384196
0
0.793115
0
0.887022
0.965668
0.261887
0.692949
0
0
0.639268
0
0
0.812354
0.622925
0
0.356362
0
0.611844
0.797327
0.344212
0.592284
0.2844
1.42397
1.197
0.399834
0.167962
0.953756
0
0.535875
0
1.12688
0.520529
0
1.26745
0.404127
0.235758
1.13608
1.08535
0.863556
0.717287
0.457671
0.769139
0.411012
0.608686
1.58469
1.02879
0.536822
0.339232
0
0.718054
0.528447
0.69053
0
0.473385
0
0.560707
0
0.924128
0
1.82554
1.15224
0.522104
0.390852
0
0.49899
0
0
0.710478
1.49355
1.41587
2.12621
0.54004
0
0.393032
1.12962
1.21389
0
0.344041
0
2.00379
0.31389
0.751797
0.441396
1.06755
1.03084
0.624547
0.772315
1.27407
0.722365
0.689208
1.40545
0
0
1.21721
0.506569
0.643388
0.721716
0.532078
0.641257
0
0.73663
1.25903
1.46387
0.904182
0.866722
0.829749
0.961997
0.780329
0.590104
0
0.581301
0.544176
0.0877666
0.383297
0.609104
0.610321
1.53443
0
0
0
0.662421
0.283884
0
0.284802
0.32241
0.496555
0
0.844868
0.420654
0.64688
0
0.824547
0.721861
0.440123
0.532339
1.21765
0.958222
1.01791
1.38807
0.523488
0.712898
0.584959
0
0.825115
0
0.537787
1.18301
0.580621
0
0.54932
0
0.632922
0.720703
0.39933
0.51254
0.560744
0.745301
0
0.262128
1.08281
0.511496
0.859517
0.996402
0.903359
0.524474
0
0
0.811738
0
0.514407
0
0.31088
0.430074
1.21448
0
0.686263
0.494578
0.974137
0.700011
0.871535
0.49535
1.22628
0.617949
0
0.333643
0.350459
1.04143
0
0.893832
0.561039
0
0.513549
0
0.606563
1.95846
0.531641
0.647814
1.17148
0.831013
1.35726
0.487646
0
0
0.382044
0
0.474476
0.307624
0.521532
0.709582
0.771856
0.704798
0
0.98054
0.509055
0.697735
1.79965
0.696748
0.979785
0.390711
0.603192
0
0.227685
0
0.248934
0.446873
0
0.551541
0.581738
0.440108
0.439344
0
1.33981
1.41941
0.271037
0.637174
0.324746
0
0.567889
1.24342
0
1.22492
0.804695
0.569958
0
0.359204
0
0.815227
0
1.34544
1.51518
0.685174
1.43703
0.430784
0.0915635
0.676395
0.779894
0
0.77352
0
0.76042
0.973323
0.981587
0.728185
1.03965
1.18607
0.533496
0.640528
0.659902
0.658717
0
0
0.38359
0.207779
0
0
1.15238
0.405296
0.86357
0.470226
1.0446
0
0
0.787375
0.790129
0.530409
0
0
0
0.614551
0.679481
0
0.730169
0.798962
0.690337
0.209969
0
0.522963
0
1.14755
0
0.602149
0.357298
0.301313
0.752333
0.769927
0
0.377785
0.851598
0
0.354622
0.248912
0.519021
0.684477
0.3489
2.28152
0.71831
0.518785
0.345953
0.688078
1.12177
1.33615
0.818844
0.930261
0.486342
0.755117
1.1386
0.672765
0.545214
0.707725
0.359977
2.23758
0
0
0.515875
0
0.662766
0
0.554316
0.80412
0.425555
0
0
0
0.276209
0.460747
0
1.09677
1.00625
0
1.01237
0
0.519915
0.467033
0.632656
0.876283
0.753997
1.0103
0.723773
0.651771
0.667704
0.750341
0.633567
0
0.525204
0.978214
1.07603
0.556879
0
1.55984
0
1.16619
0
1.74594
0.381025
0.738658
0.448376
1.9176
1.9881
1.49911
0.655847
0.48902
0
0.7608
1.06575
0.380389
0
0.656149
1.4549
1.22078
0.257089
0.91682
0.819055
0.573116
0
0.196412
0.44898
0.42712
0
0.44378
0
0.896531
0.69342
0.661694
0.884864
0.600936
0.400532
0.712066
1.1212
0.731048
0
0.986113
0.164042
0
1.39908
0.580442
1.02007
0.781616
1.84329
0.968281
0.81145
0.819083
0.455321
0.323821
0.739879
0.519221
0.351485
0.752043
0.884077
0.647263
0.914063
0.560824
0.830632
0
0.751537
0
0.569065
0.912381
1.2945
1.14079
0.96721
0.235588
0.642962
0.459824
0.575192
0
0
0
1.18956
0.625038
0.398798
0.570816
0.839112
1.03263
0
0.997228
0.851994
0
0.27005
0.688607
1.22367
0.175326
0.506709
0
0.811253
0.619301
1.29099
1.24468
0.86272
0.786861
0.70167
0.588332
0.762909
0.715332
0.72998
0
0.898974
0.496215
0.438468
0
0.306383
0.454114
0
1.06443
1.5574
0.447767
0.801879
0.514821
0.537122
0.984354
0
0.324258
0.654907
0.688903
0
0.622536
1.35257
1.14007
0
0.50055
0.670828
0
0.639458
0
0.925429
1.06584
0.385635
0
0.58864
0.69472
1.0156
0
0.657419
0.528839
0.904959
0
0.410748
0.988909
1.12479
1.35851
1.22763
0
0.902682
0.596062
1.22299
1.13832
0.894689
0.950499
0.408515
0
0.828453
0.947206
1.01612
0
0
0.621672
2.37807
0
1.5539
1.00975
0.745583
0.773667
0.583214
0.632896
0.487066
0.428904
0.884502
1.38847
0.874125
0.218788
0.538752
0
0.710689
0
0.73395
0
0.944614
0
1.30323
0.798513
0
0
0
0
0
0
0
0
0
0
0
0
0
0
0
0
0
0
0
0
0
0
0
0
0
0
0
0
0
0
0
0
0
0
0
0
0
0
0
0
0
0
0
0
0
0
0
0
0
0
0
0
0
0
0
0
0
0
0
0
0
0
0
0
0
0.257571
0
0
0
0
0.683437
2.28473
0
0
0
0
0
0
1.05198
1.68731
1.07076
1.2151
0
0
0
0
0
0
0
0.183142
0
1.50619
0
0.386254
0.940545
0
0
1.14209
0
0.393761
0
0
0
0.843431
0.808948
0
0
0
0
0
0
0
0
0
0
0.879207
0
0
0.711997
0
0
0
0
1.65235
0
0
0
0
0.645175
1.73575
0
0.564817
0
0
1.81298
1.23737
1.01765
1.02521
0.833053
0.775452
0.678761
0
0.287222
0.222058
0
0.778894
0
0
0
0
0
0.98256
0.340692
0.665435
0
0.456196
1.01819
0.952249
1.06313
0.575388
0.0584487
0.340893
0.211844
0.678097
0
0.532654
0
0
0
0.797775
1.02605
0.771364
0
0.34395
0
1.21728
0.411066
0.422799
0.398234
0.709144
1.39822
0
0.90523
0.416978
0.310786
0.26769
0.374106
0.530373
0
0.662889
0.592495
0
0.509058
0
0.29491
0
0.588772
0.819452
0.595703
1.50309
1.15246
0.820762
0
0
2.41325
0
0.419582
0
0.670555
0
0
0.319253
0.859259
0.549201
0.714969
0
0
0.294403
0.818304
0.492335
0.436151
0.579298
1.06945
0
0.767338
0.588987
0
0.28642
0.462201
0
0.350323
1.0251
0.262518
0.685553
0.508342
0.489326
0.524085
0.593054
0.416963
0.937702
0.293041
0
2.79223
1.46705
0.23385
0.462396
0.864926
0.500125
0
0
0
0.853951
1.1141
0.547018
0
0
1.22817
0.462651
0.381226
0.85605
0.697135
0.412338
0
0.452882
0.655527
0.539137
0
0.394139
0.152955
0.243449
0.739896
1.01905
0.312181
0.863981
0.797183
0.527796
0.271538
0.146344
0
0.508722
0.673281
0
0.970025
0
0.601762
0
0.923027
0
0
1.02488
0
0
0.616991
0.289879
0.391618
0
0.379536
0
0.482754
0.521251
0.870858
0.838932
0.702422
0.291413
0.636897
0.336327
0.518735
0.855498
0
0.461063
0.672849
0
0
0.743921
0.904668
0.437695
0.564362
1.43762
0.527088
0.526239
0.536999
0
0.534725
0
0
0.084681
0.329762
0.401883
0.421311
0.215167
0.446506
0.595323
0
0.687636
0.599277
0.458174
0
0.371742
0.462297
0.353498
0.418356
0.32765
0.869072
0.440581
0.35711
1.05198
0.31912
0.188143
0.105858
0.56347
0.47836
0.556703
0.189426
0.749204
0.720063
0.486271
0
0.33731
1.83677
1.02886
0.888491
1.09542
0
0.334505
0
0
0.670576
0.128034
0.707916
1.21031
0.230345
0.723585
0.997756
1.99798
0.737969
0.853043
0
0.43689
0.675075
2.48603
0.526034
0.726151
0.496158
0.876248
0.704392
0
0.438018
0
0.423246
0.518169
0.480678
0.200345
1.08783
0
1.0324
0.426544
0.553743
0
0.586492
0
0.513045
0.322952
0.532523
0.890511
0.718631
1.16836
0.464048
0.346938
0
0.652513
0.444258
0.535979
0.696988
0
1.08757
0
0.896484
0.542044
0.763524
0.770968
0
0
0
0.235386
0.681371
0.10065
0.385119
0.979814
0
0.677084
0.569828
0.754823
0.511535
1.40163
0.826908
0
0.583928
0.549689
0
0.511103
0.47245
0.506143
0.332334
0.236631
0.379494
0.353283
1.61883
0.902089
0.83496
0.329024
0.399713
0.223187
0
0.212048
0.387608
0.718095
1.15698
0.668793
0.862235
0
0.682708
0.458692
0.412825
0.770124
0.661812
0.360733
0.628354
0
0.54749
0.767481
2.16671
1.67812
0.307058
0.701678
0.651009
0
0.499538
0.244465
0.559958
0.357697
0.298296
0
0.239121
0
0.679734
0.223781
0.331565
0.857456
0.138022
0.532664
0
0.51488
0
0.6959
0.704334
0.829123
0
0.65789
0.368015
0.292625
0.622043
0
0
0.126832
0
0.891239
1.2228
0.576838
0.55911
0.398335
0.377924
0
0.803894
1.75631
0.401259
0
1.12933
1.63345
0.167083
0.512464
0
0.5132
0
0.644798
0.45876
0.742781
0.766005
0
0.135963
0.456865
0.303312
1.00031
1.57351
0.634976
1.15651
0
0
0.41695
0
0.349664
0
0.530812
0.911013
0.431506
0
0.754892
0.419001
0.835995
0.581952
0
0.857796
0.219823
1.09127
0.636442
0.956794
0
0.356867
0
0.894669
0
0
1.29906
1.12624
0.915422
0.585903
0.922968
0
0.938342
0.765532
0.947855
0.822012
0.411481
0
0
0.631499
0
0.600278
0.468015
0
0
0
3.2391
0
0.492493
0
0
0.309987
0.452938
0.770882
0
0.942954
0.871132
1.83641
0
0.423795
0.527409
0.726232
0.687256
0.701217
0.287855
1.52538
0.935172
0
0
0.337688
0
0
0
1.3482
0
0
0
0.295147
0.865964
0.537122
0
0.55292
0.233336
0
0
1.38368
0
1.37266
0.547486
4.02574
0.480994
0.536686
1.21535
0.32356
0
0.222937
0.866231
0.791508
0
0.565807
0.245864
0
0
1.02251
1.20414
0.733965
0
0.715829
0.785187
0
0
0
0.796424
0.608607
0
0.579379
0.464452
0.78753
0.618681
0.386814
0.481849
0.385879
0
0.302334
0.983134
0.565149
2.15119
0.726473
1.01308
1.16795
0
0.636007
0
0.426417
1.5505
1.01584
1.73205
0.995337
0
0
0.355717
0.415302
0.205664
0
0.757448
0
1.08691
0.589062
0.884471
1.08245
0.622234
0.360811
0
0.162906
0
0.445261
0
0
0.700392
0
0.336808
0.669731
0.769887
1.45889
0
0.356571
0
1.15208
0.769972
0.474906
0.779486
0
0
0.216899
0.681975
0
0.492949
0
0.678751
0
0.777139
0.97691
0.568788
0.658299
0.495061
0.528751
0
0.34276
0.684412
1.1413
0.424326
0.292214
0.723745
0.649195
0.477927
0
0
0.534005
0
0.588043
0.444282
0.727787
1.02926
0.681046
0.492756
0
0
0.7669
1.24697
0.705124
0.672446
0
0.904518
0.8967
0.882104
0.737096
0.582645
0.747081
0.800548
0.739527
0.291819
1.02817
1.63367
0.99506
0.336652
0.569954
0
0.815477
1.14857
0
0.539296
0
0.23458
0
0.870395
0.455054
0
0.648874
0
0.415606
1.30094
0.441685
0.959305
0.5605
0.442876
0
0.390117
0.510036
0.345263
0.498949
1.18054
0.553957
0.556874
0.654613
0.503886
0.804241
1.63519
0
1.63381
0.228437
0.674726
0
0.512592
0
0.245536
0.379026
0.134193
0.442844
0.596054
0.149638
0.240444
0.589561
0.820824
1.30303
1.20093
0.893147
1.4541
0.435404
0
0.671306
1.00954
0.716883
0.182714
0
1.19151
1.0289
0
0.82639
0.46147
0.80894
0
0
0.196092
0.573231
2.04322
0
0
0
1.66578
1.56008
1.00443
0
0.543485
0.559482
0.899076
0.737262
0.771507
0
0.914597
0
0
0.476558
0
0.572917
1.1737
0.762607
0
0.935307
0.5019
0.783971
0.42458
0
0
0.83927
0.551148
0
0.860845
0
0.482475
0.140097
1.16084
0
0.408958
0
0.502627
0
1.88621
0.36759
0.574615
0
0
1.41759
0.174892
1.17806
1.27158
0.445226
1.15666
0.778348
0.642405
0.740008
0.571159
0.398892
1.08728
0.555817
1.24653
0.439144
0.986425
1.68955
0.808739
0.932107
0.818767
0
0.351109
0.638675
0
1.36282
0.524163
0
1.45737
0
0.854068
1.69884
0.697567
1.31717
0.345219
0.524789
0
1.33739
0
1.44078
1.1018
0.986868
1.13072
0.719075
0
0.726117
1.37539
0.547366
0.343654
0.436636
0.815537
0
0.523145
0.952433
1.31056
0.949419
0.748969
0
0.956867
0
1.12916
0.945973
0
0.399076
0
0.745929
0
0.614977
0.557567
0.510331
0.88419
1.01821
1.04457
1.37408
0
1.10302
0.878956
2.13233
0.399965
0.698264
0.716458
0.152378
0.61341
0
0
2.01673
1.0496
1.24368
0
0.381213
0.869172
1.41533
0.227291
0.626306
0
0.771982
0.465702
0.609431
1.40711
0
0.687947
0.501423
0.73991
0.521119
0.682885
1.15099
1.09789
1.9032
0.656518
0
0
0.544502
1.45699
0.692174
0.837791
0.531813
1.14555
0.66145
0.140609
0.671822
0
0.912308
0.669902
0.207747
0.745518
0.708221
0.837132
0.291176
0.87309
1.1292
0
0.547752
0.712473
0.762683
0.492295
0
0.916348
0.662111
0.326795
0.546145
0.589693
0.476646
0.253945
0.57321
0
0.315708
0.694808
0.534611
0.449545
0
0
0
0
0
0
0
0
0
0
0
0
0
0
0
0
0
0
0
0
0
0
0
0
0
0
0
0
0
0
0
0
0
0
0
0
0
0
0
0
0
0
0
0
0
0
0
0
0
0
0
0
0
0
0
0
0
0
0
0
0
0
0
0
0.38034
0.552603
0
0.477049
0.383549
0
0.706895
1.56386
0.307395
0.434279
0.980017
0.487571
0.80336
1.56166
0.381146
1.31036
0.373762
0.515737
0.594436
0.912376
0.66983
0
0.836521
0.743539
0.299486
0.314495
0
0.371121
0.745458
2.03794
0.696415
1.13152
0.2563
1.0715
0
0.337363
0.515622
0
0.248306
1.21962
1.19658
0.413229
1.35991
1.66257
0.484888
0.26318
1.02938
0.287297
0.0859318
1.23054
0
0.385797
1.19398
0
0.425046
0.468821
0.416458
0.966892
0
1.41421
0.302034
0
0.354609
0.923246
0
0.822682
1.11662
0
0.951098
1.00386
1.15261
0.750486
1.00831
1.28028
0.819047
0.602319
0.860935
0
0.737214
0.426065
1.31464
0.904931
0.705497
0.406916
0.575935
0.523444
0.67241
0.743729
1.18046
0.476021
0.38511
0.769124
0.490597
0
0.611622
0.625867
0.729998
0.825656
0
0
0.230587
0
0.106822
0.97309
1.3527
0.57355
0
0.513227
0
0.381623
0.0986013
0.527595
0.587249
0.296469
0.359731
0
0.778874
0.291027
0.189563
0.406269
0.605397
0
0.203662
0
0.65815
0
0.554847
0.530189
0.436354
0
0.264718
0
0.675402
1.33673
0.422648
0.257243
0
0.735174
0.780362
0.522677
0.704522
0.481469
0.686713
0.731872
0.595015
0
0.378928
0
0
0
0.543592
0.410611
0.599809
0
0
0.650749
0.46148
0
0.402847
0
0
0
0.452214
0.345236
0.458614
0.488944
0
0.449559
0.489521
0.664645
0.585471
0.741982
0
0.874234
0.801474
0.47208
1.01509
0.386311
0.560891
0.481743
0.478634
0.316032
0.727172
0.890438
0.681844
0.943641
0.759038
0.617756
0.750603
0.697855
0.539371
0.557745
0.576963
0.401157
0
0.102786
0.855931
0.747883
0.741447
0.542663
0
0.698395
0.487252
0.32255
0.332093
0
0.568668
0
0.381225
0.3976
0.778938
0
1.0074
0.85244
1.74029
1.38335
0.950853
0
0.912721
0.404973
0
0
0.512156
0
0.669478
0.641866
0
0.403544
0
0.513175
0.147214
0.872334
0.823654
0.925347
0.442387
0.63667
0.533237
0.920718
0.599029
0.56192
0
0.536181
0.542872
0.866431
1.03306
0
0.983795
0.735134
0
0.819887
0.728994
0
0.148225
0.819511
0.536212
0.651859
0.876712
0.273359
0.455173
0.265693
0.298767
0.546757
0
0
0.389451
0
0
0.438424
1.07694
0.65723
0.739165
0.473574
0.685112
0.559143
0.585687
0
0.386905
0
0.224565
0.870114
0
0.405811
0.263333
1.0338
0.498486
0
0
1.41174
0.105751
0.46445
0.841389
0.32343
0
0
0.437051
0.453344
1.42125
0
0.23002
0.752717
1.35229
0.729201
0.454642
1.24579
1.04169
0
2.02934
0.563626
0.831746
0.660261
0.605532
0.394223
0.754492
0.508081
0.403615
1.19375
0
0.631964
0.0951058
0.184878
0.222523
0
0
0
0.441041
0.341474
0
0.606225
0.46864
0
0.52159
0
0.585336
0
0.737939
0
0.486007
0
0.610845
0.75773
0.744865
0
0.924272
0.227516
0.476209
0.392425
0
0
1.20477
0.656562
2.16132
1.43682
0.499533
0.625397
0.649767
0.414702
0.714124
0.604213
0.637224
0.777412
1.08186
0.725498
0
0.448512
0.892925
0.548994
0.376138
0
0.287016
3.60764
0
0.333973
0.747171
0
0.916857
0.640349
0.150383
0.63565
0
0.381838
0.161994
0.31048
0
0.537563
0.405468
0.498268
0.46795
0.876956
0.5905
0
0.670228
0.674195
1.04526
0.890835
0
0.547039
0
0.692807
0.260421
0
0
0
0.425005
1.22605
0.505435
1.47711
0.949122
0.418043
0.558922
0.91845
0
0.43847
1.26221
0.499538
0
0
0
0.198897
0.459686
0.692131
0.775259
0.497129
0.53669
0.500087
0.916962
0
0.624283
0
0
1.22984
0
0.600474
0.574098
0
0.542013
1.04208
0
0.582671
0.667791
0.59697
0.303576
0.815078
1.64794
0.522282
0.831621
0
0.265071
0.387509
0.757936
1.47618
0.393933
0.710241
0
0.0317227
0.664307
0.493548
0.684176
0.423064
0.630031
0.529898
0
0.473024
0.904831
0.676425
0.834293
0
0.631861
0.648162
0.811059
0.807828
1.17513
0.316507
0.351064
1.10069
0.144551
0.193676
0.451627
0.567359
0
0.620474
0
0
0
0.776877
1.64228
1.02653
0.695621
1.20096
0.428565
0.187395
0.727528
0.568013
0
0
0.339617
0.43309
0.397403
0.375868
0.919377
0.575378
1.05042
0.523712
0.751189
0
0
0.454162
0
0.374607
0.782564
0.451601
0
1.05518
0.967849
1.57369
1.16068
0.558587
0.570299
1.04355
0
0
1.06438
0.410234
0.379274
0
0.42274
0.361701
2.17569
0
0.618632
0.416571
1.00781
0
0
0.652381
0
0.682079
0.557336
0.983614
0.692699
0.30482
0.691451
0.354971
0.227596
0.359277
0.520593
0.387802
0.405211
0.505626
1.00443
0
0.339954
0.495349
0
0.670296
0.644171
0.713556
0.31374
0.386965
0
0.388451
0
0.466452
0
1.28206
0.720969
0.846189
1.36125
0.602438
0.323853
0.536316
1.2148
0
0.376914
1.82789
1.4091
1.1039
0.245537
0
0.716061
0.371061
0.894085
0.706754
0.694189
0.62987
0.605965
1.49584
0.679434
0.869039
1.86132
0.435123
0
0
1.02839
1.08293
1.09501
0.698059
0.334073
0.9524
0
0.389149
0.990288
0
0
1.30968
0.705241
1.83293
0
1.28522
1.09954
0.883399
0.275632
0.600707
0
0
0.757234
0.510664
0.516087
0.806873
0.965794
0
2.06041
0.341675
0.787639
0.58356
0.689915
1.4861
0.192014
0.65641
0.362415
0.524035
0.593311
0.488736
1.22824
0.531184
0.623079
1.67121
0.338409
0.194197
0.325828
0.53135
0
0.919713
0
0.259732
0
0
0.510189
1.07879
1.05648
0
0
0.863551
0
1.5609
0.495338
0.12271
0.278999
0.756699
0.588288
0.543941
0.647239
0
0.57816
0.238353
0.636636
0.548892
1.29406
0
0
0
0
0
0
0
0.615084
0
0.824866
1.03963
0.352135
1.09352
0
0
0.747845
0
0.487075
0.777705
1.22836
0
0.558589
0.228476
0.420972
0
0
0.938753
0.665377
1.00559
0.798642
0.8524
0.869854
0.654233
0
0.420909
0.886511
0.645823
0.430712
0.182697
0.497641
0
0.813319
0.321095
0
1.0172
0.658409
0.650014
0.939666
0
0.283578
0
1.08181
0.729047
0.863073
1.01468
0.411073
0.720753
0.681535
0
0.364603
2.50369
1.07737
1.42311
0.815238
0.431918
0
0.647908
0
0.102889
0.347661
0
0.293865
0.512226
0
0.500602
0
1.02805
0.75518
1.96887
0
0
0.582644
0.615373
0.423989
0.518138
0
0.558346
0.731438
0.646986
0.375977
0.645098
0.448956
1.17454
0.937953
0.498808
0.963573
0.334646
0.429556
0
0.523891
0
0.217567
0.62497
0.798907
0.84238
0.921156
0.689667
0
1.09186
2.69565
1.33929
0
0.432054
0.712313
0
0
0
0.669403
0
1.06857
0.644817
0.701105
0
0
1.75177
0
0.894012
0.776288
0
0.969909
1.12497
0.419997
0
0
0.841778
0
1.00447
1.52205
0
1.01278
0.562045
0
1.16065
0.495543
0.283704
0.625273
0.910132
1.03019
0.455861
0.701672
0
2.39458
0.776458
0
0.329194
0
0
0
0.818457
0.985092
0.708493
0
0
0.454346
0.552149
1.66589
0
1.15945
0.598103
0.818429
0.853642
0.893765
1.15629
1.09533
0.801597
0.308537
0.854611
0.639716
0
0.235075
0.526727
1.03601
0
0.51016
0.315841
0.512206
0
0.588771
0.413958
0.435119
0
0.478208
0.749477
0.686952
0.528726
0.175718
0.559571
0.775657
1.05731
0.455707
1.01762
0.505243
0.827978
1.06212
0.963693
0.568318
1.28168
0
0.662066
0.751422
1.99484
0.545832
0
1.37041
0.778782
0.484264
0.950412
0.30849
0.687284
0.529762
0.312676
0.90759
0.654068
0.351223
0.72531
0.603517
1.38721
0.685312
1.50909
0.979948
0.758996
0
0.716754
0
0.480533
0
0.685162
0.778176
0
0.547709
0
0.709989
1.04129
0.962277
1.68568
0.868366
1.10555
0
0.86351
0
1.4134
1.59063
1.52696
4.13525
0.457256
0.420275
2.42923
0.50577
2.35066
0.610367
0
1.67078
0
1.15347
0.59695
1.38192
1.0496
0.561343
0.97155
0.583596
0.553054
1.45495
0
1.3156
0.590768
0.407197
0.463935
0
0
0.698074
0
0.550726
0.910987
0.721474
2.27622
0.808339
1.09507
1.1722
1.11842
0.647348
0.694902
0.620992
0
0
0
0
0
0
0
0
0
0
0
0
0
0
0
0
0
0
0
0
0
0
0
0
0
0
0
0
0
0
0
0
0
0
0
0
0
0
0
0
0
0
0
0
0
0
0
0
0
0
0
0
0
0
0
0
0
0
0
0
0
0
0
0
0
0.401087
0.609843
0
0.389724
0.715517
2.18112
0.36994
0.597627
0.242538
0.560507
1.66617
0.619049
0.45616
0
0.369238
0.547031
0.135693
0.576156
1.03469
0.374258
0.547584
0.487549
0.412799
0.534272
0.277358
0.583905
0
0.442343
0.595269
0.574802
0.656181
0.99121
0.716539
0.375102
1.2102
0.552001
0.398228
0
1.71412
0.743037
0.278642
1.20707
0
0.435911
0.793537
0
0.67871
0.715761
0.438454
0.482121
0.690169
2.86384
0.214295
0
0.626353
0.941158
0.333853
1.98466
0
0.315269
2.13655
0
0.240374
0.530566
0.350989
0
0.736519
0.782151
1.82494
1.28235
0.900336
0.718611
0.909935
0.932748
0.908719
0.331981
0.339435
0
0.915073
0.734205
0.617986
0.405409
0.261328
0.364376
0.444147
1.31695
0.583917
0.375629
0
0.524595
0
0.578755
1.05598
0.640867
0.633491
0.602196
0.669248
0
0.765389
0
0.390551
1.0523
0.771095
0
0.381409
0.750147
0
0.246143
0.537397
0.609836
0.739378
0.274968
0.269329
0.536907
0
0.4999
0.511207
1.00441
0.620421
0
0.321575
1.24755
0.563738
0.646787
0.324738
0
0.525015
0
0.922872
1.42444
0.841323
0
0.798917
0.4694
0.309724
1.16693
0.495373
0.50806
0.918608
0
0
0.650918
0.548322