<?xml version="1.0"?>
<VTKFile type="RectilinearGrid">
<RectilinearGrid WholeExtent="0 32 0 32 0 32" Origin="0 0 0" Spacing="1 1 1">
<Piece Extent="0 32 0 32 0 32">
<PointData>
</PointData>
<Coordinates>
<DataArray type="Float32" format="ascii">
0 0.524874 1.04975 1.57462 2.0995 2.62437 3.14924 3.67412 4.19899 4.72386 5.24874 5.77361 6.29849 6.82336 7.34823 7.87311 8.39798 8.92285 9.44773 9.9726 10.4975 11.0224 11.5472 12.0721 12.597 13.1218 13.6467 14.1716 14.6965 15.2213 15.7462 16.2711 16.796 
</DataArray>
<DataArray type="Float32" format="ascii">
-5.03879 -3.62163 -2.20447 -0.787311 0.629849 2.04701 3.46417 4.88133 6.29849 7.71565 9.1328 10.55 11.9671 13.3843 14.8014 16.2186 17.6358 19.0529 20.4701 21.8872 23.3044 24.7216 26.1387 27.5559 28.973 30.3902 31.8074 33.2245 34.6417 36.0588 37.476 38.8931 40.3103 
</DataArray>
<DataArray type="Float32" format="ascii">
0 0.524874 1.04975 1.57462 2.0995 2.62437 3.14924 3.67412 4.19899 4.72386 5.24874 5.77361 6.29849 6.82336 7.34823 7.87311 8.39798 8.92285 9.44773 9.9726 10.4975 11.0224 11.5472 12.0721 12.597 13.1218 13.6467 14.1716 14.6965 15.2213 15.7462 16.2711 16.796 
</DataArray>
</Coordinates>
<CellData>
<DataArray type="Float32" Name="Scalar" format="ascii">
0
0
0
0
0
0
0
0
0
0
0
0
0
0
0
0
0
0
0
0
0
0
0
0
0
0
0
0
0
0
0
0
0
0
0
0
0
0
0
0
0
0
0
0
0
0
0
0
0
0
0
0
0
0
0
0
0
0
0
0
0
0
0
0
0.127345
0.447851
0
0.390626
0.297072
0.884412
0.263635
1.04496
0.281729
0.375198
2.94426
0.354214
0.266443
0
0.248662
1.51973
0.35882
0.436203
0.794197
0.327785
0.148567
0
0.231646
1.33914
0.132683
0.506148
2.07266
0.436037
0.392031
1.04382
0.213291
0.988076
0.0744567
0.922242
0
0.172401
0.383286
0
0.575665
1.01586
0.723344
0.167964
0
0
0.0935166
0
0
1.48044
0.149969
1.16007
0.378435
0.205391
0.304836
0
0.210853
0.884191
1.24055
0.235857
2.51778
0.512457
0.2585
0
1.64017
0.403625
0.879056
0.547217
0.975693
0.811409
0.83833
0.198198
0.783745
0.660198
0.650844
1.05628
1.18072
0.956793
0
0
0.826007
0.687602
0
0.529847
0
1.19757
0.654505
0.306877
0.86215
0
0.619747
0.907775
0
0.634327
0.418981
0.537709
0.687995
0.480334
1.04514
0
1.05307
0
0.416718
0
1.05937
0.765472
0.727885
0.736577
0
0.467948
0.326265
1.03204
0.521259
0.505171
0.803927
0.523104
0.834727
0.577842
1.05484
0.968478
0
1.04454
0
0.565599
0.424327
1.0128
0.349481
0.393345
0
0.933166
0.647189
0.563174
0
1.41193
1.00518
0.371564
0.494695
0
0.579796
0.390256
0.617533
0.264124
0
1.28759
1.06624
0.904354
0.397575
0.601906
0.857344
0.768567
0.388761
0.33693
0
0.791759
0
1.08031
0.169673
0
0.554265
0.385845
0.525342
0.679639
0.188885
0.355248
0.711159
2.1534
0.976854
0.346834
0.427441
0.739165
0.899636
0.924019
1.12107
1.02543
0
1.10697
0.974837
0
1.03448
0.894865
0.926533
1.69398
0.139252
0
0.756754
0.48573
0.77768
0
0.401544
0.528523
0.135319
0.686275
0
0.435843
0.463217
0.452708
0.891356
0.813006
0.430097
0.441903
4.06355
0.606158
1.13598
0
0
0
0.336823
0.950777
0.685933
0
0.0586338
0.541172
0.589975
0.54852
0
0
0.736254
0.285513
0
0.502306
0.483881
0.604043
0.351796
0.585012
0.697091
0.767525
1.06553
0.447323
0.480459
0.733431
0.770959
1.32013
1.05202
0
0.275806
0.613133
0.55495
0
0.154004
0.735954
0
0
0.561003
0.925195
0.787603
0.480549
0.898799
1.21175
1.11751
0.229346
0.248121
0.223936
0.366878
0
0
0
0.360394
0
0.693614
1.55753
0.758384
0.525005
0
0.551106
0.165345
0.423507
0.360486
0.328054
0
0.604738
0
0.575691
0
1.17249
0
0
0
0.38335
0.999446
0
0.746769
0
0.926277
0.996132
0
1.37274
0
1.22187
0.874643
0
0.965122
0.685085
0.80693
0.547979
0.347403
0.931172
0.747783
0
0.46429
0.341037
0.557764
0.280112
1.52071
0.892961
1.25115
0.507689
0.570748
0
0.453314
0
0.50306
0
0.997226
1.94215
1.10595
0
0.710682
0.841021
0.475283
0.713874
0
0.788497
0
0.466314
0
0
1.05581
0
0.438755
0.493292
1.75102
0
0.606046
0
1.9343
0.73027
1.69344
0.52744
0.409046
0.521819
0.324649
0.43025
0
0.876243
0.615588
0
0.521177
1.05399
0.636214
0.366656
0
0.317658
0.544759
0.384697
0
0.442175
0
0
1.06104
1.00734
0.397718
0.371298
0
0.519197
0.48772
0.486729
0
0.296112
0.382525
0
0.477533
0
0.754012
0.708135
0.881109
1.5072
0
0.311227
0.849969
0.543849
0.759493
0.406891
0.604959
0.86898
0
0.642298
0.638734
0.615431
0.630882
0.400337
0
0.284629
0.282065
0.796382
0.399581
0.362759
0.605304
0
0.703549
0.984901
0
0
0
0
0.569747
0
0.608679
0.383704
0.521667
1.20452
0.635378
0
0.691879
0.595332
0.413611
0.443762
0.566455
0.464887
0.769148
0.291831
0.400941
0.302428
0.61024
0
0.40537
0.610319
0.797837
0
0
0.470395
0.378638
0.652187
0
0.616232
0
0.450569
0
0.429684
0
0.693687
1.24075
0.420095
0
0.395335
0
0.544464
0
0
0.546993
1.83663
0.626885
1.63722
0.255357
0.335893
0.601352
0.525861
1.10598
0
0
1.17096
0
0.327959
0
0.318041
0.988405
0.335672
0.947809
0.813522
1.70081
0.398991
0
1.13911
1.00306
0.704882
0.819195
0.569989
0
0.393096
0
1.03511
0.675676
2.67644
0.793802
0.660627
0.262289
1.09993
0.594769
1.23431
0.594267
0.29993
0.523771
0.492504
0.851191
0
0.462768
0
0.982431
0.70045
1.34179
0.29828
0.43816
0
0.771621
0
1.08593
0.337829
0.261005
0
0.505663
0.222179
0
0.732935
0
0.859012
0.782931
0.666761
0.549253
0.665464
1.64908
0.941043
1.46009
0.314935
0.347974
0.209362
0.656054
0.501479
0.476151
0.564695
0.375979
0.748293
0.433037
0.570434
0.367305
0
1.45974
0.819845
0.763551
1.10656
0
0.43313
0.554834
0.474014
1.12894
0
0.590466
0
0.641499
0.423469
0.938758
0
2.11341
1.11279
0.600756
0
0.544442
0.390026
0
0
0
0
0.666847
0.456215
0.841686
0
0.376988
0.288152
0.761095
0.307255
1.13965
0.27421
0.798366
0.440694
1.21137
0
0.535135
1.43478
1.0699
0.80194
1.3507
1.51047
0.917653
0.474053
0.268254
0.705428
0.635931
0
0.460291
0
1.22192
0.513882
0.511268
0
0.757161
0.290496
0.68884
0.538006
0.388792
0.472908
0.292342
0.50874
0.471529
0.120863
0.441079
0.596388
0
1.28482
0.704896
0.745183
0
0.479446
0.988429
0.795974
0
0.5802
0.188631
0
0.4965
0
0
0.865465
0.684812
0.560458
0
0.61422
1.1407
0.860358
0.429432
1.9692
0.707351
1.11429
0.87111
0.822859
0.529863
0.607214
0.356857
0
0.33814
0
0.841385
0.699205
0.935233
1.1251
2.28205
0.526036
0.471849
0.596157
0.564227
0.938237
0.465514
0.711803
3.10253
0.900615
0.556136
0.34845
0.650057
0.799639
0.512902
0.636166
0
0.748872
1.07655
0.445079
0
0.366289
0.432077
0.739215
0.596512
0.564907
0.654778
1.28282
0.622433
0.552297
0.326505
0.774926
0
1.68943
0
0.878753
0
0
1.09411
0.781888
0
0
0.337056
0
0
0.966752
0.914442
0
0
0.950579
0.988702
0.45787
0.511657
0
0.347086
0.458533
0.576386
0
0.87963
0.982636
0.208873
0.471688
0.460986
0.528058
0.268612
0.303408
0
0.367435
0
0
0
0.727851
0.659543
1.01655
0.928832
0.912873
0.445848
0
0.683586
0.985201
0.413489
0.382358
0.66047
1.03016
1.47765
0.369198
0.485533
0.403822
0
1.30239
0.492631
0.660727
0.336886
0.849153
0.833309
1.31817
0
0.595899
0.953078
0.472426
1.83059
1.3031
0.993582
1.15402
0
0.587448
0.630492
1.63615
0.411979
0
1.20312
0.462462
0.968108
1.73288
0.897232
0.790449
0.206016
0
0
0.452439
0
0
0.515387
0.464678
0.301571
0
0.947688
0.144973
0
0.634733
0.775936
0.523113
1.09228
0.40801
0.46444
0
0.869532
0.850088
0.775854
0
0.466182
0.697374
0
0.79799
0.969238
0.712755
0.602677
0.684705
0
0.744596
0.628794
0.384481
1.08864
0.464199
0
0.799189
2.53135
0.478386
0
0.249039
0.509792
0.660869
0
0.782714
0
0
0.796664
0.360177
1.12595
0.716486
0.866958
0.961954
0
1.26082
0
0.999601
0.970208
0
2.1718
0
0.758733
0.5517
0.543918
0.747326
1.30224
1.32695
0.517662
0
0.649218
1.16625
0.312859
0
1.91187
0.508458
0
0
0.641079
0.736728
0.711117
0.710671
0.997929
0
0.17552
0.38379
0
0
0.630581
0.716946
0
0.892159
0.888623
0.41056
0.525865
0.78609
0
0.49407
1.15497
1.26202
0.235929
0.708934
0
0
0.966305
0.906653
0
0.389204
1.28291
1.69894
0.774379
0.537945
0.618682
1.23691
0.55241
0
0
0.394887
0
0.405184
0
0.323126
0
0.792453
0.785686
0.354266
0
0.467659
0.378562
0
0.450753
0.467332
1.0406
0
0
1.37095
0.405787
0
0.627848
0.634648
1.10131
0.273164
0
0.703563
1.24952
1.26502
1.2926
0.514903
0.351725
0
0
0
0.63871
0
0
0.519637
0.44855
0.435193
0.220027
0.497239
0
0.301559
0.519874
0.916249
0.717165
0.263414
0
1.02386
0
0
0.348241
0
0.536202
0.399818
0.320546
0.460544
0.303923
0
0.439219
0
0.431788
0.428348
0.673357
0.665328
0.743842
0.290787
0.574066
0.758858
0.83959
0.512866
0.769145
0.954374
0.461323
0.653694
0.381556
0.682288
0
0
0.619389
0.340681
0.535737
0.115768
0
0
0
0
0
0
0
0
0
0
0
0
0
0
0
0
0
0
0
0
0
0
0
0
0
0
0
0
0
0
0
0
0
0
0
0
0
0
0
0
0
0
0
0
0
0
0
0
0
0
0
0
0
0
0
0
0
0
0
0
0
0
0
0
0.527291
0.781643
0
0.485638
0.632991
0
0.238199
0.784504
0.36049
0.297367
0
0.365986
0.577084
0
0.630378
0.750809
0.429892
0.753699
2.04223
0.524655
0.632165
0
0.369692
0.870766
0.260103
0.520221
0.91768
0.696202
0.391443
1.51125
0.378906
2.1378
0.600749
0.357844
0.580236
0.85853
0.254324
0
0.645271
0.65492
0.242459
0.942594
0
0.0958958
1.85792
0
0.381443
0.977549
1.60314
0.34133
0
1.31932
0.118156
0
1.11766
0.974658
0.353556
1.01807
0
0.398953
1.82498
1.43444
0.170644
0
0
0.563727
0
1.18276
0.280138
0.365695
0.591609
0
1.05453
0.0802208
0.464198
0
0.600775
1.55996
0
1.52283
0.901533
0.763374
0.652611
0.968384
0.78817
1.04734
0.712356
0.834202
0
1.13052
0.881231
0
0.943699
0.871519
1.5792
0.880577
0.694413
0.605817
0.741654
0.979498
0.767496
0.926522
0.700479
0.434883
0
0.451182
0.507371
0.175669
0.918925
0.454277
0.5241
0
1.27406
0.365034
0
0
1.08581
0
0.626712
1.69049
0
0
0.822883
0
0.678049
1.26313
1.22942
1.64047
0.638858
0.626785
0
1.10866
0.939551
0.778017
0.833497
0.400168
0.832148
0
0
0.126403
0.569467
0.361397
0
0.461252
0.604653
0.904182
2.30438
0.437231
0
0.519577
1.08522
1.6483
1.079
0.805413
0.849511
0.875157
0.50681
0.306475
0.208587
1.21228
1.2527
0.683953
0.433781
0.918037
0
1.09933
0
0.761046
0.745552
0.439166
0.362345
0.601659
0.310811
0
0.485083
0.718189
0.716738
0
0.593739
1.02702
0.449355
0.293185
0.621379
0.491938
0.640435
0.523421
0
0.246865
0.419758
0
0.780841
0
0.574615
0
0
0
0
1.0728
1.44143
0.180327
0.959047
0.758595
0.427271
0.530637
1.55578
0.566173
0.65457
0.666974
0.385136
0.587689
0
0.384001
2.4679
0.599794
0
0.911507
0.43555
0.937461
0.293048
0
0.855708
0.512014
0.677364
0.909255
0.789866
0
0.862085
0.245958
1.06956
1.03283
1.42758
0
0
0
0.407029
0.422426
0.315874
0
0.557149
0
0.643806
0.615589
0.760023
0.711727
0
0
0.329193
0.373985
0.476625
0.639061
0
0
0.57066
0.667549
0.764796
0.793508
0.974557
0.169124
0.281253
0.691402
0.608477
2.47881
0.261655
0.32517
0.413614
0.571319
0.227718
0.568053
0.281551
1.05958
0
0.589626
0.638641
0.855482
1.16149
0
0.552412
0.934425
0.776769
0.471631
0.567787
0.782258
0.595672
0.362719
0.672119
0
0.682597
0.503883
0.572056
0.646622
0.594613
0.21605
0.538565
0
0.394645
0
0.915411
0
0.659753
0
1.23626
0
0.872156
0
0.640211
0.805516
0
0
0.677819
0
0.498092
0.468444
0.912929
0.386145
0.571261
0.891971
0.981837
0
0.339622
0
0.432365
0.515167
1.49347
0.513473
1.07446
0
0.312565
0.374364
0.781003
0.92018
0.440374
0.311969
1.02773
0.845592
0
0
0.539126
0
0.284325
0
0.45291
0
0.211448
0.180496
0
0
0.366628
0.23476
0.231169
0
0.866485
0.518092
0
0.525463
0.207141
0.673925
0.532477
0.462233
0
0.559829
1.19088
0.47069
0.934801
0
0.573944
0.653752
0.810283
0.421842
0
0.495189
1.02327
0
0.333844
0.768466
0.830995
0
0.332453
0
0.542646
0.804264
0.455269
0.440797
0.250643
0
0.497754
0.989059
2.71809
0.649047
0.202181
0.404468
0.782788
0.310414
0
0
0.733579
0.93667
0.72973
0
0.706967
0
0.475405
0
0.469204
0.48657
0.839274
0.631181
0.843387
1.20225
0.560296
0.337979
0.2886
0.571386
0.443086
0
0.358398
0.534404
0.589115
0.741217
0.658326
0
0.528815
0
0.497466
0.824136
0.370478
1.63361
1.34719
0.303154
0
0.346567
0.701375
0.728136
0.756317
1.26345
0.456864
0
0.725891
0.509022
0
0
0.390458
0
0.0853671
0.629073
0.221267
0.766712
0
0.779464
0.512026
0
0.709301
0
1.12325
0.821394
0.964346
1.00714
0.426575
0
0.527362
0.711639
0
0.337043
0
0.439303
0
0.562514
0
0.453622
0
1.02188
0
0.644015
1.19546
0.860424
1.59528
0.875096
0.582711
1.26542
1.05787
0.574599
0.234375
0.461814
0
0.323527
0
0.644585
0.837692
0.266131
0.163916
1.45169
0.887873
0.576426
0.379461
0
0
0
0.899078
0.566932
0.496384
0.359217
0.636504
1.09539
0.189115
0
0
0
0.600817
0.984216
0.620931
0.329226
0.857858
0.405533
0
0.349347
1.48929
0
0.603302
0
0.991044
1.08181
1.09791
0.350315
0.789793
0.364707
0
0
0
0.324984
0.713716
0.828074
0.453967
0.751584
1.00935
0.322616
0
0.332256
1.2186
0.438711
0.828623
0.551941
0.510503
0
0.482668
0.381352
0
0
0.529513
0
0.429269
1.32054
0.728595
0.664562
0.675223
0.686634
0.388958
1.04649
0.499029
0.422247
1.74673
0
0.468832
0
0.425569
0.97337
1.41278
0.665184
0.617839
0.953603
1.26971
0
0.673347
0.261108
0.963068
0.386791
0.507098
0
0.771953
0.59971
0.611487
0
0.476618
0
0.702899
0
0.353217
0
0.657818
0.796624
0.465993
1.08653
1.87555
0.999278
0.767825
0
0.491212
0
1.06881
0.480332
0
0.742048
0
0.636965
0.546198
0.606933
0.464944
1.68064
0.27557
0
0.764066
0.766729
0.622414
0.495285
0.445133
0.351242
0.489379
0
0.848268
0
0.560412
0
0.64487
0.25916
0
0
0.192154
0.608348
0.752383
0.635688
0
0
0.526895
0
0.390862
0.424399
0.754266
0.397574
0.138512
0
0.431103
1.00962
1.32146
1.42179
0
0.568364
0
0.711322
0
1.88403
1.11582
0.361185
0.485543
0
0.600455
0
0
1.64437
0.310106
1.5466
1.79195
0.403659
0.453594
0.965769
0.38416
0.627714
1.98021
0.4001
0
0.282729
0
0.431454
0.428215
0.585543
0.683905
0.220614
0.394305
0.344719
0.341369
0.532924
0.781554
1.8874
0.319874
0
0.551012
0.911237
0.610851
0.995989
0.654255
1.67598
0.546833
1.75772
1.021
0
0.711913
0
0
0.479437
0.520557
1.13077
0
0.846131
0.374779
0
0.597741
0
0.961574
0.487382
0
0.695174
0
0.732066
0.485883
0.460432
0.31518
0
0.473505
0
0.652478
1.21763
1.19094
0.178466
0.586908
0.342423
0.0838432
0.0696599
0.626547
0
0.184182
0.705467
0
0.517319
0
0.767498
0.147702
0.649604
0.181618
0.515057
0.521013
0.356925
0
0
0
0
0.566318
0
0.73701
0.654172
0
0.487346
0.641895
0.26534
0.73456
0.225261
0.678004
0.489626
0.547326
0.26862
0
0.778474
0
0
0.729121
0.596426
1.338
0.839496
0.692528
1.02977
0.94567
1.08564
0.685589
0
1.02766
0
0.578242
1.44465
0.583251
0.741358
0.599563
0
0.521598
0
0.940567
0
1.04525
0
0
0.502653
0.589329
0.416805
0.352452
0.673242
0
0.699525
0.720289
0
0.877719
1.62058
0.235175
0.6862
0
0.886184
0.490836
0.676857
0.536118
0
0.49073
0
0.66272
0.638495
0.808387
0.59888
0.738309
0.356764
1.21228
0.92983
1.09213
0.539921
0.659743
0.683371
0.790068
1.27186
1.33325
0.849902
0
1.15484
0
1.81875
0
0.466948
0.998422
0.77712
0
0.235994
0.28852
0.774686
0.669868
0.681136
0
0.414955
0.705871
0.847935
1.01198
0
0.133239
0
0.308032
0
0.557979
0.531917
0.481367
0.488467
0.686114
0
0.627261
0.171478
0.401862
0.126579
1.01065
1.70942
0.788113
1.41478
1.05549
0.895297
0.337223
0.606348
0.561255
0
0.703179
0.249426
0.311321
1.19307
1.10806
1.04535
0.601611
0
0.254679
0.555022
0.514865
1.01051
0
0.746263
1.04997
0.681057
0
0.542459
0.709531
0.5599
2.30531
0.980054
0.241081
0
0.652128
1.976
0.632604
1.06064
0.514286
0.849903
0.705727
1.44759
0.550985
0.926346
0
1.04415
0
0.473059
2.40146
0.668293
0
0
0.501215
1.51904
0
0.551509
0
0.518856
0
0.534827
1.5037
0.696963
0
0
0
0.677912
0.532169
0
1.17446
0
0.799146
1.06878
0.675294
0.492104
0.915436
1.70179
0.371948
0
0.414752
0.518223
0.848157
0.832791
0.363591
0
0.747771
0.939112
0.72102
0.652939
0.396201
0.770416
0.641883
0.648845
0.864206
0.431734
0
0.89231
0.396555
0.342129
0.385915
0.624248
0
0.997867
0.608237
0
0
0
0
0
0
0
0
0
0
0
0
0
0
0
0
0
0
0
0
0
0
0
0
0
0
0
0
0
0
0
0
0
0
0
0
0
0
0
0
0
0
0
0
0
0
0
0
0
0
0
0
0
0
0
0
0
0
0
0
0
0
0
0
0
0
0
0.817179
0.594034
0
0
0
0
0
0
0
0
0.645276
0
1.18668
0
0
0
0
0
0
0
0
0
0
0
0
0
3.4096
0
0
0
0.410144
0
0
0
0.185609
0
0.717575
0
0
0
0
0
0
0
0
0.484325
0
0
0
0
0
0
0
0
0
0
0
0
0
0
0
0.96879
0.64407
0.918694
0.272926
0.657125
0.563596
0.722379
1.00637
1.05914
0.345733
0.504223
0.949377
0.349587
0
0.777492
0
0.440487
0
1.05823
0
1.26299
0
2.39921
2.09292
0.674103
0.494918
0.865666
0.67563
0.946094
0.608341
1.34744
0.494625
0.63638
0
0.739064
0
0.726451
0.543988
0.243349
0.303659
0
0.329637
0.900312
0
0.346518
0
0.817147
0
0.653232
0
0.561285
0
0.812343
0.917303
1.22593
0.604984
0.973352
0.308385
0.499805
0.629446
0.52387
0
0
0.668336
0.633353
0.838593
0.397093
0.778693
0.962046
0
1.77086
0
2.33636
1.24679
1.13236
0.642363
0
0.649226
0.374529
0
0.672758
0.566295
0.30503
0.960347
1.54731
0.41515
0.415238
0
0.698828
1.64121
1.00149
0.639631
0.359409
0.262512
0.934548
0.865447
0
1.19693
0.649805
0.56884
0.0919471
0.352832
0.839021
0.368471
0.720295
0
0.480202
0.856221
1.39872
0
0.61873
0.931793
0.973956
0.485045
0.711183
1.24459
0.58012
0
0
0.119618
0.830295
0.851902
0
0.762033
0
0.599433
0
0.790879
0.690588
0.612367
0.730808
0
0.3666
0.470242
0.679216
1.02429
0.834283
0.617418
0.938537
0
0
0.492012
0
0.828309
0
0.137816
0.267108
0.409442
0.348522
0.491197
0.874779
1.43062
0.515593
1.19162
0.69529
0.55543
0.161929
0.764333
0.980444
0.921577
0.35302
0.61821
1.80819
0.632774
0
0.55054
0.25937
0
0.711491
0.669106
0.399748
0.645629
0.285387
0.452709
0
0.837589
0
1.82778
0.494826
0.990613
0.85182
0.520064
0.491106
0.272848
0
0.414814
0.419599
0.7526
0.432698
0
1.21207
1.10945
0.896492
0.637054
0.624605
0.622343
0.841766
1.97739
1.11368
0
0
0.403327
0.611327
0.395034
1.16015
0.727984
0
0.984021
0
0.660606
0.226322
0
0
0
0
0.683535
0.18574
0
0.356646
0.554839
0.290118
0.587374
0.281495
0
0
0.992864
0.676796
0.248497
0
0.618762
0
0.466262
0
0.695012
0.373199
1.27844
0.85601
0.709577
0
0.813494
0
0.480585
0.43826
0
0.8121
0
0
0.395925
0.427288
0.527923
0
0.623078
0.422249
0.361924
0.485033
0
0
0.376813
0.480189
0
1.13019
0.957593
1.37359
0.75318
0.716137
0.814417
2.34151
0
0.881219
2.63886
0.425662
0
0.489697
0.841309
0
0.419763
0.572686
0.707861
0.648375
0.316791
0
0
0.246378
0
0.359125
0.292979
0.666244
0.674175
1.3516
1.09003
0
0.339805
0
0
1.10621
0.504932
0
0
0.651788
0
0.541725
0.724728
0.367887
0.347838
0.287817
1.18528
0.728958
0.853415
0.581424
0.62454
0
0
0.167887
0.450518
0.201597
0.410076
0.385893
0
0
1.05634
0.546404
0.529922
1.29388
1.07661
0.333327
0.205062
0.462203
0.707439
0.751135
0.607833
0.630292
0.407
0.099166
0.131583
1.00825
0.839682
0
0
0
0.496792
0
0.353477
0.171685
0.221267
0.455728
0
0
0
0.0737536
0.151251
0.641033
0
0
0.490591
0.0760078
0.709617
0
0.516089
0
0.647141
0
0.733586
0.79937
0.170356
0
0.397005
0.175541
0.253069
1.24296
1.54368
0.511193
1.41905
0
0.504061
0.539308
1.33202
0.859877
0
0.565628
0.352067
0.503769
1.24067
0.616177
0.981073
0
0.679773
0.91203
0
1.41147
0.523
0
0.781855
0.76643
1.20592
0.497739
0.415687
0
0.406909
0.691848
0
0.978327
0.946302
0.363095
0.430602
0.508266
0
0.858811
0
0
0
0.43169
0.755364
1.17173
1.78969
0
0.643694
0
0.769185
0.410621
0
0.409512
0
1.42228
0.506058
0
0
0.62088
0.721837
0
0.704549
0.572458
0.534997
0
0.690999
0
1.02099
0
0.407604
0.348959
0.394232
0.62621
0.638268
0.636283
0
0.623268
0
1.15782
0.694134
0.686517
0
0.923527
1.07435
0.869317
0.843613
0.309867
0.350828
0.893907
0.572426
0.11985
0.27522
0.341063
1.59997
0.382971
1.13446
0.353733
0.434738
0
0.477133
0.259074
0.451908
0
0.816851
0.336181
0.77561
0.593391
1.22466
0
0.789412
0.801323
1.0666
0.43176
0.240451
0.845911
1.50879
0
0.758428
0.429872
1.07509
0.71084
0.313994
0
0.256315
0.781237
0
0
0.478682
0.969677
0.221262
0
0.313645
0.617973
1.30605
0.288613
0.557307
0.499798
0.569615
0.852287
1.38975
0.346526
0.397298
0.363917
0
0.326448
0.804456
0
0.959488
0
0.526355
1.453
1.33164
0.462183
0
0.555866
0.782253
0.992235
0
0.682675
0
0
0.0683112
0.538074
0.645747
0.992881
0.738712
1.094
0.818966
0.758719
1.61516
0
0
0.870338
0.606453
0.305369
1.28105
0.705441
0.568099
0.254585
0
0.483072
0.388624
0.343855
0.404887
0.488588
0
1.10933
0.771601
0.952479
0.731119
0
1.00384
0.166245
0.733564
0.524746
0.667319
0.551521
0.587732
0.659651
0.7734
0.538944
3.79349
0.638881
0.569
0.83491
0.885056
1.12532
0
1.70321
0.356447
1.01718
0.834751
0.342065
0.29693
0.620169
0.679856
0.564834
0.642508
0
0.657658
0
0.796857
0
0.717678
0.915556
0.553297
0.747898
0.617514
0.5159
0.50359
0.78414
0
0.573644
0.818383
0.517985
0
0.544098
0
0.386794
0
0.312172
0
0
0.508995
0.316856
0
0
0.212199
0.557957
0.587589
0.306262
1.09251
0
0.486838
0.751
2.08012
0
0
1.04307
0.882596
0
0.524532
0.376346
1.1071
0.786745
0
1.4912
0.94693
0
0.738262
0.45657
0.500726
0
0.397135
1.12646
0.464117
1.04092
0.71773
0.384311
0.648214
0.840567
0.432513
0.977066
0.77741
0
1.07019
0.593845
0.885771
0.908354
0.461171
1.15727
0.42151
0.517335
0.552555
0.737015
0.598104
0.979847
0.389531
0
0.666445
0.634365
0.53786
0.458696
0
0.313634
0.482581
0.759948
0.477762
0.752893
0.791108
0.685654
0.693368
0.811562
0
0.812644
1.58751
0.796656
0.365484
0.777446
1.29268
0.510743
1.11467
0
0.697985
0.44288
0.424841
0
0.647642
0.465434
0.542011
0.857839
0.448
0
0.300847
0.482945
1.12287
2.24766
0
0.353057
0.856322
0.472124
0
0.544558
0.724706
0.657899
0.586749
0.151399
0.462183
0
0.580106
0.625398
0.950008
0.431743
0.703139
0
0.352037
0
0.283299
0.742329
0.450622
0
0.872463
0.910115
0
0.936189
0
0.466733
0.239076
0.784384
1.79334
0
0.206675
0.984796
0
0.614564
0.78712
1.69771
0.323145
1.40854
0
1.05177
0.866542
0.351319
0
0.443679
0
0
0.705965
0
0.319029
0
0
0.577175
0.451346
0.61902
0
1.29298
0.871421
1.00709
0.460365
0.595822
0
0.784173
0
0.911175
0.291591
0.765226
0.801431
0
0.271043
0.154557
0.582444
0.929518
0.147801
0
0.94275
0.805421
0
0
0.690733
0
0.807559
0.514234
0.569423
0
0.546294
1.10453
0.621734
0.451693
0
0.863461
1.07623
0.534158
0
0
0
0
0.586457
0.470421
1.04075
0.690875
0.409684
0
0.384408
0
2.25447
0.982759
1.37626
0.446261
0.694516
1.20353
0.447582
0.822937
0.670999
0.525603
0.784095
0.888301
0.38421
0
0.824397
0
0
0.781476
0.872857
0.222971
0.787083
0.377914
0
1.23873
0.773681
0
0.286065
0.534652
1.09651
0.510054
0.342034
0
0
0.855137
0.733879
1.2981
0
0.819804
0.710396
0.318281
0
0
0.570385
0.532233
0.921982
0.967284
0.661892
0
0.956968
0.401935
0
1.16384
0.3499
0.755609
0.732907
0.63694
0.518646
0.449926
0.934114
0.337125
0.510006
1.16787
0.894004
0.38594
0.185497
0.389471
0.359062
0.796738
1.42659
0
0.918734
0
0.788228
0.749834
0.69996
0.603451
0
0.35914
0.135788
0
0.610343
0.728527
0
0.591695
0
0
0
0
0
0
0
0
0
0
0
0
0
0
0
0
0
0
0
0
0
0
0
0
0
0
0
0
0
0
0
0
0
0
0
0
0
0
0
0
0
0
0
0
0
0
0
0
0
0
0
0
0
0
0
0
0
0
0
0
0
0
0
0
0.310317
0.396023
1.04197
0.409704
0.453822
0
0.615239
0.990702
0.40657
0.419405
0
0.558597
0.688032
0
0.544275
0.897125
0.323472
0.296759
0.784009
0.619792
0.336827
0
0.629744
0.832447
0.192478
0.433606
0
0.424624
0.719724
0
0.476858
1.35082
0.375655
0.790201
0
0.292402
0.654142
0
0.680811
3.51707
0.63847
0.140451
0
0.720103
0.894055
0.676797
1.11235
0.843773
0.22717
0.671291
0
0.207934
0.802418
0
0.367054
1.24916
0.293031
0.594773
0
0.509399
0.347637
0
0
0.986921
0
0.863405
0.510221
1.15636
0.662152
0.535572
0.557029
0
0.712851
0.533168
0
0.525806
0.410964
0.771857
0.860328
0
0.696753
0.465743
0
0.619743
0.671238
0.453553
0
1.3227
0
0.516306
0
0.637947
0
0.109039
0.820714
1.28151
0.511042
0.769044
1.13582
0.570982
0.654097
0.687233
1.16947
0.768094
0
0.498008
0
0.403677
0
1.05928
0.248215
0
0.538064
0.695943
0
0.399704
1.13513
0.613111
0
1.25381
0.549385
0
0
0.406587
0.686077
0.765979
0.994143
0.794529
0.480782
0.659118
1.35974
0
0.75698
0.58617
2.03958
1.28086
0.462301
0.75963
0.631109
0.870309
1.13509
0.982842
0.653652
0.69602
0.245472
1.66277
0.53812
1.23442
0.488558
0.8227
0.795272
0.878005
0
0.580623
0
0.681956
0
0.720524
0
0.741286
0.491422
0.675105
0.895831
0.219659
0
1.08628
0.375882
0.524995
0.795867
0.815929
0
1.62234
1.20809
0.461768
0
0.360264
0
0.65281
1.56121
0.214332
0.518121
0.523337
0
0.543525
0.491307
0
0.990701
0
0.809824
0.351686
0.577114
0.54172
0
0
0
0
0.187046
0
0.765498
0.504941
1.52024
0
0.445957
0.130049
0.740433
0.185196
0.405731
0.709513
0
0.66561
0.761844
0.341765
0.551848
0
0.921077
0.522525
0.873611
0.800648
1.20892
0.831123
0.955844
0.924609
0
1.17568
0.914074
0.645368
0
2.30179
1.05396
0.308696
0.547837
0
0.402919
0
0.427793
0.577797
0
0.617457
0.687581
0.566754
0.477053
0.553402
0.744146
0.564625
0
0.683954
0.198344
0.364925
0
0.746253
0.718853
0.617276
0.933475
1.95952
0.763082
0
0.459158
0.608689
0.490974
1.36673
0.861111
0.126762
0.64199
0
0.951253
0.509337
0.594797
1.6615
0
1.39745
0.575132
0.247676
0.666517
0.632043
1.07782
0
0.664769
0.159682
0.129639
0.905117
0.828572
0
0
0.851652
0
0.541795
0.264611
0
0.367104
0
1.10233
1.12781
0
1.6672
0.804945
0.0741328
0.240396
0
0.672944
0
0.597069
0
0
0.615216
0.374314
0.474854
0
0
0.523677
0.586414
1.06325
0.934021
0.817101
0.243174
0.599716
0
0
0.352915
0.461341
0
0
0.699479
0
0.553996
0.933322
0.350874
0
1.10025
0.516196
0.921466
0.766037
0.425474
0
1.10818
0
0.381872
0.548485
0.709507
0
0
0.457929
0.447036
0.53585
0.609866
0.802798
0.407524
0.860827
0.31221
0.258753
0.372632
0.183231
0
0.385997
0.550593
0.49755
0.550851
0.72281
0.470492
0.304127
0.499102
0.392278
1.15444
1.08644
0.807619
0.333585
0.29295
0.266201
0.683615
0.952982
0.295631
0
1.31712
0.821714
0.549627
0
0.385974
0
0.434265
0
0.528831
0.716383
0.430611
0.570498
0.626776
0.604282
0
0.776506
0
0.500359
0.108702
0.793715
0
0.408642
0
0.453726
1.0015
0.221183
0.435859
0.336228
0.637322
1.5555
0
0.514994
1.5726
0.436255
0
0.231962
0.320099
0
0.347815
0.988676
0.563771
0
0.408097
0.606311
0.455762
0.615015
0.448268
0
0.593593
0
0.317792
0.403974
0.336204
1.20099
0
0.526192
0
1.02265
0.894998
0.388468
0
0.629223
1.22851
0.651396
1.69979
0
0
0.497647
0
0.395631
1.52478
0.583442
1.12229
1.58387
0.698921
0.775581
0.101662
0.318845
0.155808
0.567224
0.802221
1.54414
0.479522
0.783812
0.816204
0.709652
0.407956
0.71365
1.13344
0
1.07234
0.869929
0
0.912184
0
0.443657
0.247751
0.736078
0.619989
0.602412
0.0864689
0.551013
0
0
0
0.557297
0.407981
0.927425
1.41938
0
0.655942
0.523611
0.609208
0.724134
0.320084
1.26494
0.326787
0.609843
1.22408
0.991815
0.57792
0.787045
0.713598
0.713733
0.265318
0.525618
1.3098
0.36013
0.33825
0
0.282714
0
0.738653
0.300282
0
0.359727
0.266803
0.435493
0
0.304534
0.377621
0.578415
0.21296
0.489172
0.828017
0.710434
0.553554
0
0.406482
0.683792
0.35614
0.413459
0
0
0.698591
0.463557
0.572903
0.546752
0.837085
0.934752
0
0.560213
0.456287
0.647316
0.345582
0.544854
0.771926
0.598657
0
0.459749
0
0.483894
0
0.36892
1.11932
0
1.09903
0.30416
0.45844
0.235481
0.250522
0
0.464465
0.654308
0.538776
0.425452
0.61653
0.531268
0.847193
0.375814
0
0.276795
0.534445
1.36588
0.700095
0.132494
0.268418
0
0
1.39895
0.482434
0.737373
0
0.423535
1.32496
0.557298
0.720368
0.744732
0.75165
0
0.596135
0.747621
0.793923
1.13934
0
0.370939
0.534619
0.559818
0
0.387122
0.45348
0.0728058
0.656629
0.984325
0
0.93658
1.6251
1.00657
2.38389
0.37558
0
0.445379
0.813469
0.959283
0.257698
0.557562
0.67237
0
0.504837
0
0.329743
0
0
0
0
0.624911
0.669595
0.815905
0.320679
0.394526
0
0.8524
0
1.98228
0
0
0
0.305188
0
0
0.571393
0.404417
1.10625
0
0.782989
0.417676
0.286399
0.21607
0.157328
0.50113
1.20561
0
1.85009
0.982696
0
0.711139
0.991616
1.91681
0.547211
0.486903
0.425145
0
0
0.775079
0
0.64476
0
0.992616
1.8229
1.21835
0.919334
0.601845
0.72539
0
0.569557
0.547707
0.749116
0.363086
0.534347
0.386091
1.02933
0.493985
0
1.01475
0.607775
0
0.663024
0
0
0
0
0.772781
0.672078
0.470256
0.398274
0.771388
1.19031
0.733078
0
1.25491
0
0.469399
1.07784
0.406531
0
0.438339
1.73078
0.478797
0.374159
0.740808
0.785507
0.315415
0
0.576411
0.805288
0
0.860942
1.25989
0.46672
0.560197
0
0.410348
1.10342
0.230475
0.564478
0
0
1.1263
1.03765
0
1.05642
0
0
0.470223
0
0.333466
0.561533
0.65711
0.876429
0.858709
0.589053
2.33627
0.553926
0
0.623883
0
0.755799
0.640798
1.78991
0
0.798383
0
0.829671
0
0
0.196412
0.904141
0.668863
0.650877
1.02509
0
0.83965
0
0.86553
0
0.433562
0
0.837911
0.487969
0
0.816849
0.430494
0.333273
0.449082
0.347458
0
1.0409
0.648038
0.944087
0
0
0
0.558878
0
0
1.31531
0.354464
0
0.574339
0
1.60071
0
1.27308
0
0
0.492692
0
0
0.208657
0.977447
0.976038
1.15547
0
0
0.897452
0.487607
0.400441
0.47725
0.547776
0.940601
0.45079
0.877189
0
0
1.0506
0
2.19012
0
2.22734
0
0.709736
0.587674
0
0.715035
0.289437
0.508286
0.316528
0.490895
0.122946
0.225115
0.299463
0.880125
0.771676
1.27522
0
0.41419
0.490725
0.678363
0.524805
2.10645
0.358686
0
0.519202
0.498606
0.468808
0.372179
0
0.821644
0.664259
0.79302
0.917834
0
0.304286
0.291832
0
0.878791
0.776445
0.856629
0.688501
0
0.509339
0
0
0.5198
0.332525
0.995104
0
0
0.478749
0.771074
0.524915
0.773278
0.849819
0.473263
0
0.359568
0.645608
0.554956
0.298736
0
0
0.661732
0.185339
0.979981
0
0.744836
0.638676
0.634078
0.78496
0.991337
0.705429
0
0.565854
0.401148
1.00299
0.771261
0.699081
0
0.626357
0.433504
1.01428
0.860101
0.511101
0.543207
0.624895
0.278898
0.7955
0.232541
0
0.976092
0
0
0
0.702454
0.347093
0
0
0.551015
0
0
0.89337
0.845917
0.918256
1.09354
0.330986
0.407646
0.587103
0
0.351851
0
0
0.916459
0.839515
0.284165
0.337773
0.4987
0.527131
0.837674
1.10913
0.540088
0.718552
0.514242
0.865577
0.353195
1.46489
0.454622
0.885533
1.10465
0.608137
1.1413
0.637193
0.200986
1.32127
0.944572
0.494164
0.53009
0.548128
0.286105
0
0
0
0.308348
0.141308
0.758434
0.951132
0.502825
0.241081
0.480323
0.505849
0
0
0
0
0
0
0
0
0
0
0
0
0
0
0
0
0
0
0
0
0
0
0
0
0
0
0
0
0
0
0
0
0
0
0
0
0
0
0
0
0
0
0
0
0
0
0
0
0
0
0
0
0
0
0
0
0
0
0
0
0
0
0
0
0.362141
0.756997
1.10382
0.692097
0.396051
0
0.367768
0.360078
0.215878
0.581916
0
0.577749
0.430709
2.15641
0.61205
1.26999
0.362497
0.659542
0
0.338874
0.48671
0.876957
0.454113
0.81338
0.165378
0.472217
1.41939
0.792783
0.486234
2.02478
0.791788
1.03357
0.805218
0.818918
0
1.6638
0.359183
0
0.938715
0.648453
0.206578
1.76884
0
0.244969
1.34298
2.16083
0.317714
0.374437
1.15149
0.175765
0
0.794252
0.211147
0
0.509526
1.23558
0.486777
1.44413
0
0.288327
0.850031
0
0.332884
2.08439
0.765123
0.562887
0.477292
0.55059
0.777557
0.983139
0.514696
0.607571
0
0.53573
0.506099
0
0.420503
0
0.628137
0.588587
0.593131
0
0.772944
1.00359
1.22716
0.650202
0.432103
0
0.657634
0.414126
0.740637
1.18739
0.437747
0.206252
0.624735
0.477988
0.97248
0.678095
0.648474
0.704887
0.460373
0.747349
0
0.518266
0
0
0.664796
0.439412
1.20881
1.66505
0.414047
0.991874
0.63355
0
0
1.42614
0.681617
0
0.774428
0.590813
0.384321
1.17405
0.884256
0.561576
0