<?xml version="1.0"?>
<VTKFile type="RectilinearGrid">
<RectilinearGrid WholeExtent="0 32 0 32 0 32" Origin="0 0 0" Spacing="1 1 1">
<Piece Extent="0 32 0 32 0 32">
<PointData>
</PointData>
<Coordinates>
<DataArray type="Float32" format="ascii">
0 0.524874 1.04975 1.57462 2.0995 2.62437 3.14924 3.67412 4.19899 4.72386 5.24874 5.77361 6.29849 6.82336 7.34823 7.87311 8.39798 8.92285 9.44773 9.9726 10.4975 11.0224 11.5472 12.0721 12.597 13.1218 13.6467 14.1716 14.6965 15.2213 15.7462 16.2711 16.796 
</DataArray>
<DataArray type="Float32" format="ascii">
-5.03879 -3.62163 -2.20447 -0.787311 0.629849 2.04701 3.46417 4.88133 6.29849 7.71565 9.1328 10.55 11.9671 13.3843 14.8014 16.2186 17.6358 19.0529 20.4701 21.8872 23.3044 24.7216 26.1387 27.5559 28.973 30.3902 31.8074 33.2245 34.6417 36.0588 37.476 38.8931 40.3103 
</DataArray>
<DataArray type="Float32" format="ascii">
0 0.524874 1.04975 1.57462 2.0995 2.62437 3.14924 3.67412 4.19899 4.72386 5.24874 5.77361 6.29849 6.82336 7.34823 7.87311 8.39798 8.92285 9.44773 9.9726 10.4975 11.0224 11.5472 12.0721 12.597 13.1218 13.6467 14.1716 14.6965 15.2213 15.7462 16.2711 16.796 
</DataArray>
</Coordinates>
<CellData>
<DataArray type="Float32" Name="Scalar" format="ascii">
0
0
0
0
0
0
0
0
0
0
0
0
0
0
0
0
0
0
0
0
0
0
0
0
0
0
0
0
0
0
0
0
0
0
0
0
0
0
0
0
0
0
0
0
0
0
0
0
0
0
0
0
0
0
0
0
0
0
0
0
0
0
0
0
0.175862
0.438171
0
0.393354
0.298038
0
0.423264
1.04742
0.247786
0.295018
0
0.431887
0.306234
0.277152
0.501055
1.3456
0.120264
0.417156
0
0.27776
0.401874
0
0.341999
1.1282
0.308551
0.20716
0
0.228457
0.304323
0
0.500608
1.39803
0.524999
0.844405
0
0.147285
0.640427
0
0.158275
0.760156
1.26078
0.0873328
0
0.469014
0.167193
0
1.46074
1.56262
0.302828
1.64401
0
0.224803
0
0
0.237289
0.518892
1.37142
0.106633
0
0.377605
0.185247
0
1.42566
3.26612
0
0.832144
0
0.722031
0.685131
0.602434
0
0.601649
0.722734
0.639427
0.705346
0.60478
0.485903
0
0
0
0.664594
1.18473
0.926144
0.659844
0.993317
0.510063
0.144659
1.22044
1.31273
0.838759
0.798359
0.696235
0.989528
1.23759
0.478667
0.987827
0.379026
0.836212
0
0.732902
0
0.810088
0
1.98171
0.777138
0.575937
0.579817
0.586837
0.379449
0.408274
1.02621
0
0
0.434372
0.614177
0.650675
0
0.857311
0.803416
0.861656
1.35436
0.267857
0.918115
0.291893
0
0.509097
0.652946
0.671628
0
2.10643
0.926456
0.329339
0
0
0.746187
0.782087
1.01383
0
0.454386
1.27931
0.307542
1.12139
2.20168
2.57464
0.986702
1.30853
0
1.08314
0.268476
0.912355
0.663314
1.35028
0.848155
0
0.522961
0.34699
1.26431
0.805664
1.40458
1.08287
0.393616
0.701555
0.894714
0.528343
1.22184
0.730052
2.03027
0.798027
0.479215
0.947895
0.57969
1.09629
2.54212
1.28744
0
0
0.637795
1.01115
0.920061
0.532515
0.510736
0
0
0.731903
0
0
0.506825
0.664631
0.219332
0
0
0.92164
0.392324
0.853578
0
0.539518
0.740607
1.95653
0
0.871929
0
0.765742
0
0.536374
0
0.450693
0.525313
0.56049
0
1.15562
0.75743
1.2347
1.31528
0.529159
0
1.15972
1.15835
1.49163
1.00365
1.22646
0.634454
0.368329
0.756148
0.256625
0.397495
0
0.598504
0
0.580899
0
0.268792
0.41314
0
1.13175
0
0.76488
0
0.544717
0.612873
0.848225
1.71596
0.664585
0.411777
0.929201
0
0
0.797377
0.728443
0.788475
1.00165
0.669894
0.910512
0
0.271719
0.289877
0.396475
0
0.68332
0.27338
0
0.807812
0.27108
0
0
0.545405
0.550918
0.859803
0.307896
0.587033
0.508527
1.6109
1.01877
0.538899
0.697182
0.960346
0.933236
0.716682
1.14608
0.407408
0
0.403769
0.426887
0.678453
0.469583
0.841752
0.295894
0.609761
0.530135
0
0
0.397439
0.371113
0
0.510567
0.573084
0
0.446994
0.281978
1.02343
0.29125
0.426722
0
0.578301
1.1728
1.05121
0
0.562308
0.493271
0
0
0.536148
0
0.558162
0.271595
0.350342
0.339536
1.0659
0.540436
0.371719
0.299854
0.919184
0.659175
0.530574
0.287226
0.206321
0.356486
0.578011
0.256944
0.275171
0.768468
0
0
0.485826
1.14565
0.359402
0
0.748293
0.345312
0.619241
0.267713
0.440273
0.467153
0.923974
0.596829
0.943988
0.560917
0
0.494309
1.00858
0
0
0
1.55112
0.529385
0.657047
0
1.15071
1.53413
0
0.362809
1.234
0.557933
0
0.561576
1.5633
0.227449
0.440455
0
0.565161
1.17326
0.733134
0.352536
0.328385
1.08102
0
0.310275
0.562797
0
0.639456
0.370511
1.18217
0.682441
0.473465
0.651867
0
0.706496
0.389292
0.554449
0.742094
0.903062
0.985138
0.334659
1.17574
0.732437
0
0.383311
0
0.491458
0.847138
0.351961
0
0.435092
0.903304
0
0.588463
0.699974
0.387866
0
0.370096
0.488334
1.12819
2.32629
0.618645
0
0.820476
0.852781
0.220784
1.13047
0
0.248112
0.540552
0.534446
0.548216
0.631425
0.391528
0.692208
0.423293
0.200356
0.523213
0.508415
1.02633
1.41678
0.963106
0.270541
1.3136
0.745164
0.755108
0
0.440819
0
0.362929
0.365287
1.26545
1.24803
0.980749
0.944349
1.13883
0.602035
1.1455
0.375745
0.596109
0.997617
0.842354
0
0
0
1.00014
0
0
0
0
0
0
0
1.02387
0.541952
0.507062
0.279557
0.655585
1.12936
0.243841
0
0.700942
0.816936
0.859539
1.1596
0.70546
0
0.392358
0
0.365476
0.759897
0.649196
0.553527
0.871853
0.410041
0
0.577716
0
0.270094
0.479657
1.17715
0.97791
0.981737
0
0.350273
1.03199
0.535537
0.657724
0.788588
0.850401
0.149007
0
0
0.666628
0
0.803774
1.32659
0.702617
0
0.781394
0.240057
0
0.437026
0.863033
0.501354
0.583571
0
0.592737
0.805948
1.01885
0
0.367525
0.404309
0.707735
0.632733
0.624779
1.23506
0.371303
0
1.24228
0
0.593817
0
0.415926
0
1.66114
0.722262
0.737336
0.600337
0.788103
0.56764
0.630549
0.499547
0.377236
0
0.559988
0
0
0.530087
0.770049
0
0.263994
0
0
0
0.712169
1.23128
1.08361
0.974394
0.350083
0.432131
0.371442
1.5158
0
0
0.34841
0.526134
0
0
0.455021
0
0
0.479081
0.887838
0.724603
0.994771
0
0.257513
0.367629
0.899014
0.79207
0
0
0.591222
0.736859
0.322628
0
0.627534
0
0.682725
0.371956
0.676199
1.2134
0.840943
0.731679
0
1.27578
0.797013
0
0
0.388448
1.99692
0.373767
0
0.882338
0.496163
0.416501
0.453769
0
0.600864
0.343904
0
0.457497
0
0.69578
0.489104
0.284633
0.866998
0
0.52638
0.891623
0.442064
0
0.452746
0
0.490585
0.688137
0.954824
0.293936
0.525256
0
0.443175
0
0.400921
1.15571
0.356838
0.75299
0
0.998472
0.449413
0.552825
0.928569
0.62159
1.05861
0.352385
0
0.529164
0
1.0401
0.648078
0.643585
0.55553
0.728161
0.452001
0.758364
0.770389
1.43295
1.39404
1.04779
0
0.528992
0.566388
1.97632
0.406894
0
0.467208
1.03685
0.500069
0.445874
0.219252
0
0.347259
0.481421
0.590268
0.675939
0
0
0.442131
1.12819
0.65253
0.198813
0.196615
0
0.267315
0
0.568349
0.444295
0.795427
0.547849
0.620196
0.593729
1.52427
0.726746
0.747561
1.89697
0.163652
0.202137
0
0.35631
0
0
0.671033
0.295534
0.452098
0
0.914772
0.501397
0.611915
0.72603
0
0.953986
0.757238
0.923368
1.08788
0.812944
0.888557
1.38034
0.680163
0
0.75456
0.649719
0
1.032
0.289953
0.634088
0
0.335166
0
0.443975
0.408934
1.03886
0.573471
0.367849
0.40749
0.380753
0.797194
0.34385
0.88634
1.59474
0.635341
0.498325
0.132632
0
0
0.590491
0.348148
0.777385
0.715072
0
0
0.531003
0
0.480869
0.268306
0.840281
0
0.503717
0
0.381398
0.348774
0.261335
0.381119
0
0.500053
0.878839
0.808583
1.29576
0.761368
0.73002
0.895796
0.769799
0.289735
0.357731
0.525467
0
0.726866
0.428941
0.574454
0.97852
0.262148
0.684192
0.703727
0
0
0.892615
0
0.50544
0.199885
0.75967
0.610487
0.902487
0.270771
0.404148
0
0.627623
0
0.548582
0.534472
1.40537
0.397692
0.752903
1.30492
0.639683
0.58246
0.382142
0.199622
0.689351
0
0.938394
0.384655
0.6104
1.02165
1.07316
1.071
0.881185
0
0
0
0.763636
1.66805
0.20015
0.920329
0
0.871725
0.319549
0.840483
0.541057
0.619581
1.48772
0
1.79415
0.50141
0.511099
0.530831
0
1.07984
0.395447
0.586647
0.18744
0.922505
0.829109
0.496303
0.125858
0.79914
0
0.395474
0.476707
0.450844
0
0.709627
0
0.868163
0.530244
0
0.824658
0.688748
0.437343
0.975864
0.39623
0.859283
0.780198
0.637905
0.852157
0
0.393164
0
0.68273
1.16144
0.487019
0.53101
0.698045
0.376074
0.605307
0
0
0.765218
1.12895
0.757621
0.475844
0
0.805987
0.79572
0
0.509296
0.970513
0.342213
0
0.446814
0
0.405451
0.376914
0.375715
0
0.477941
0.308093
0.724507
0.319942
0.351924
0.661717
0.387965
0
0.579276
0
0.45457
0.635227
0.38035
0.613409
0.424461
0
0.502508
0
0.56076
0
0.563484
0
0.451786
0.718502
0.489788
0
0.749722
0.673942
1.08652
0.892078
0
0.410808
0.600808
0
0.541949
0.541404
0
0.679175
0
0.575502
0.488073
0.216074
0.766441
0
0.748472
0.690645
0.80085
0
0.500684
0
0.538027
0
0.678494
0.957216
0
0.881799
0
0.399447
0.345798
0.351208
0.59514
0.654554
0
0.501261
0.316827
0.381308
0
0
0
0
0
0
0
0
0
0
0
0
0
0
0
0
0
0
0
0
0
0
0
0
0
0
0
0
0
0
0
0
0
0
0
0
0
0
0
0
0
0
0
0
0
0
0
0
0
0
0
0
0
0
0
0
0
0
0
0
0
0
0
0
0.410494
0.656592
1.37561
0.340495
0.464729
0
0.519821
1.28722
0.396618
0.615033
0.373997
0.730676
0.444337
0.226361
0.700155
0.878715
0.257068
0.505089
1.18289
0.394668
0.634439
2.56928
0.441013
1.02777
0.297623
0.536075
0
0.398459
0.411893
1.34264
0.645807
1.41778
0.792778
0.676271
0
0.232373
0.164757
0
0.588459
0.750922
0.252886
2.20559
0
0.436724
0.730115
0
0.331147
0.977485
1.38211
0.528485
0
1.05161
0.434295
0
0.716535
0.288148
0.0887558
0.320387
1.78504
1.32831
1.53371
0
0.208854
1.20832
0.968248
0.583211
0
0.322285
0.325148
1.29263
0.629392
0
0.552617
0.838769
0.79842
1.99484
0.824484
0.869918
0.987067
0.849888
1.32878
0
0
0.673104
0
0
0.461115
0
0
0
0.598113
3.00453
1.19717
0.441187
0.768276
0.553464
0.636293
0.915851
0.848611
1.09924
0.562855
0.657608
0.549319
0.406672
0.7248
1.44342
0.94432
0.511705
1.02463
0.82194
0
1.07482
0.921573
0
0.979346
0.694788
0
0.639997
0
0
0.666589
0
0.990293
1.89349
1.14621
1.19292
0
0.814214
1.25648
0.97091
1.17325
0
0.573754
0.554833
0.667493
0.882544
0
0
1.27723
0.521933
0.528584
1.26457
3.89193
1.18477
0.446066
0.618418
0
1.52405
0.939752
1.28637
0
0
0
1.18102
0.89983
0.638477
0.699444
0.563431
0
1.30795
0
0.924354
0.913882
0.950068
0
0.627983
0
0
0.630381
0
1.0588
0
1.16511
0.914712
0.996156
0.368099
0
1.02963
0.242602
0.406221
0
0.897206
0.986861
0
1.32526
1.29784
1.20628
0.491638
1.55475
1.84499
0.773619
0.923434
0
0
0.404475
0.420273
0.825845
1.09572
0.572924
0.431361
0.444259
1.66163
0.527647
0.69293
0.655233
0.990707
0.982784
0
0.487003
0.591629
0.62803
0.748378
0
0.593033
0.99816
0
0.982351
0.379755
0.750989
0
0
0.406481
0
0
0.778502
0.500674
0
0
0
0.558275
0.761318
0.741995
0
0.699852
1.0265
1.01146
1.05479
0
0
0
0.981761
1.1677
0.928293
1.13597
0.0398607
0.703449
0
0.602334
0.427964
0.0182362
0
0
0.55505
0.070852
0.804011
0
0.473567
0.978756
0.582015
0.460325
0
0.0400919
1.12031
0.733166
1.13848
0.956181
0.506092
0.577546
0
0.260492
0
0.666608
0.105147
0.311526
0.962414
0.82065
0.440488
0
0.98224
0
0.483142
1.56946
0.263955
0
0.301677
0.966574
1.34757
0.503093
0.504191
0.644872
0
0
0.3378
0.219793
0.579542
0.904895
0.445863
0.591817
0.800823
0
0.779033
0.445765
0.577261
0.625546
1.28476
0.341234
0.893236
0.500873
0.380345
0.358824
0
0.598312
0.525455
0.543004
0.696156
1.03677
1.38719
1.07932
0.289608
0
0.881154
0
0.419304
0.326497
0.576717
0.366338
0.790901
0.602957
0.43903
1.32437
1.11301
0.716838
0.795964
1.60818
0.49152
0.879264
0
0.857128
0.896047
0
0
0.557883
1.0366
0.936323
0
0.235828
1.13533
0.241685
0
0.540995
1.18126
0.744813
0.704835
0.736621
0
0
0
0.255558
0.760228
0
0.349185
0
0.585944
0
1.70638
0
0.519504
1.06649
0
0.495154
0.431798
0.612547
0.383121
1.1905
1.19849
1.09098
0.781358
1.12922
0.693344
0
0.931729
1.14732
0.648538
0.467847
0.499359
1.1471
1.41478
0.520537
0
0.179008
0
0.569905
0.986286
1.06089
1.20057
0
0.349271
0.852603
0.931801
0.929536
0.459446
0.887463
1.61994
0.506887
0
0.245939
1.23084
0.383846
0
0.306044
0.679531
0.694877
0.330907
0
0
0.677735
0.395064
0.174559
0
0.628129
1.82874
1.18329
0
0.43374
0.891397
0.646861
0
0.803748
0.704559
0.519999
0.515723
0.746027
0
0.64386
0
1.02764
0.614592
0.600786
0.328155
1.35518
1.9378
0.145835
1.42047
0
2.67632
0
0.362177
0.933994
0.601367
0
0.379615
0.88285
0.938347
1.34614
0.850184
0
0.884006
0
0.4633
0.457322
0.730862
0.575606
0.967256
0.832732
0.618788
1.46058
0
0.644399
0.651049
0.998116
0.682358
1.13621
1.33199
0
0
0.526623
0.808191
0
0.644462
0
0.578461
1.21866
0
0.10266
0.780201
0
0.688594
0.600337
0.454686
0
0.397277
0.690291
0
0
0.398641
0
1.00932
0.740565
0
1.24847
0
0.581759
0.649834
0
0.670664
0
0
0.519872
0.388911
0
0.664921
0
0.558531
0.592658
0.422881
0
0.708076
0.764229
0
0.795087
0.477754
0.268334
0
0.59694
0.59671
0.876918
0.261888
0.442777
0
1.02196
0.731375
0.56483
0.55702
0
0.470431
0
0
1.52441
0
0
0.639001
2.19466
0
0.858035
0
0.382842
0.493011
0.590273
0
0.686089
0
0.538475
0
1.06195
0
0.439961
0
0
1.74606
0.281512
1.04847
0
0.911146
0.166734
0.343421
0
0
0.442703
0.378461
0.555434
0.48903
0
0.717914
0.417155
0.749035
0.796343
1.21501
0
0.683841
0.42715
0.634196
0.720129
0.555463
0.38646
0.382709
0.89445
0.728813
0
0.62149
0.783828
0.494585
0
0.676265
1.33929
0
0.357521
0.49891
1.03076
0.606122
1.11146
0.695493
0.565131
0.172077
0.372174
0.260832
0.549765
0.898717
0.830143
0.488352
0.515454
0
0
0.364032
0.22669
0.485945
0.425246
0.582983
0
0.272945
0
0
0
0.355684
0
1.21628
0
0.427737
0.265605
0.562972
0.704785
1.07449
0
0.823294
0
0.214485
0
0.696196
0.457654
0.572905
0.397684
0.602808
0
0.30462
0.738512
1.98213
0.816676
0.688783
0.456274
0.537873
0
0.659782
0.416934
0.322114
0.569267
0.0875275
0.481908
0
0
0
0
1.20345
0.8289
0
0
0.290083
0
0.663101
0
0
0
0.795374
0.175947
0
0
0.495079
0.548784
0.5331
2.09615
0.896519
0
0.651444
0
0
0
0
0.675171
0.302294
0
0.699841
0.863346
0
1.54028
0.974055
0.785693
0.427274
0.563074
0
0.406525
0.0912587
0
0
0
0
0.341837
0
0
0.575794
0.451519
0.876811
0.488548
0.950851
0
0.633191
0
0.719417
0.651084
0
0.577049
0
0.482486
0
0.244175
1.07797
0.595977
0.156825
0.760452
0.287042
0
0
0.406773
0.507778
0
0
0
1.16111
0.548788
1.18735
0
0
0.299424
0.285254
0
0.566869
0.433997
0.460658
0.405671
0.622523
0.815022
0.332966
0.611157
0.438568
0.393519
1.08962
0.992267
0.713421
0.561003
0
0
0.315911
0.522083
0.754068
0.891901
0.360066
0
0.337019
0.490291
0.660729
0
0.458142
0.834483
0.489456
0.475069
0
0.3594
0.268722
0.404393
0
0.265927
1.03678
0
0
0.421361
0
0.871982
0.856574
0
0.406415
0
0
0.469719
0.499214
0.593124
0.603725
0
0.43988
0.656199
0.511921
0
0.585316
0.537958
0.742066
0.284099
0.57277
0.712868
0
0.565713
0
0
0.432453
0.49453
0
0.537094
1.16801
0.886101
0
0.955531
1.7328
0.759126
0
0.619605
0
0.697034
0.83433
0
0
0.702747
0.327778
0
0.549154
0.310547
0.587228
0
0.853091
0.787225
0.965236
0.339198
0.34157
0
0.399274
0
0
0.312596
0.941325
0.494669
0.636835
0
0
0
0.857977
0.554898
0
0.391742
0.265519
0
0
0.686484
0
0
0
0.308455
0
0
0.508782
0
0.162782
0.528103
0
0
1.01207
0.440659
0.125847
0.308238
0.789928
0
0.647303
0.833171
0.678715
1.11854
0.701444
0.40491
0.304541
0
0.839729
0.947037
0.292728
0
0
0
0.529555
0.520049
0.497597
0.216649
0.483729
0.34125
0
0.495744
0.872695
0.943269
0.582269
0.293158
0.548316
0
0.32338
0
0
0.209838
0.264646
0.199788
1.74175
0
0.499876
0
0.109245
0.481423
0.84708
0
0
0
0.476677
0
0.586136
0.521652
0.529333
0.669618
0
0
0
0.606635
0.357907
0.50953
0.790822
0
0.256134
0
0.513822
0.307073
0.539202
0.333617
0.711146
0.732922
0
0.273985
0.713933
0.499296
0
0.583043
0
0.712459
0.405612
0.701177
0.600951
0
0.42552
0.256018
0.570131
0.437596
0.783372
0.58128
0.350331
0.755047
0
0
0
0
0
0
0
0
0
0
0
0
0
0
0
0
0
0
0
0
0
0
0
0
0
0
0
0
0
0
0
0
0
0
0
0
0
0
0
0
0
0
0
0
0
0
0
0
0
0
0
0
0
0
0
0
0
0
0
0
0
0
0
0
0
0
0
0.351159
0.855175
0
1.08161
0.13524
0
1.22986
0
0
1.63496
0
0
0
0
0
0
0
0
0
0.751613
0
0
0.625338
0
1.21894
0
0
0
0.465674
0
0
0
0
0
0
0.170891
0
0
0
0
0
0
0
0
0
0
0
0
0.983916
0
0
0.306683
0
0
0
0
0
0
0
0
0
0.423624
1.33339
0
0.735054
2.02526
0.878228
0.340394
0
1.69208
0
1.62122
2.29798
1.06266
0
0.63159
0.409352
0.817386
1.08511
0.456304
0.925212
0.263224
0.687717
0.426637
0.871034
0.871121
0.976258
1.10385
0.382581
0.276268
0
0.509727
1.21816
1.55705
0.935276
0.686324
0.96866
0.445482
0.641571
0.386684
0
0
0.189481
0.86805
1.04414
1.23072
2.07592
0
1.07657
0.43873
1.1554
1.60932
0.684657
0.72599
0.743276
2.53166
0.714626
0.471588
0.663858
0.745347
0
0
0.597548
0.6643
0.225449
0.305908
0.865739
0.779287
0.231702
0.454517
0
0
0.649182
0.600017
0.50954
0.669411
1.11403
0.404603
0
0
0
0
1.2466
1.60567
0.332178
2.1155
0.529712
0.335936
0.934553
0
0.685615
1.2763
0.422197
1.20686
0.563644
0
0.392862
2.10857
1.14698
0.344462
1.27292
0.715042
0.781931
1.27371
0.724683
0.568384
0.292308
1.01736
0
0
0.31977
0.29966
0
1.24847
0.773825
1.10341
0.884322
0.305729
0.592365
2.49332
1.95969
0.572098
1.37834
0.95599
0.765856
0.347704
0
0.813
1.31085
0.477648
0.732668
0.608918
0.722686
0.548791
0.514504
0.797906
0.642304
0
0
0
0.889534
0.952327
0.715508
1.28253
0.607119
0.35009
0.298832
2.28934
1.04342
0.20002
0.630082
0.591768
1.35984
0.992112
0.49363
0.803389
0.401197
0
0.282941
0.986231
1.21437
0.472346
0.77743
0.219265
0.516911
0.143291
0.635042
0.507775
0
0.48492
0
1.10069
1.36996
0.902605
0.322201
0.637878
0.423139
0.639798
1.18347
0.857761
1.4012
0.531121
0
0.522761
0.950941
0
0.416674
1.30963
0
0.759248
0.435094
0.835452
0.778938
0.596163
1.66879
0
0.491686
0
0.792784
0.543651
0.496888
0
0
0.414165
0.332319
0.406792
0.892941
0
0.867817
0.446389
0.418546
0.540957
0
0.736657
1.65866
1.5823
0.668461
0.465855
0.427489
0.497664
0.653752
0.380373
0.44577
0.949294
0.491561
0
0.126866
0
0.356911
0.24877
0.556409
0.396324
0
0.876221
0
0
0.414193
0.928695
0.563698
0.465517
0.786841
2.19579
0.629253
0.444999
0.446502
0.468171
0.694684
0.984123
0.700306
0
0.77693
1.23222
1.16109
1.17785
1.08306
0
0.759498
0.319851
0.334992
0.611947
0.56829
1.0129
0.0173536
0
1.19738
0.648531
0.614267
1.50828
0.336198
0.207989
1.06194
0
0.969458
1.59906
0.689544
0
0.734393
0.763178
1.3165
0.681622
0
0.646027
0.837988
0.970706
0
1.00636
1.05938
0
1.70385
0.402437
0
0.775536
0.59451
0.421618
0
0.353099
1.02242
0.86714
0.694861
1.06251
0.628642
1.25282
1.16681
0
0.702393
0
0.420104
0
0.111198
0.731115
0
0.865434
0.420577
0.657145
0.667955
0.325811
0.684305
0.354543
0.669066
0
0.552223
0.222728
0.911004
0
0.125512
0.37886
0.639945
0
0.870612
1.29831
3.01036
2.15823
0
0.544114
0.252
0.314313
0
0
0.546855
0.578523
0
0
0.325884
0.861787
0.269697
0.453586
0.431517
0.264896
0.751086
0
0.871271
0.710939
1.76038
0
0
0.683933
0.58397
1.1007
0.58878
0
0.293237
0
0.245886
0
0.238241
0
1.61425
0.752056
0.645333
0.807344
0.840359
0.618811
0.488995
0
0
0
0
0.5949
0.56223
0.339529
0.431459
0.512285
0.619657
0.310183
0.799422
0.772575
1.05475
0.472418
1.1381
1.08876
0
0
0.308052
0.662889
0.494198
0.39424
1.46668
1.50162
2.20183
0.296751
0.557243
0.952346
1.57961
0.842324
0.753074
0
0.473706
0
0
0.696615
0
0.751124
0.53132
0.490204
0.530303
0.628918
0.809708
0.88176
0.4836
1.62193
1.63688
0.640111
1.15661
0
0
0.396265
0.647313
0
0.42007
0.682782
0.741738
0.494908
0
0.501107
0
0
0
0.288673
1.05793
0.775396
0.833337
0
0.99714
0.425182
0
0.792204
0.524991
0.370079
0.960741
0.304366
1.59304
0
0
0.641487
0.46815
2.08459
0.594201
0.490025
0.593391
0.446422
0.218549
0.589912
1.0299
0.660109
0.715872
0.741044
1.38002
0
0.631633
0
0.691481
0.961288
0
0.427709
0.740229
0.457172
0.426406
0.639387
0.7687
0.42464
0.349133
0.389006
0
0.3814
0.31684
0.553432
0.943292
0
0
1.33241
0.383354
0.431181
0
0.641197
0
0.817021
0
0.727591
0.933303
0.898408
0.476948
0.679503
0
0.756731
0.809502
0
0
0.51892
1.05006
0.648016
0.690567
2.09851
0.747154
0
0.579987
0.677192
0.818723
1.53956
1.87957
0.541723
0.645645
0.393295
0
0.619939
0
0.818902
0.913961
0
0.637447
0.656328
0.451115
0.675261
0
0
1.16263
0.764892
0
0
0.674963
0
0.362611
0
0.238401
0
0
0
0.323019
1.0376
0.599577
1.27957
0.524161
0.760399
0.965892
0.979125
0.664304
0
0.758004
0.401137
0.502649
0
0.369359
0.316675
0.521653
0.589463
0
0.539044
0.450386
0.702077
0.548606
0.719466
0.612158
0.736639
0.664601
1.02687
0.400837
0.424006
0.297342
0
0.297963
0.450272
0.730948
0
0.448742
0.603993
0.491842
0
0.324325
0.379806
0.438526
0
0
0.393002
0
1.32502
0.87346
1.0557
0.422976
0.597746
0.576737
0.414363
0.377068
0.561525
0.572658
0
1.10814
0.550603
1.07425
0
0
0.563675
0.883747
0.720982
0
0
0.487968
0
0.428412
2.11515
0.74615
0
0.220603
0.29708
0.846033
0.811151
0.951081
0.608512
0
0
0.521069
0
0.448053
0.658594
0
0.489257
0.540105
0.465027
0.968271
0
0.25165
0.387144
0.397495
0.303318
0.524394
0.72919
0
0.257023
0
0.260286
0.538022
0.713949
0.627985
0.538107
0.283438
0
0.478376
0
0.486427
0.411221
1.10666
0.88553
0.236076
0.78062
0
0.502202
1.27092
0.269287
0
0.401036
0.313477
0.350492
0.127489
0.803667
0.773376
0.62068
1.71592
0.475354
0.22683
0.39471
0.460647
0.834879
0
0
0
1.40249
0.445596
0.636689
0.837551
0
0.599513
0.390307
1.20159
0.319075
0
0.32444
0.384252
0.494804
0.66783
0.771208
0.696368
0.690909
0.419683
0
0.306597
0
0
0.347234
0
0.231393
0.453003
0.809384
0.613679
0.284057
0.309
1.08756
0.469509
0.988211
0.0964181
0.297658
0
0.458554
0
0
0.731227
0.497436
0
0.590041
0.343416
0.536386
0.592234
0.467701
0
0.556141
0
0.358915
0
0.380181
0.177562
0
0
0.584682
0.803394
0.271901
0.326245
0
0.614521
0.514738
0.281828
0
0
0
0.632535
0.693315
0.965631
0
0.821406
0.0489257
0.375926
0.305435
0
0
0.497355
0.395263
0.875212
0.581152
0.551885
1.57345
0.303661
0.477156
0
0.41005
1.1864
2.58959
0.762233
0
0.3691
0
0.442334
0.363351
0.80391
0.951291
0.567388
0.602671
1.02839
0.439163
0.535409
0
0.428398
0
0.61086
0.451851
0.455431
0.287538
0.451466
0
0.347841
0
0.464797
0
0.797591
0
0.599731
0.940771
0
0.582378
0
0.550827
0.652902
0.813431
0.456323
0.686084
0.68443
0.329459
1.14761
0.929204
0.632734
0.453368
0.239902
0.736599
0.907803
0.829868
0
0.620556
0.375513
0.494055
0.250459
0.229151
0
0.513587
0.475466
0.303984
0.505056
0
0
0.512723
0
0.453596
0.088815
0.291698
0.575312
0.749657
0.567957
0.63693
0
0.563699
0.537312
0.661387
1.10022
0.516493
0.934518
0.405747
0
0.911388
0.617492
0.732173
0.261664
0.497297
0.808853
0.201266
0
0
0.668076
0
0.488246
0
0.563096
0.361813
0.495916
0.706076
0.595857
0.555408
0.225726
0
0.321555
0
0
0.338983
0.603433
0.901401
0
0.469626
0.629834
0.979324
0.54973
0.849972
0.921781
1.1312
0
0
0
0.374859
0
0.523389
0
0.883918
0.587558
0
0.493201
0
0
0
0
0
0
0
0
0
0
0
0
0
0
0
0
0
0
0
0
0
0
0
0
0
0
0
0
0
0
0
0
0
0
0
0
0
0
0
0
0
0
0
0
0
0
0
0
0
0
0
0
0
0
0
0
0
0
0
0
0
0
0
0
0.230234
0.557329
0
0.426321
0.541798
0
0.644774
0.964686
0.192979
0.549703
0
0.492834
0.503553
0.681712
0.386404
1.46032
0.212365
0.419337
0.972016
0.575103
0.531957
0.585694
0.461696
0.750719
0.104899
0.531032
0
0.508665
0.584668
1.52283
0.607705
1.11936
0.0986262
0.976871
0.229824
0.547535
0.990798
0
0.506325
0.943848
0.416655
0.483794
0
1.33416
0.329312
0
0.760579
0.704542
0.2574
1.66545
0.860285
0.789265
0.789249
0
0.386091
0.665718
0
0.532211
0
1.86648
0.689074
0.189175
0.567417
0.276968
2.57536
1.11306
0.237268
0.460809
1.56547
1.24368
1.02776
1.64289
0.984035
0.8246
0.66142
0
0.482477
0
0.880703
0.74798
0.979131
0.714685
0.56542
0.892962
0.680472
1.75324
0.283866
0.253601
0.636818
0.952063
0.913069
0.371197
0.558143
0
0.728763
0.637528
0
0.558408
0
0.974029
0.885909
0.443071
0.583232
0.547382
0.414415
0
0
0.572239
0.822015
1.38343
0.635693
0.870036
0
1.01248
1.18184
1.33834
0.753384
0.843819
0
0
0.540045
0.793554
1.59074
1.23735
1.0069
0
0
0.684562
0.472294
0.867159
0
0.93397
0
0
0.887932
0
0.320137
0.26006
0.863258
0.818497
2.20927
1.15623
0.454617
0.798626
0.858351
0.763725
0
1.0019
0.35774
0.783901
0
0.703341
0
0.493173
0
0
2.70688
0
0.784246
0
0.343735
0
0.564667
0
0.652496
0.898077
0.286063
2.43495
0.307662
0.636233
0.552155
0
0.466878
0
1.04062
0.730636
1.13669
0
0.688016
0.753594
0
0.83837
0.491859
1.34461
0
2.24132
0.60507
0.737982
0.90797
0.337579
0.709853
0.395904
1.73
0.666607
0
0.858009
0.385787
0
0.882489
0
0.696445
0.13737
0.567852
0.820438
0.551851
1.15408
1.25133
0.701241
0.601045
0
0.801738
1.22717
0
0.515762
0.670068
0
1.17149
0.622969
0.368153
0.6917
0.816054
1.41522
0.181759
1.19515
0
0.404147
0
0.183155
0
0
0.530216
0.888895
0.258199
0.925526
0.772931
1.32706
0.554217
1.06085
0
0
0.563007
0
0.441415
0.651439
0.98756
0.842225
1.08085
0
0.332655
0
0
0.572356
0.649631
0.793971
0
1.18792
0
0.575361
0.795419
0.605048
0
0.682759
0.698647
0.309619
0.78275
0.537172
1.15875
0.906212
0
0
0.450058
0
0.555911
0.416551
0.548126
0.425972
0.418527
0
0.747053
0
0.804146
0.670894
3.1995
1.05056
0.289848
0.270957
0
0.648929
0
0.439338
0
0.544618
0
0.511864
1.0443
0.744476
0
1.11852
0.594456
0.890675
0.757159
0
0
0.685062
0.481421
0.444405
0.717438
1.14452
0
0.757179
0.806342
1.16308
0.949984
0.291317
1.10334
0.597109
0
0
0
1.75084
0
0
0.337306
0
0.670085
0.583922
0
2.08151
0
1.53658
0
0.503675
0.894854
0.402359
0.0963665
2.32074
0
0.978662
0
0.2031
0
0.356569
0
0.340173
0.533629
0.140685
0.514492
0.245117
1.80241
1.3151
2.16177
0.884334
0.328954
0.827756
0
0.659181
0.866578
0.384944
0
0.481514
0
0.500587
0
0.148111
1.4736
1.3529
1.24442
0
0.618473
0
0.455458
0.572829
0.583361
0
0.492817
0
0.561134
0
0.301586
0
0.909856
0.497022
0.705181
0.580444
0
0.991407
0
0.760803
0
0.462286
0.640641
0
0.730596
0.349087
0.311697
0.358528
0.572501
0.300409
0
0
0
0.459639
0.408285
0.554192
1.24432
0
0.833485
0
0
0
0.548577
0
0.496425
0.788935
1.03469
0.520961
0
0.91156
0
0
0
1.31781
0.584476
0.474603
0.323444
0.0842731
0.705536
0
0.77718
0.701979
0
0.652981
0.608182
0.776463
0.265943
0.38235
0.326864
0.713817
0.815363
0.334674
0
0.652459
0.383594
0
0.738713
0
0.324144
0.802744
0.270853
2.37821
0.432187
0
0.73565
0.541156
0.871995
0
0.706451
0.589385
0.234563
0.373837
0
0.395183
0
0.707499
0.425993
0.558004
0.315486
0
0.76798
0.378539
0.618407
1.25894
1.05246
1.11676
0.665623
0.404044
0.406363
0
1.07616
1.32693
0.500878
0.660453
0
0.277829
0.168598
0.556578
0
0.664269
0
1.30638
0
0
0
0.327171
0.238793
0
0.705729
0.581431
0.523869
0
0.664794
0.379388
0
0.915875
0.874621
1.9647
0
0
0
0.300139
0
0.48853
0.498082
1.14309
0.628479
0.728847
1.01293
0.263639
0.406301
0
0.725807
0
0.646022
0.364771
0.335454
0.73315
1.76876
3.5914
0.840521
0.600241
1.87347
1.29351
0.680407
1.09378
0.472521
0.662546
0
0.677184
0
0.345543
0.466105
0
0
0.604766
0
0
0.168106
0
0.553008
0
0.579414
0
0.51555
0
0.657491
0
0.68557
0
0.448567
0
0.795688
0
0.962116
0.591668
0.496928
0.148687
0
0.800697
0.411978
0
0.366013
0.367792
1.32235
0.884336
0.725493
0
0.894343
0.634425
0.689604
2.27637
0.895581
0.438396
0.365875
0
0.378588
0.816149
1.07559
1.04744
0.592787
1.51001
0
0.620266
0
1.29826
0
0.819242
0.463671
1.1091
1.2188
0.598179
0.681488
0.583161
0.576008
0.461452
0
0.468592
0.429951
1.60688
0
1.25449
0.883911
0.654685
1.17138
0.868902
0.774845
2.02884
0
0.586467
0.501572
0.658678
0
0.347052
0
0
0
0.48125
0.451917
1.86052
0.463775
0
0.890175
0
0.599505
0.434722
1.13263
0.161152
0.513084
0.267182
0
0.568516
0
0
0.708983
0.433555
0.327435
0.44251
0
0.609392
0.187856
0.412293
1.261
0.35191
0.626929
0.537729
0.212113
0.49694
0
0
0
0
1.67686
0.364147
0
1.47944
0
0
0.167309
0.553281
0
0
0.601225
0.263225
1.02742
0.382732
0
0.410766
0.706808
0.28706
0.611168
0.894363
0.520105
0.523028
1.3544
0.471022
0.47126
0
0
0
0.674662
0.296607
0
0
0.618627
0.710062
0
0.60771
0
0
0.903039
0.489101
0
0.553438
0.550136
0.501523
0.272837
0
0.458856
1.2585
0.409371
0.34068
1.63443
1.0131
0.298904
0
0
0.499806
0.380897
0.882554
0
0
0.540832
0.608297
0.481137
0
0.723188
0.628629
0
0
0
0.383242
0
0
0
0
0.410234
0.842188
0.641539
0
0.868579
0.728124
0.471791
0
0
0.578414
0
0.299185
0.564539
0.857993
0.86969
0.691882
0.500521
0.927132
0.396288
0
0.823004
0
0
0.108488
0.447868
0.575199
0.28381
0
0.397967
0
0.905551
0.424783
0.436189
0.521864
0.829009
0.973675
0.535333
0
0.619085
0
0.634347
0.660318
0
0
0.851419
0.513804
0.619211
1.0123
0
0.948864
1.3036
0.798684
0.622872
0.505604
0
0.35482
0
0.324114
0.369641
0.602275
0.457287
0.869456
0.769594
0.579282
0
0.346217
0.278231
0.403015
0.61387
0.375478
0.422917
0.389624
0.640103
0.433795
0
0.734282
0.475645
0
0.507925
0.526384
0.635711
0.779654
1.04323
0.875034
0.524608
0.605753
0
0.655138
0.634502
0.333858
0.361336
0.655796
0.458131
0
0.499226
0.611843
0.334109
0.48172
0
1.20087
0
0.243171
0
1.76423
0.795024
0.688117
0
0.479112
0
0.688824
0
0.485601
0
0
1.01376
0.67767
0
0.367903
0.557889
0.684765
0
0.312803
0
0.102317
0.401181
0.573134
0
0.505244
0
0.368603
0.966206
0.454954
0.324188
0
0.484435
0.433365
0
0.577954
0.539966
0.729697
1.06637
0.771142
1.72529
0.568795
0
0.413634
0.712636
1.00055
0.389678
0
0.50177
0
0.196456
0.269109
0
0.393407
0
0.886196
0.697416
0.540087
0.521162
1.68146
0.471929
0.334588
0.686507
0.699101
1.15285
0
0.631545
0
0.465281
0
0.708468
0.423256
0.452169
0
0.631515
0
0
0.332472
0.515636
0.714918
0.691136
0.918115
0.935815
0
0.483659
0
0.712806
0.271504
0
0.512875
0.205877
0.412503
0.309075
0.628888
0
0.24542
0
0.458877
0.376994
1.00387
0.809969
0.462929
0.371296
0
0.447502
0.373702
0.603199
0
1.03203
0
0.523115
0
0.325874
0.531492
0.456287
0.477103
0.279457
0
0.364594
0
1.09177
0.447169
0.302813
0.309162
0
0
0
0
0
0
0
0
0
0
0
0
0
0
0
0
0
0
0
0
0
0
0
0
0
0
0
0
0
0
0
0
0
0
0
0
0
0
0
0
0
0
0
0
0
0
0
0
0
0
0
0
0
0
0
0
0
0
0
0
0
0
0
0
0.348588
0.653559
0
0.505634
0.518705
0
0.28691
0.959013
0.282708
0.646439
1.44944
0.611406
0.440189
0
0.737288
0.738237
0.340399
0.451368
1.60852
0.5993
0.643148
0
0.479592
1.31667
0.372847
0.423398
0
0.373679
0.414492
0
0.613128
1.06761
1.1434
0.307806
0
2.44955
0.284846
0
0.747333
1.23884
0.247815
1.39534
0
0.295098
0.777422
0
0.888695
0
0.66954
0.47871
1.03462
0.982623
0.47721
0
0.71769
1.0748
0.356384
0.614275
0
0.483334
0.875358
0
0.30547
0
0
0.59453
0
1.2119
0.610042
1.83857
1.25507
0
1.38602
1.66653
0.516366
0.54183
0.930222
1.29339
0.617432
0.77133
1.08913
0
1.17852
0.583921
0.359117
0.922195
1.24304
0.665847
0.866805
0.855077
0.403585
0.612752
1.23894
1.14337
0.704343
2.14614
0
0
0.668565
0.58086
0.689913
0.705406
0.266407
0.767273
0.593305
0.744008
0
0.261337
0.126084
0
0.0793201
0
0.688023
1.32692
0
0.667182
0.832255
0.694643
0.795605
1.19023
0
0.659539
1.111
1.10728
2.26011
0.506628
0
0.789756
0.97404
0
0
1.54238
0.925154
0.266589
0
0.931543
0.590921
0
0.396845
0.566206
0.897838
0.686153
0.406713
0
0
0.904377
1.03917
0.592013
0
0.333475
0.688502
0.722667
0
0.501754
0.935048
0.445266
1.04881
0.0974576
0.606562
0.220162
0.363649
0
0.861993
0.881578
0.716797
0.659821
0.186177
0.941219
1.42276
1.09723
0.694985
0.357444
0.251362
0
1.24224
0
0
0.58151
0.742737
1.11443
0
0.752312
0.415391
0.867161