<?xml version="1.0"?>
<VTKFile type="RectilinearGrid">
<RectilinearGrid WholeExtent="0 32 0 32 0 32" Origin="0 0 0" Spacing="1 1 1">
<Piece Extent="0 32 0 32 0 32">
<PointData>
</PointData>
<Coordinates>
<DataArray type="Float32" format="ascii">
0 0.524874 1.04975 1.57462 2.0995 2.62437 3.14924 3.67412 4.19899 4.72386 5.24874 5.77361 6.29849 6.82336 7.34823 7.87311 8.39798 8.92285 9.44773 9.9726 10.4975 11.0224 11.5472 12.0721 12.597 13.1218 13.6467 14.1716 14.6965 15.2213 15.7462 16.2711 16.796 
</DataArray>
<DataArray type="Float32" format="ascii">
-5.03879 -3.62163 -2.20447 -0.787311 0.629849 2.04701 3.46417 4.88133 6.29849 7.71565 9.1328 10.55 11.9671 13.3843 14.8014 16.2186 17.6358 19.0529 20.4701 21.8872 23.3044 24.7216 26.1387 27.5559 28.973 30.3902 31.8074 33.2245 34.6417 36.0588 37.476 38.8931 40.3103 
</DataArray>
<DataArray type="Float32" format="ascii">
0 0.524874 1.04975 1.57462 2.0995 2.62437 3.14924 3.67412 4.19899 4.72386 5.24874 5.77361 6.29849 6.82336 7.34823 7.87311 8.39798 8.92285 9.44773 9.9726 10.4975 11.0224 11.5472 12.0721 12.597 13.1218 13.6467 14.1716 14.6965 15.2213 15.7462 16.2711 16.796 
</DataArray>
</Coordinates>
<CellData>
<DataArray type="Float32" Name="Scalar" format="ascii">
0
0
0
0
0
0
0
0
0
0
0
0
0
0
0
0
0
0
0
0
0
0
0
0
0
0
0
0
0
0
0
0
0
0
0
0
0
0
0
0
0
0
0
0
0
0
0
0
0
0
0
0
0
0
0
0
0
0
0
0
0
0
0
0
0.148778
0.298577
1.00173
0.378053
0.394997
0
0.30137
1.14641
0.128345
0.423987
0
0.317073
0.424847
0.985591
0.316964
1.19275
0.143241
0.332354
0
0.5502
0.42512
0
0.275255
1.39043
0.148944
0.68539
0
0.304683
0.227385
0
0.295832
1.22398
0.0905397
0
0
0.201817
0.843471
0
0.289267
0.854754
0.209007
0.144047
0
1.49501
0.118597
0
1.19972
1.56822
0.499671
0.90585
0
0.259526
0.862216
0
0.468271
2.41567
0.136207
0.103048
0
2.08393
0.18906
0
1.38909
0.565018
0
0
0.495813
0.773396
0.484752
0
0
0.4755
0.635757
0.391288
0.413312
0.488924
0
0
1.47427
1.13763
0
0
0.660158
0.572928
0.405155
0.834193
0.510393
0.768766
0.956937
0.57707
1.0687
0.584082
0
0.914416
0.545971
0.771735
0.629248
0
0.475594
0.599879
0.865965
0
0
0.681399
0.309704
0.516883
1.33563
0
0.233775
0.255465
0.870861
0.662291
1.26678
0.510444
0
1.46945
0.741871
0
0.556849
0.693445
0.651115
0.822057
0.757781
1.30182
0
0.737725
0.989532
0
0.556881
0
0.473334
0.832254
1.15235
1.78165
0
0.650596
1.36309
0.696959
0.660762
0.520903
2.69768
1.22586
0.941428
0.539874
0
0.73526
0
0
0.688094
0
1.0761
0.453097
0.57701
0.526867
0.635044
1.00287
0.937173
0.749302
0.618186
0.224985
0.711878
0
0.629244
1.49754
0.515107
0.942237
0.616892
1.02634
0
1.29811
0
0.39806
0
0
0.588065
0.455657
0
0.412282
1.09704
0.740353
0
0.83459
0.089785
0.37537
0.580641
1.85861
0.294615
2.26483
0.0635157
0.901955
1.28886
0.456207
0.30489
1.32386
1.41439
1.05188
1.01694
0.903173
0
0.682499
0
0.694979
0
0.445062
0.696049
0.82277
0.696691
0.877806
0.406708
0.635709
0.989457
0.803225
1.32089
0.251233
0.966608
0.455352
0.862407
1.48676
0
1.2437
0
0.598179
1.09933
0.646717
1.2347
1.56954
0.781536
0.931219
0.563328
0.932912
0
0.538599
0.62905
0.952951
0.850851
0.710456
0
0.824989
0.490061
0.498781
0.675473
0.416092
0.907708
0.535673
0
0.402496
0.257657
0.870321
0.408198
1.42939
0.484405
0.85868
0
0.330321
0.507408
0.679317
0.577828
0.447137
0.435435
0.346977
2.35717
0.758661
0
0
0.67167
0
0.47335
0.829729
0.698234
1.28661
0.981899
0.384802
0.516539
0
0.406067
0
0.662298
0.142362
0.736225
1.51979
0
0
0.206627
0
0.329254
0.23498
0.5199
0.402381
0
0
0.601236
0.590233
0
0.106823
0.713138
0.591585
0.733946
1.1062
0.810307
0.971784
0.476877
0.309907
0.889639
0.919872
0.718424
0.581281
1.04641
0
1.41458
0
1.18691
1.5596
1.03719
0.485916
0.536307
0
0.605826
1.05087
0.861505
0.354012
0.280828
0.685448
0.584021
0.597368
0.668606
0.478689
0.925725
0.6757
0.985074
0.737205
0.962396
0
0
0.475926
0.984198
0.711038
0.811046
0.887287
0
0.92707
1.24209
0.609908
0.641811
1.59864
0.767148
0.508774
0
0.863298
0.620409
0
0
0
0.545294
0
0.653885
1.63269
1.70285
1.36035
0
0.702878
0
1.23807
0.573038
0.727233
0.852799
0.276871
0.48055
0
2.10926
0.772862
0.425734
1.0818
0.19067
0.531378
0
0.88356
1.33159
0.514772
0.288634
0.645232
0
1.37829
0.851332
0.728952
0.169607
0
0.463244
0
0.795051
0.708265
0.918983
0
0
0.515296
0.842666
0.33059
0.528938
0.667068
1.15392
0.405525
0
0.54458
1.07851
0
0.79334
0.828808
0.862735
0.901979
1.26519
0.61178
0.489044
0.219795
0.225591
0
0.636788
0.425404
0.524862
0.684378
0.841265
0.440097
0
0.574287
0.662675
0.557045
0.454902
0.149195
0.508981
0.537187
0
0.649299
0
0.915898
1.20019
0.321757
0.756618
0
0.920808
1.16832
1.11949
0
0.624797
1.46512
1.17357
0
0.511734
0
0.423678
0.628459
0.277677
0.784025
0.88885
1.00031
0.932298
0
0
0.457475
0
0.355086
0
0.618064
0
0.444289
0.314108
0
0
0.790794
0
0.239676
0
0.142631
0.80575
0.191005
0.703688
0.782077
0.643183
0
0.648088
0
0.734135
0.108944
0.177125
0.901118
1.07345
0.607973
0.817627
0.619592
0
0
0
0.793438
0.51556
0.444568
0.89725
0
0.387917
0.600078
0.598666
0
0.460978
0
0
0.536674
0.498051
0.549896
1.06812
1.56103
0.884813
0
0.8224
0
0.292328
0.46222
1.0283
1.61492
0
0.423618
1.48158
1.01586
0.508677
0.717535
0.994385
1.2127
0.873877
0.814628
1.17504
0.678949
0.142008
0
0.408162
0
0.56092
0.64054
0.793503
0
0.613097
1.01395
0.497345
0.892095
0.30472
2.13738
0
0.75139
0
0.405321
0.366403
0
1.17129
0.737878
1.45559
0.449391
0
0.923298
0
0.324611
0
0.400178
0.609509
0.503929
0
0.47345
0.60844
0.328842
0
0.67044
1.2341
0
0.616614
0.665488
0.778685
0.230765
1.54257
0.437392
0.657203
0.804492
0.772358
0
0.267534
0
0.437884
0
0.985967
0.950537
0
0.681703
0.937468
0.937299
0.553388
0.387205
0.187014
0
0.774154
0.571475
0.978774
0
0.707643
0
0.528579
0.556987
0.68569
0
1.59344
0.319823
0.648534
0.55229
0
1.04194
0.554851
0.58012
0.519914
0
0
0.925854
1.57343
1.04837
0
0.155894
0.475495
0.810352
0
0.196155
0.831109
0.557856
0.830805
0
0.45272
0
0.619065
0
0.520983
0
0.57855
0
0.599502
0
0.309764
0.123945
0.505218
0.443667
0.747853
0
0.426336
0.276759
0
1.3195
0.542419
0.4403
0
0.988433
0.348807
0.97146
0.319089
0.468444
0.219501
0.706302
0.640302
0
0
1.6014
0.498486
0.802665
0.968113
0.555069
0.648417
1.15311
0.755026
0.993913
0
0.820819
0.865924
0.387064
0.1634
0
0.386912
0.416879
0
0
0
0.610791
0.808345
0.496497
1.00606
0
0.4432
0.318638
0.392227
0.721644
1.02158
0.646438
0.346655
0.881579
0.552778
0.858035
0
0.81457
0
0
0.281334
0.768664
0.898255
0.617661
0.445254
0
0.810765
0.364046
0.375627
0.502187
0.56578
0.65445
0.95779
0.570401
0
0
0
0.775131
0
0.346228
0.577484
0.526387
0.815629
0
0.746982
0.571061
1.4985
0.734472
0.344835
0
0.932964
0.46031
0.56565
0.1509
0.43637
0.476764
0.135858
0.769166
1.09266
0.178565
0.551222
0.253272
0.599461
0.764446
0.612828
0.6118
0
0.663254
0
0.560297
0.790009
0.745821
0.617462
0
0.845072
0.619938
1.24839
0.670467
0.220316
0.432464
0.249975
0.201886
0.466023
0
0.566875
0.318352
0.678939
0
0
0
0.36331
0.666249
0
0
0.367814
0.570095
0.888051
0.967606
0.523475
0.423321
0
0.494443
0
0.517702
0
0.793236
0
0.513246
0
0
0
0.382564
0
0.3073
0
0.720717
0.241256
0.200408
0
0
0.530429
1.22342
0.28066
1.19625
0
0
0
0.430865
0
0.212931
1.24996
0.446325
0
0.435209
0.155594
0.688698
0
0.999551
0
0
0.977946
0.656473
0.395324
0.368224
0.500948
0
0.548487
0.63106
0.807651
0
0.468529
0.27371
0.497208
0.568869
1.43495
0.863216
0
0.386836
1.08018
0.188939
0.772844
0
0.835118
0.806029
2.5603
0.724916
0
0.518668
0.712917
0
0.710015
0.632989
0.636519
1.02156
0.973766
0.913451
0.744005
0.510001
0.465581
0.744803
0.917764
0.918581
0.639956
0.416156
0.562692
1.13971
0.750776
1.23567
0.567034
0.378798
0.52981
0.379004
0.569725
0.211607
2.00033
0.375817
0.388911
0.390393
0.289376
0.315089
0
0.978837
0.9282
0.460632
0
0.659038
0.843962
0.312792
0.810717
1.82623
0.415486
0
0.433489
0.374847
0.62714
0.101618
0.526113
0
0.599663
0.505729
0.354541
0.662679
0
0
1.02637
0.658362
0.457878
1.04303
0.396792
0.161393
0.674408
0.328102
0.72855
0.181524
0
0.862485
0.746139
1.19949
0.911753
0.616618
0.688494
0
0
1.06519
0.978626
0.181646
1.01508
0.99543
0
0.420218
0.338532
0.258368
0.490398
0.479977
0
0.425025
0.711685
1.14345
0.641776
0.345327
0.264276
0.0961647
0.483243
0
0.363767
0.431343
0.387426
0
0.733261
0.958963
0.504573
0
0.44673
0.256207
0
0.236173
0
0.444585
0.542154
0.230761
0
0.550847
0.321451
0.531318
0
0
0
0
0
0
0
0
0
0
0
0
0
0
0
0
0
0
0
0
0
0
0
0
0
0
0
0
0
0
0
0
0
0
0
0
0
0
0
0
0
0
0
0
0
0
0
0
0
0
0
0
0
0
0
0
0
0
0
0
0
0
0
0
0.327232
0.451662
0
0.362016
0.55875
0
0.37385
0.817737
0.307524
0.366263
0
0.429892
0.783753
0.676729
0.359963
0.881082
0.338407
0.420601
0
0.595398
0.524557
0.741199
0.430009
1.1079
0.769806
0.491033
0
0.504961
0.477597
0.729174
0.523774
1.39299
0.601138
0.299859
0
0.751584
0.210224
0
1.00929
1.0411
0.175716
0.860647
0
0.463131
1.45018
0
0.547276
0.659905
0.602075
0.342665
0
0.766305
0.595464
0
0.205801
0.59327
0.201047
0.490638
0
0.63544
1.01472
0
0.325053
0.94958
0.726088
0.865717
0.861724
1.01967
0
0.63895
0.349123
0
0
0.736395
0.767421
0
0.460582
1.00005
1.40403
1.24884
1.26863
0.990679
1.52514
1.15774
0
0.657302
0.501389
0.665351
0
0.266759
1.69855
0
0.585695
0.991606
0.742619
1.11408
0
0
0.728174
0.182527
0
0.917224
0.571471
0.397778
0.877821
0.603172
1.39354
0.957027
0.759916
0.586883
0
0.762311
0.371681
0
0.952102
0.877363
1.60799
0.43964
1.02869
0.528943
0
0
0.815548
1.20513
0.766905
0.873652
0.71737
0.910565
0
0
0.537283
0
0
0.978863
1.1106
0.583824
1.01434
0
0
0.760185
0
0.491138
0.310557
0.734039
0.7093
0
0
0.616153
0
0
1.6597
0.0415755
0
0.537684
0.606189
0.88861
0.366641
0.415312
0
0.943212
1.69998
0
3.03865
0
0.310803
0.524679
0
2.37077
0.849527
0.650492
1.04175
0.443907
0.823614
0.416136
0.717862
0.617632
0.370971
0.581274
0.51089
0.95996
1.3191
0.2849
0.261068
1.65856
0.574594
1.25628
0.527976
0.274184
0.890936
0
0.435434
0
1.159
1.17109
0.666319
1.33164
1.99887
0
0.85106
0.446359
0.929693
0.430042
1.21236
1.55235
0.649373
1.04064
1.47708
0
0.837732
1.41283
0.432501
1.07285
0.573643
0.608243
0
0.848043
0
0.743311
0.543201
0.557746
0.365944
0.423466
0
0
0.535178
2.6678
0.852241
0.718162
0.56491
0.533607
0
0.464455
1.18774
0
0
0.81194
1.11494
1.39048
0
0.850987
1.1819
0
0
0.474127
0
0.558733
1.6065
0
0.111715
0.681222
0.982551
0.880447
0.21764
0.29056
0
0.496766
0.408802
0.571903
0.403522
0.88662
0.819001
0.759308
0.460285
0
0
0.292292
3.09955
0.29811
0
0.473077
0
0.545238
0
0.482929
0.909235
0.616273
0
0
2.40781
0.556426
0.517503
0.235431
0.43387
0.73441
1.01673
0
0
0.706769
0.379213
0.405391
0
0
0.726064
0
0.890325
0.964662
0.738787
0.604563
0
0
0.688232
0.717298
0
0
0
0
0.526429
0
0.732362
0
0.768691
0.664334
1.05327
0.622066
0.751039
0.343918
0.703544
0.759436
0.44328
0
0.526338
0
0.371129
0
0
0.887195
0.767799
1.24164
0
0
0.435855
0.761086
0.92767
1.75276
0.509244
0.655982
1.80016
0.526116
0
1.16989
0.825412
0
1.39992
0.843928
0
0.595254
0.363396
0.794246
0.827757
0.470137
0
0.73899
0.52737
0.661448
0.825294
0.854373
0.721385
0.86257
0.608371
0
0.429033
0.247396
0
0
0.664432
0.518823
1.12252
0.482235
0.566148
0.878236
1.44758
0.954983
0.315576
0.431343
0.329557
0.744173
0.945187
0
1.53734
0.950859
0.227096
0.508704
0.62967
0.68696
0.512581
0
0.892204
0.504816
0.528291
0
1.04716
1.36961
0.879643
0
0.53282
0.316197
0.653391
0
0.416769
1.47493
0.555775
0
0.322069
0.742453
0
0.420033
0
0.483557
0
0
1.18886
0.338387
0.380191
0
0.435216
1.26036
0
0.883675
0.888892
0
0.828391
1.07871
0.697446
0.834038
0.313732
0.57092
0
0
0
0.686142
0
0.617252
0
0
0.573164
0
0.61386
1.53948
0.65359
0
0
0.77546
0.318868
2.10327
0.561584
0.40351
0
0.345241
0.772499
0
0
0.77107
0.854448
0.575597
0.949433
0.151851
0.709756
0
0.814359
0.374452
0.425555
0.157904
0.574398
0.760481
0.614243
1.15422
0
0.710111
0.878403
0.727069
0.883676
1.77264
1.65334
0
0.7575
0.691679
0.359853
0
0.528234
0
0
0.652258
1.90545
0.638451
0.689921
0.724421
0.819691
0.553078
0.774431
0
0
0.299097
1.25078
0.528849
1.08261
0.774166
0.0339019
1.03351
0.418679
0.424515
1.40177
0.895454
0.554695
0
0.796277
0.724337
0.820217
0.788668
1.42706
0.483959
1.08828
0
0.447344
0.610442
0.858088
0.976512
0.883778
0
0
0.973561
0
0.326769
0
0
0.495689
0
0.98785
0
0
0.434417
1.24705
0.899278
0.355689
0
1.47512
1.48619
1.48961
0.821423
0.98702
0.910639
0.761898
0
0.830208
0.494028
0.569041
0.278879
0.800162
0.319997
0
0.527998
0
0.440723
0
0.486986
0
0.144604
0
0
0.536207
0.500599
0.700935
0
0.715307
1.65936
0.920086
1.35861
0
0.970046
0.167527
0
0.721404
0
0
0
0
0
0.458776
0
0.619893
0.281616
0.633786
0
0.660964
0.61132
0.367309
0.588146
0.736578
1.0945
0.46438
0.19531
1.93111
0.691356
0.650185
0
0.616316
0.520238
0.537936
0
0.340373
0.936668
1.0246
0.697596
0
0
0.546445
0.828111
0.42028
0.505268
0.24828
0.418471
0
0.541283
0.904788
0.459069
0.8734
0.442834
0
0.526811
0
0.497924
0
2.15845
0.383095
0
0.0833782
0
0
0.67861
0.655832
0
1.16771
0.427927
0.164547
0
0.37632
0.509538
0.424671
0
0.452974
0.268596
0
0
0.508375
0
0.473993
0.695119
0
0.109587
0.532384
0
0.325746
0.624351
0
0.450387
0.514677
0.377333
0.855745
0.691554
1.3369
0.846029
0
0.840658
0.683548
1.03968
0
0.633415
1.5824
0.645226
0
0
0
0.447393
0.288921
0
0.275941
0
0.455286
0
0.64196
0.845208
1.68807
0.588438
0.957017
0.642706
0
0.435098
0.424471
0
0.351559
0.710097
0
0.712389
0.94315
0.757642
0.431153
0.538451
0.284578
0.434253
0.336953
0.575234
0
0.571821
0.960149
1.3469
0.738923
0
0.211241
0
0.327797
0
0.521283
0.374165
0.513595
0.452423
1.21859
0.431741
0
0.30595
0
0.530618
0
0
1.26653
0.904693
0.500658
1.02945
0.558666
0
0.27957
0.247936
0.348829
0.655587
0
0.711999
0.873933
0.752158
1.17635
0.619265
0
0
0.493607
0.31431
1.03438
0.55083
0
0.773966
0.212969
0.663212
0
0.143135
0.733547
0.951177
0.952371
0.19753
0.607102
0.272978
0
0
0.620622
0.661934
0
0.646269
0
0
0.495831
0.369832
0
0
0.474567
0.395847
0.149824
0
0.997889
0.180538
0
0.318478
0.531822
0
0
0
0.0775176
0.997721
0
0.958313
1.78897
0.732268
0
0.3109
0
0.328374
0.537023
0
0.382583
0.669939
0.5492
0.463959
0.476691
0.875063
0.303885
1.40285
2.09103
0.192716
1.45275
0.870116
0.529957
0.720649
1.48755
0.528268
0.892702
0.504969
0
0.677154
0
0.705416
0.193174
0.473617
0
0.0545755
0.343251
0
0.622994
0.624665
0
0
0.318534
0
0.392755
0.616248
0.880129
0.272613
0.18328
0
1.22376
0.719915
0.823639
0.549579
0
0
0.834153
0
0.855515
0.779433
0.550328
0.625691
0
0
0
0
0.623012
1.72247
0.949351
0
0
0.291212
0.886174
0.474769
0.588551
0.154862
0.125995
0.407778
0
0.424074
0
1.2446
0
0.185142
0.857063
0
0
0.44531
1.45521
0.742902
0.756603
0.346385
0
0.550618
0
0
0
0.76962
0.600311
0.59699
0.253637
0.627812
0.32559
0
0
0
0.150595
1.6952
0.65622
0
0.27479
0
0.227906
0.431166
0
0
0.833634
0.55157
0.783321
0.603242
0.717775
0.310752
0.445825
0
0.581085
0.479096
0.657555
0
0.528119
0
1.61505
0.513392
1.08118
0
0.642925
0.437746
0.754164
0
0.34424
0.502995
0.586112
0.405571
0
0.615402
0
0.445298
0.362314
0.105006
0
0.904583
0.521879
0.89465
1.37646
0.282059
0.44832
0.301431
0.505306
0
0.337143
0.54351
0.720732
1.36566
1.65234
1.7222
1.19549
0.734737
0.468218
0.515973
0.298496
0.798135
0.273951
0.138778
0.40083
0.854499
0.64708
0.526913
0.676063
0.329325
0
0
0
0
0
0
0
0
0
0
0
0
0
0
0
0
0
0
0
0
0
0
0
0
0
0
0
0
0
0
0
0
0
0
0
0
0
0
0
0
0
0
0
0
0
0
0
0
0
0
0
0
0
0
0
0
0
0
0
0
0
0
0
0
0
0
0
1.33465
0
0
0
0
0
0
0
1.27658
0
0
0
0
0
0.445465
0
1.10084
0
0
0
0
0
0.763096
0
0
0
0
0.626444
1.29836
0
0
0
0
0
0
0.519927
0
0
0
0
0.142425
0
0
0
1.1166
1.88278
0
0
1.45884
0
0
0
0
0
0.615713
0
0
0.738577
0
0
0
0
1.45294
0.560141
0.625972
0.516639
0
0
0
0.763152
0
2.07961
2.18364
0
0
1.14403
0
0
1.09168
0
0.502911
0.107678
0
0
0.924601
0
0.662307
0.629792
0.512612
0
0
0.908913
0
1.06317
0.93436
0
0.63935
0.839771
0.890168
0
1.65512
1.22167
1.7079
0.595448
0
0
0.946923
0.660181
0.546149
0
0.627185
0.615949
0.720483
0.777615
1.00314
0.436977
0.639473
1.30888
1.04185
0
0
0.439568
0.616065
0.800846
0.433173
0.693641
0.904078
0.766849
1.01172
0.659192
0
0.865798
1.68444
0.885433
1.24604
1.97148
0.455039
0.693536
0.347207
0.431251
0.907252
0
0.789672
0
0
1.44668
0.854741
0
2.07801
0.521885
0.733431
0
1.29017
0
0.527844
0
0.803735
0.587835
1.19907
0.869993
0
1.18462
0
0.746477
1.0607
0.41377
2.82205
0.983065
1.90976
0
0.410395
0.601157
0
0
0.393483
0.872335
1.74993
0.53375
0.326292
0
0.63348
0
0.899497
0.879352
0
0.471187
0
0.470253
0
0.280651
0.751068
1.08083
0.750149
0.67005
0.412197
0.5038
0
0.622646
0
0.864367
0
0.285623
0
0.606474
0.312974
0.380481
0.284291
1.27587
0
0.442645
0.735871
0.669491
0.98354
0.710771
1.06061
0
0.844298
0.387186
0.441988
0.589484
2.07233
0.634032
0.609168
0.642229
0.21313
0.879209
1.23463
0
0
1.54529
0.693818
0
0.435066
0.578613
0.50818
0.920784
0.753865
1.01732
0.643152
0.409422
0.655423
1.10962
0
0.534277
0.766704
0.61126
0
0.763489
0
0.779286
0.338372
0.721066
0.314873
0.519963
0.664241
0
0.73975
0
0.452158
0
0.486324
1.67386
0.764411
1.24039
0.561092
0.752586
0.542939
1.10045
0.672739
0.978656
0.711734
0.703574
0.545766
0.433628
0.756405
1.40632
0.675341
0
0
1.03499
0.992587
0.629719
0.241147
0.388401
0.296868
0
0
0.472762
0.609824
0.251153
0.971117
0.411888
0.757994
0.770458
1.23238
0
0
0.307147
0.394431
0.731718
1.00222
1.67102
0.911648
0
0.811812
0.329417
0.846286
0
0.734824
1.49869
0.554226
0
0.329512
0
0.553278
0.279801
2.11332
0.77384
0.623597
0.740036
0.52485
0.276343
0
0
0
0
0.427457
0.532471
0.656907
0
0.317373
0.894378
0.774377
0.674524
1.14937
0.4225
0.330085
0.908437
0.515034
0
0.856448
0
0.944182
0
0.539912
0.926739
0
0
1.49527
0.56153
0.584041
0
0.41647
0.743413
0
0.255553
0.681146
0
0.750095
0.786674
0.298944
1.25619
1.56296
0.643996
0.451341
0
0
0
0
0.426256
0
0.282787
0.273757
0
0.71651
0.602211
0.785916
0.627255
1.20254
0.795198
0.681684
0
1.12848
0.786872
0
0.50446
0.735199
0.568277
0
1.02093
0
0
0
0.560283
0.372663
0.83672
0
0.2575
0.446768
0.340975
0
1.00722
1.04458
0
0
0.304181
0.588594
0.304239
0.466981
0
0
1.83032
1.39331
0
0.963627
0.915851
0.921439
0.670642
0.868708
0.583877
0.66016
0.495395
0.235915
0.237371
0.78322
0.606088
0.284332
0.900205
0.601006
0.758789
0.7716
0.688705
0.522202
0.797636
0.820833
0
1.69508
0.641949
0.305203
0.656647
0.983828
1.11547
0.6775
0.297264
0.544915
0.826994
0
0.658952
0.570595
0
0
0
0.565243
0.232725
0
1.75611
0.927476
0.50213
0.539176
0.583442
0
0.66743
0
0.344914
0.46008
0.818378
0.411773
0.731478
0
0.465711
0.205332
0
0.301966
0.59986
0.512855
0.48357
0
0.638204
0
0
0.675399
1.37447
0.925161
0
0.446648
0
0.555322
0
0.385048
0
0.314944
1.2373
0.390455
0
0.775217
0.3325
0
0.731694
0.915925
0
1.1154
0
1.60759
0.380663
0.660059
0.44849
0.752342
0
0.776742
0.607892
0.586874
0.887158
0.7929
1.00193
0.790092
0
0.517843
0
0.292258
0.432249
0
2.23825
0.87256
0.59867
0.848244
0.408811
0
0.465284
0.455537
0.365033
0.332821
0.893327
0
0.808694
1.25264
0.843737
0
0
0.836618
0.940035
0
0
0.588507
0.724283
0.492558
0.470756
0.456861
0
0
0.334978
0.389054
0.572633
0.284096
0.695154
1.12025
1.22441
0.567107
0.74197
0
0.511077
1.03337
0.235639
0.836276
0
0.454576
0.211369
0.63639
0.903636
0.527927
0.492242
0.800113
0
0.607023
0.390395
0.360488
0
0
1.39779
1.39051
0.625986
0.275493
0.245863
0.782047
0.436872
0.520889
0.50658
0.539261
0.392743
0.482111
0
1.99707
0.978878
0
0
0.656806
0.952069
1.29672
1.11622
0.471761
0.662737
0.34057
0
1.95407
0
0.684867
0
0
1.10805
1.04813
1.14334
0
0.254337
0.550478
0.460901
0.471755
0.623333
0.837628
0
0.461486
0
0.570098
0.462037
0.596194
0.882458
0.764184
1.1648
0.0754041
0.565039
0.395276
0.42681
1.54333
0.322717
0.628545
0
0.510976
0.513662
0.516315
0.607852
0.507462
0.0694899
0.485296
0.882388
1.52466
0.355605
0.383202
0.569172
0.449745
0
0.736099
0
0.364852
0.273869
0
0
0.456512
0.248071
1.03056
0.974016
0.713785
0.247123
0.600593
0.52694
0.657596
0.956968
0.980368
0.377552
0.702306
0
0
0.384966
0.768702
0.676564
0
0
0.505045
0.575492
0.320391
1.04911
0.310648
0
0.30613
0.37312
0
0.317304
0.556494
0.341823
0
0.711756
0.505508
0.465356
0.612994
0
0
0.564452
1.10719
0.403919
0.982758
0.981766
1.15466
0
0.314277
1.05474
0
1.03676
0
0.277179
0.265948
0.550178
0
0.781386
0.718337
0.67282
1.23303
0
0.454522
0
0
0.421421
0.820793
0.34171
0.962164
0.309919
0.8569
0.289046
0.207851
0.441078
0
0.525237
1.27612
0.566207
0.766279
0.941874
2.87476
0.257168
0.5022
0
0.352365
0.564615
0.491908
0
0.699571
1.88033
0
0
0.73098
0
0.38367
0.52263
0
0.425716
0.632344
0.846576
0.472769
0.369211
0.461623
0
0.661437
0.604708
0
0.741297
0.594723
0.230706
0
0
0.707964
0.773747
0
0.719582
0
0.861637
0
0.229932
0.584344
0
0.4693
0.469159
0
0.484658
0.466337
0.689444
0
1.05654
0.849419
0
1.56813
0.515264
0
0.762088
0.662911
0.984882
0.881698
0.193684
0
0.637739
0.459922
0.392907
0.3805
0.667431
0.541262
0
0.654002
0
0.288561
0.577854
0.688722
0.397852
0.606319
0.121893
0
1.02878
0.623146
0.470138
0
0.367374
0.597265
0.809255
0.35942
0.751897
0.665722
0
0.496072
0.516646
0.371623
0.737395
0.92304
0
0.806973
0.208301
0
0
0
0.187388
0.476378
0.646136
0.373731
0
0.692249
0.556469
0
0
0.358359
0.457566
0.195072
0.554525
0.59949
0.423417
0.462444
0
0.563566
0.363859
0.585323
1.16287
0
0.940015
0.508694
0.668914
1.09589
0.562509
0.377104
0
0.372939
0.552315
0.342334
0.462755
0.18848
0.363133
0.410463
0.639146
0
0.492208
0.847388
0.294868
0.724653
0.675562
0.516406
0.453881
0.552817
0
0.416925
0.481969
0.672661
0.141619
0.380182
0.886511
1.28596
0.357594
0.86252
0.382477
0.388157
0
0.501375
0
1.02891
0.884802
0.272565
0.568505
0
0.362008
0
0.281041
0.427155
0
0.178772
0.69151
0.548695
0.630398
0.57689
0
0.54666
0.59407
0.509733
0
0.542277
0.419528
0.429183
0.285233
0.521628
0.571087
0
0.370751
0
0
0
1.3402
0.597747
0.442776
0.660924
0.916284
0.647948
0.389902
0.39089
1.08
0.478803
0
0
0.340579
0.622494
0.750481
0.469992
0.30195
1.17767
0.867727
0.965018
1.14492
1.0337
0
0.771405
0.241297
0
0.310518
0.427639
0.44739
0
0.485252
0.811793
0
0.344433
0
0
0
0
0
0
0
0
0
0
0
0
0
0
0
0
0
0
0
0
0
0
0
0
0
0
0
0
0
0
0
0
0
0
0
0
0
0
0
0
0
0
0
0
0
0
0
0
0
0
0
0
0
0
0
0
0
0
0
0
0
0
0
0
0.141251
0.346435
0
0.663934
0.43367
0
0.592097
1.61657
0.390554
0.732269
0
0.439947
0.428653
0
0.344341
1.03811
0.182779
0.359324
1.50174
0.545277
0.288187
0
0.558778
1.74902
0.38544
0.518937
2.47749
0.647632
0.384442
0.908571
0.52392
0.961102
0.191512
0.816705
0
0.623355
1.16058
0
0.592744
1.3048
1.74015
0.378269
0
0.531999
0.763551
0.516193
0.96004
1.95338
0.478872
0.63028
0
0.917589
0.722244
0
0.200796
0.785058
0.606309
0.591845
0
0.331112
0.629053
0.732332
1.18644
0.552668
0.666952
2.02883
0.733097
0.421303
0
0
1.09919
0.583876
1.2429
0
0.638121
0.800748
1.55851
0.993034
1.78438
0.768923
0.930572
1.2576
0.659898
0
0.265191
0.897811
0.626554
0.50401
0.496721
0.902575
1.10728
0.52212
0.532856
0.454705
0.638666
0
0
1.02957
0.0655877
0.588684
0
0.409598
0.875917
0.752819
1.1148
0.490773
0.92211
0
1.12094
0.554958
0.858753
1.1554
0
1.44199
0
0.607729
0
1.92622
0.936784
0
0.464329
0
1.39329
0.54735
1.64206
1.49034
1.47025
0.988171
0.256907
0
1.27292
0
0
0
0.657682
1.25788
1.27483
0
0.671673
1.07133
1.57899
0
0
0.409842
0.639477
0.891356
0
0.843303
0
0.223795
1.48184
0.832889
0
0.793061
0
1.36396
1.75963
0.958349
0.719639
0
0.704779
0
0.749035
0.436253
0.571567
0.785804
0.748127
1.076
0.382744
0
0.699405
2.52896
0.9226
1.04859
0.587893
0.477395
0.572803
0.939229
0
0.562615
0.588931
0.397166
1.18709
0.386008
0.564665
0.69257
0
1.2343
0
0.503669
1.22699
0.436411
0.401774
1.46741
0.975429
1.35529
0.453475
0
0.831079
0
0.785618
0.761943
0.731537
0.87196
0.502254
0
1.05129
0
0.683272
0
1.05306
0.363395
0.80556
0.922355
0.877659
0.540566
0.487263
0.623248
0.3554
0.721273
0.644652
0
0.730581
0.369433
0
1.16712
0.405654
0
0.827554
0
0.637357
0.722944
0.578173
0.345023
0.526525
0.535174
0.489537
0
0.383726
0
0.90964
0
0.494481
0.823447
0.373656
0
0.912385
0
0.258006
0
0.897875
0
0.345569
1.42291
0.524681
0.376162
0
0.419023
0.702046
0.817977
0
0.538029
0
0
0.795368
0
1.38428
0
1.16155
0
0.716454
0.816135
0.635942
0.508239
0.478869
0.42739
0.669437
0
0.20284
0.580718
1.5253
1.81616
0.949546
0.529353
0.378126
0
0.488069
0.54656
0
0.606023
0
0.718228
0
0.994262
1.26247
0.365093
0
0.699761
1.19342
0.246204
0.492853
0.155003
0.453964
0
0.541539
0.47981
0.661738
0.975804
0
0.50141
0.858087
0.730931
0
0.43008
0.381735
0.42964
0
0
0
0.570246
0.891198
0.489133
0.247335
1.11651
0
0.563146
0
0.435127
0.678055
1.05742
0
0
0.740734
1.00103
0
0
0.83424
0.663485
0.643183
0
0
1.07658
0.409355
0.685534
1.40712
1.05297
0.362737
0
1.1762
0
0.44024
0.646568
1.17778
0
0
0.930877
0
0.622196
0.400239
0.475437
0.795049
0.827981
0.892982
0.753712
1.39396
0.938023
0.778556
1.07592
0.554541
0
0.329125
0.190063
0.380379
0
0
0
0.440034
0
0
0
0.590031
0.659219
0.619676
0.359253
0.578076
0.706186
0
0.566859
0
0
0.514114
0.318213
0.431898
0.22978
0.457457
1.49806
0
0
0
0.275591
1.08036
0
0.687993
0.838846
0.715728
0
0.88681
0.182447
0
0
0.552917
0
0.292618
0.493448
0.947897
0.60728
0.47725
0.457104
2.9425
0.259791
0.450619
0.632393
1.10841
0.381639
0.606204
0.384933
0.638548
0.760211
0
0.907224
0
0.711201
0.969442
0
0.501474
0
0
0.501076
0.645816
0.159859
0
0.556932
0.92189
1.20982
0.364495
0
0
0.400913
2.37621
0.746931
1.66049
0
0.381444
0.880042
0.880845
0.356696
0.361294
0.745912
0.164505
0.577256
0
0.554698
0
1.21418
0.777939
0.540496
0
0
0.550679
0.69345
0
0.68579
0
0.574885
1.11471
1.29601
0
0
0.289072
0.31408
0
0.733921
0
0.928096
0
0
0.536718
0.331709
0
0.964085
0
0
0
0.468057
0
0.782159
0.615061
0
0.336879
0
0.725444
0.722526
0
0.344924
1.11904
0.626603
1.11752
1.03884
0
0
0
0.840254
0.288282
0.551418
0.728319
1.13812
0.833986
1.21916
0.507
0
0.350098
0
0
0.294325
0.466776
0.603311
0.826935
0
0
1.01926
0.824924
1.20147
0
0
0.39076
0.602889
2.11744
1.12867
1.0773
0.981851
0.889831
0
0.956439
0.762847
0.0742289
0.800128
0.535975
0
0
0
0.58524
0
0.233175
0.613086
0.818115
0.211256
0
0.621483
1.82741
0
0.344795
0
0.35678
0.722082
0.421788
2.47451
0
0
0
0.971191
0.731442
1.05832
0.333376
0.186165
0
0.319075
0
0.630671
0.404287
0
0.997721
0
0.296953
0
0.471173
0.691143
0.342332
0.579801
0.746051
0
0.277025
0.474325
0.400507
0.639082
0.926671
0.493798
0.40912
0.483295
0
0.984495
0
0
0
0
0
0.689094
0
0.655556
0.87691
0.409256
1.21064
1.45998
2.19083
0.604588
0.58377
0.175868
0.842984
1.52223
0.541145
1.15731
0
0.606239
0.992858
1.35852
0.210504
0.377398
0
0
0.545362
0
0.697312
0.678323
0.283559
0.474698
0.963214
0.510383
0.489048
0.828575
0
0.868957
1.22838
0
0.240852
0
0.709431
0.365056
0
0.819559
0.494916
0.441205
0
0.547971
0
0.433444
0
0.791038
0
0.493944
0
0.380161
1.0181
0
1.00435
1.12205
0.33213
1.14731
0.53438
0.397769
0
0
0.498631
0.646822
0.452852
0.958749
0.869495
0.450971
0.161391
0.768352
0.590768
0
0
0.547014
0.681835
0
0.638539
0.204176
0
0.553972
0.485477
0.281341
0.765673
0.510038
0.687586
0.718373
0.721214
0.930025
0.571737
1.19059
0.65402
0
0
0
0.586192
0.411458
1.54978
0
0.591538
0.399479
0.493078
0
1.03661
0
0.625019
0
0.560628
1.78047
0
0.492393
0
0.660272
0.660644
0.357864
0
0.322442
0.601619
0.436084
0
0
0
0.222189
0.350469
0
0.440014
0
0.287204
1.72209
0
0.381501
0.587241
0
0.726793
0.549636
0.746647
0.727911
0.878536
0.399492
0.518485
0.336548
1.4337
0.66577
0
0.630881
0
0
0.6474
0.584895
0
0.252256
1.03589
0
0.16084
0
0.236694
0
0.600808
0.307599
0.24658
0.559286
0.595968
0.413684
0.610716
0
0.662659
0.764613
0.4131
0.711802
0
0
0.246899
0.399109
0.303257
0.293946
0.509873
0
0.578861
0
0.832379
1.50946
1.3474
0
0
0.452668
0
0.286342
0.711082
0.634751
0.293697
0.405565
0.765351
0.574859
0.705995
0.284625
0.941835
0.560342
0.773383
0.979212
1.78564
0.504812
0.233489
0.338235
0.733762
0.335716
0.613553
0.76163
0.711704
0.431437
1.05449
0
0.7278
0.59697
0.284493
0.570238
0.494683
0.373951
0.476656
0.242
0
1.17503
1.01932
0.62936
0
0.48725
0.775924
0.90836
0.471178
0.325243
0.695459
0
0
0.728479
0.641526
0.525475
0
0.729942
0
0.481501
0
0
0.460845
1.01222
0.698648
1.61369
0.150638
0.374427
0.565305
0.48083
0.378554
0.672783
1.3751
0.733672
0
0
0
0.549872
0
0
0.873452
0
0.204375
0
0.792687
0.565634
0.62577
0
0.265112
0.320484
0
0.859174
0
0.374253
0.752238
0.508382
0
0.695147
0.508688
0
0
0.862352
0
0.416515
0
0.939442
0.709678
0.761834
0.780892
0.458422
0.230465
0.206379
0.705959
0.548978
0.502296
0.531392
0.465233
0.780754
0.726243
0.576187
0.573377
0
0
0
0.694988
0
0
0.413392
0.549306
0.63788
0
0.401148
0.56022
1.06403
0.549012
0
0.341317
0.419894
0.463321
0.374461
0.613969
0.786739
0.561975
0.678558
0
0.713414
0
0
0.684654
0
1.45445
0.482915
0.265616
0.386728
0
0.257084
0.34264
0.475754
1.19678
0
0.699139
0.491973
0.375857
0.767897
0.36103
0.380862
0.510721
0.769266
0.396055
0.547199
0.940573
0.815529
0.636029
0.361118
0
0
0
0
0
0
0
0
0
0
0
0
0
0
0
0
0
0
0
0
0
0
0
0
0
0
0
0
0
0
0
0
0
0
0
0
0
0
0
0
0
0
0
0
0
0
0
0
0
0
0
0
0
0
0
0
0
0
0
0
0
0
0
0
0.324754
0.827602
0
0.567902
0.409814
0
0.44458
1.03935
0.368947
0.976175
0
0.519867
0.458559
0.385382
0.706165
0.821288
0.312187
0.73077
0
0.412902
0.396909
0
0.529384
0.985116
0.317289
0.482759
0
0.649187
0.80588
1.46913
0.625218
0.701837
2.30183
0.352274
0
1.05742
0.313738
0
0.50128
1.98687
0.429027
1.2261
0
0.163884
0.475875
0
0.582207
0.877374
1.23732
0.284164
0
1.5096
0.899214
1.00081
0.718211
1.00724
0.326868
1.28657
0.657319
0.439749
1.28964
0
0.537602
1.14083
0
2.02366
0.692125
1.2136
0.83346
0.491826
0.350953
0
1.55252
2.06039
0.812363
0
1.13262
0
0.830797
0.717916
0.658834
0
0.552104
0.715796
0.427635
0.970745
0.675696
0.603756
0.921824
0.809738
0.687293
1.53349
0.788849
0
0.768437
0
3.30933
1.01665
0.262076
0.482639
0.226604
0.435113
0.29979
0
0
1.60043
1.55801
0
1.3677
0.437613
0
0.693476
0.486784
0.611273
0
0
0.731129
0.451176
0.67533
1.04693
0.881669
0.973235
1.02672
0.892877
0.673313
0.668994
1.28005
1.36508
0.929197
0
0
0.661376
0.805014
1.29232
0.67336
0.886809
0.981671
0.443865
0.975204
1.61925
0
0.356691
0
0
1.64037
0.55464
0
0.335786
0.840867
0.592983
0.589811
0
0.86134
1.18545
1.03815
0.469284
0.789643
0.993753
0.636228
0
0.437265
0.734343
0.620682
0.550627
0.432851
0.467484
0.663312
0.550803
1.27215
0.729354
1.53309
1.90975
1.25144
0
0
0
0
0.777948
0.947123
1.04792
0
0
2.31937
0
0.30601
0
0.44002
1.32243
0
0.792642
1.04089
0.731886
0.819604
0.728206
0.311058
0.508721