<?xml version="1.0"?>
<VTKFile type="RectilinearGrid">
<RectilinearGrid WholeExtent="0 32 0 32 0 32" Origin="0 0 0" Spacing="1 1 1">
<Piece Extent="0 32 0 32 0 32">
<PointData>
</PointData>
<Coordinates>
<DataArray type="Float32" format="ascii">
0 0.524874 1.04975 1.57462 2.0995 2.62437 3.14924 3.67412 4.19899 4.72386 5.24874 5.77361 6.29849 6.82336 7.34823 7.87311 8.39798 8.92285 9.44773 9.9726 10.4975 11.0224 11.5472 12.0721 12.597 13.1218 13.6467 14.1716 14.6965 15.2213 15.7462 16.2711 16.796 
</DataArray>
<DataArray type="Float32" format="ascii">
-5.03879 -3.62163 -2.20447 -0.787311 0.629849 2.04701 3.46417 4.88133 6.29849 7.71565 9.1328 10.55 11.9671 13.3843 14.8014 16.2186 17.6358 19.0529 20.4701 21.8872 23.3044 24.7216 26.1387 27.5559 28.973 30.3902 31.8074 33.2245 34.6417 36.0588 37.476 38.8931 40.3103 
</DataArray>
<DataArray type="Float32" format="ascii">
0 0.524874 1.04975 1.57462 2.0995 2.62437 3.14924 3.67412 4.19899 4.72386 5.24874 5.77361 6.29849 6.82336 7.34823 7.87311 8.39798 8.92285 9.44773 9.9726 10.4975 11.0224 11.5472 12.0721 12.597 13.1218 13.6467 14.1716 14.6965 15.2213 15.7462 16.2711 16.796 
</DataArray>
</Coordinates>
<CellData>
<DataArray type="Float32" Name="Scalar" format="ascii">
0
0
0
0
0
0
0
0
0
0
0
0
0
0
0
0
0
0
0
0
0
0
0
0
0
0
0
0
0
0
0
0
0
0
0
0
0
0
0
0
0
0
0
0
0
0
0
0
0
0
0
0
0
0
0
0
0
0
0
0
0
0
0
0
0.270442
0.33301
0
0.323006
0.224475
0
0.262397
0.491695
0.156538
0.141747
0
0.154796
0.539643
0.554659
0.17185
0.950539
0.269411
0.152754
1.42771
0.36385
0.452904
0
0.430757
1.0348
0.124663
0.506449
1.11087
0.439973
0.327935
0
0.303906
0.758764
0.279382
1.14631
0
0.250065
0
0
0.276866
0.600806
0
0.5546
0
1.02238
0.203005
0
1.20297
1.03056
0.0964299
0.642738
0
0.312594
0.704053
0
0.369817
0.833358
0
0.106296
0
0.585515
0.307382
0.205564
1.36639
2.64186
0.664322
0.723207
0.744615
0.629387
0.73336
0
1.77866
1.08397
1.36867
0
0.550452
0.919159
0
0
0.516471
1.11004
0.653641
0.742466
0.646491
0.977692
0.507033
3.1012
0.373338
0.742276
0.791465
1.06152
1.12376
0.525574
0.45858
0.638216
0.227899
0.64924
0
0
0.420677
0.576353
0.713493
0
0.67506
0
1.23247
0.317185
0
0.641632
0.36287
1.0269
0.61047
0.562281
0.534035
0.454167
1.14309
0.304829
0
0
0
0.704516
0.589344
0.911663
0.179437
0.397928
1.11111
0.786014
0.409328
0
0.579354
0.947334
0
0
0
0.443884
0
0.802398
0
0.738502
0
0.359351
0.97471
1.95488
0.57297
0.220867
0.562082
0.554785
0.784359
1.7647
0
0.658072
0
0.515589
0
0.468866
0.128239
0.647466
0.674299
0
0.925735
0.467972
1.22126
0.680405
1.93339
0
1.03838
0.413442
1.43679
1.155
0
0
1.7396
0
0.302138
1.09382
1.06363
0.0438698
0.987393
0.952369
1.08408
1.02778
1.23991
0.869938
0.553323
1.02868
0
0.117291
0.54072
1.22757
0.412896
0
0
0.527028
0
0.238138
0
0.764232
0
0
0
1.02457
0.623201
0.760901
0.672684
0
0.572334
0
0.745931
0.612177
0.340535
0.990856
0.848617
0.724923
1.1951
0.17102
0.232524
0.715616
0
0.798254
0.630184
1.11391
0.313766
0.71901
0.291675
0.589567
0.779625
0.453778
0.706574
0.977971
0.475938
0.633841
0.582556
0.63845
0.2635
0.534847
0
0.778481
0
0.977637
0.324641
0.418397
1.29893
0.894192
0
0.757308
0
0.605048
0.500172
1.02126
0.265315
0
0.325421
0.440139
0.230024
0.349625
1.69825
0.523847
1.06427
0
0.607631
0.846265
1.00164
0.551517
0
0
0
0.879963
0
0.947082
0.710949
0.638997
0.559245
1.27455
0.644339
0.447136
0.583279
0
0.184376
0.721987
0.44711
0.525295
0
0.410401
1.19068
1.88697
0.652801
0.183832
0.69062
0.686201
0.821027
1.05509
0
0
1.62859
0.873671
0.315507
0.742025
0.872055
0.482954
0.349756
0.266801
0
0
0.40971
0.188062
0.805463
0.609852
0.950778
0.397002
0.758577
0
0.601728
0.311491
0
0
0.808241
0.856593
1.63429
0.907596
1.04362
0
0.0290291
0
0.8601
1.01911
0.242205
0.950557
0.773839
1.12479
0.832416
0.575418
0.626894
0
0
0.499733
0
0.948485
0.772969
0.793791
1.01148
0
0.386449
0
0.593014
0.579052
0
0.53013
1.00945
0.688908
0.419878
0
0.347551
0.55338
0.529738
0.491388
1.93052
0
0.711233
1.04117
0.49234
0.383737
0.500566
0.961765
0.531568
0.604504
0.711776
1.1787
0
0.934434
0
0.504524
0
0
0
0
0
0.384539
0
1.81101
0.497129
0.581937
0.613956
0.903223
0
0
0.432331
0.3857
0.430853
0.450816
0
1.29727
0
0.515977
0.631797
0.477559
0.407218
0
0
0
1.19751
0.643923
0
0.763333
1.80022
0
0.461531
0.383269
0
1.09874
1.08617
1.00271
0.613312
0
0.546175
1.17528
0.966599
0.511721
0.609262
0
0.649246
0
0
0.89412
0
0.591429
0
1.13731
0.661222
1.10807
0.608935
0
1.15029
0.70679
1.0164
1.19085
0.390721
0.807507
0.72403
0
0
2.34082
1.61548
1.24626
0
0
0
0.391477
2.7963
0.134437
0
0.589879
0.582415
1.05379
0
0.881438
0.709
0.300153
0
0
0
0.749955
0
0.381067
0.803382
0.747564
0.911167
0.950142
0.294539
0.546696
0
0.515524
0
1.30486
0.403777
0.818176
0
0.710559
1.36676
0.567712
0.609042
0
1.89528
1.25187
0.320155
0.425709
0.330942
0.880875
0.677477
0.95898
1.01363
0.604077
0
0.34606
0.34609
0
1.51342
0.834625
1.02972
0
0.799689
0
0.701851
0
0.665119
0.855911
0.759224
0.432298
0.140975
0
0.870037
0.498915
0.63787
0.273776
0.357735
0
0.861721
0.519966
0.531939
0.591822
0
0.345667
3.43272
1.0455
0.563443
0.560505
1.03511
0.574725
0.531626
0.543127
0
0.351035
0
0.806784
0
0
0.534614
0
0.636758
0
0.64227
0.543926
0.347282
0.740705
0.348535
0.803362
0.777753
0.974924
0.951393
0.183405
0.636087
0.418582
0.790529
0.589769
0.241749
0.653455
0.611694
0.528308
0.681548
0.84647
0.116558
0.398169
0.218762
0.803665
0.35146
0.186802
0.715084
0.701228
0
0.755669
0.72807
0
0
0.677796
0.45978
0.675168
0.9836
0
0.922008
0
0.430575
0.209436
0.541067
0.481252
1.62802
0.905301
0.490346
0.304842
0.656556
0
0
0.660128
0
0.554649
0
0
0.820702
0
0.623308
1.09133
0.783108
0.882805
0.492159
0.558961
0.392413
0.349792
0
0
0.794515
0.258784
0.847624
0.734201
0
0
0.376246
0
0.848438
0
0
1.03837
0.538244
0
0
0.303129
0.610977
0
0.560606
0.701911
3.7485
0.195883
1.06402
2.68675
1.43868
0
0
0.475071
0.197103
0.734722
0.423563
0.454592
0
0.746988
0.413455
0.572292
0.648191
0.581814
0.342933
0
0.487385
0.450074
0
0.395695
1.11514
0.605825
0.770074
0
0
0.875317
1.6769
0.743692
0
0.702685
0.541188
1.41558
0.398972
0.783621
1.00423
0
0.502363
0
0
0.592712
0.479328
0.715271
0.441006
0.249337
1.2754
0.917022
0.378731
0.768544
0.556793
0.650988
0.806062
0.625768
0.9717
1.25547
0.868075
0
0.260056
0.29576
0
0.425545
0.330655
0.725717
0.395465
0.505535
0.327065
0.345282
0.493403
1.20612
0.249849
0.221872
0.435333
0.588842
0.795882
0.492489
0.954284
0
1.44083
0.847337
0
0.3052
0.259345
0.207712
0.237197
0.599011
0.398236
0.66143
1.07592
1.36484
0
0
0.474681
0.82208
0
0
0.606174
0
0
0.609264
0.632504
0
0.585524
0
0.335274
0.752993
0.694728
0
0.877907
0.628027
0.392933
0.540065
0
0.61895
0.527116
0.435583
0.312806
0
0.857703
1.15127
0.643463
2.10528
0.39196
0.551951
0.703788
0.606282
0
0.913099
0.556023
0.448728
0.580607
0.535955
0.633554
0.79961
0.889883
0.412569
0.681596
0
0.470481
1.23244
0.703099
0.737581
0.508532
0.374699
1.03977
0.870951
0.401778
0.641502
1.28093
2.33218
0.742724
0
1.82592
0.711594
0
0.46256
0
0.627379
0.573398
0.651267
0.456905
0.523708
0.301429
0
0
0
0
0.712853
0.787747
0.839814
1.54318
0
0.542544
0.765031
0.55646
0.669945
0
0.798046
1.60565
0
0.99907
0.316562
0.845852
0.476896
0.589542
0
0
0.855343
0
0.210293
1.14832
0.566936
0.61056
0
0.914204
0.819734
0.888294
0
1.11614
0
0
0.518432
0.559203
0.440137
0
0.372842
0
0.690381
0
0.0878929
0
0.871575
1.15009
0
0.620561
0
0.734506
0.522738
0
0.621561
0
0.570272
0.533763
0.714843
0.717931
0.657878
0.0727365
0.443204
0.593707
0
0.598209
0
0
0.738707
0.775033
0
0
0.661469
0
0.782396
0.71781
0.758652
0
0.257583
0
0.371021
0.333436
0.653102
0
0
0.431684
0.771869
0.653535
1.13966
0.775412
0.809446
0.486189
0.538535
0.29879
0.719812
0.93186
0
0.520899
0.349482
0
0.758848
1.05893
0.54245
0.485889
0.952586
0
0.616036
0.382109
0
0.146813
0
0
0.286052
0.294511
0.303937
0.815251
0.367265
0.597194
0
1.1447
0
0.71097
0
0.923034
1.16749
0
0.847876
2.30154
0.150738
1.31652
0
0.858864
0.423699
0
0.437015
0.56325
0.898916
0.53467
0.728088
0.872632
0.729474
0
0
0
0.543221
0.604453
0
0.350925
0
0.653943
0.40652
0
0.500587
0
0.548521
0
0.36733
0.355928
0
0.416076
0.580432
0.775729
0.867281
0.700794
0.612991
0.259972
1.50299
0
0
0
0
0
0
0
0
0
0
0
0
0
0
0
0
0
0
0
0
0
0
0
0
0
0
0
0
0
0
0
0
0
0
0
0
0
0
0
0
0
0
0
0
0
0
0
0
0
0
0
0
0
0
0
0
0
0
0
0
0
0
0
0
0.192629
0.469214
1.00645
0.514392
0.516527
0
0.522524
0.59459
0.319344
0.353596
0.474494
0.481931
0.320384
0
0.503621
1.2052
0.412498
0.578331
0
0.536671
0.422641
0
0.478444
1.05233
0.253094
0.544682
0
0.707979
0.499347
0
0.483547
0.88455
0.898849
0.945592
1.57487
1.59278
0.552424
0.337175
1.1331
0.819619
0.137991
0.688769
0
0.235409
0.437461
0
0.518048
1.04098
1.29988
0.29877
0
1.91745
0.57214
0
0.711444
0.897514
0.302684
0.688603
0
0.670489
0.786597
0
0.274446
1.25979
0.259017
0.529889
1.5412
0.741825
0.709574
0.769445
1.80485
0
0.726235
0.557182
0.712392
0.812321
0.532842
1.75199
0
0.677275
0
1.35444
1.15421
0.507599
0.855623
0.640673
0.946039
0
0.621838
0.455188
1.09231
1.76924
0.795633
0.644274
1.15275
0.576783
0.661052
0.510465
0.433565
0.575045
0.993838
0.646656
1.64164
0.725495
1.6628
1.0576
0.51257
1.15868
0.848724
1.68566
1.33182
0
0.44141
0
0.576236
0.872154
0.838281
1.36899
0.803319
0
1.06728
0.274404
0.707288
1.03167
1.49507
1.56038
0.396656
0
2.39146
0
0.383823
0.513908
0.59351
0.460969
0
0.688577
1.18074
0.803726
0.93423
0.589973
0.210974
0.859732
1.251
0
0.348295
0
0.839747
1.1349
0
0
1.32401
0
0
0.520343
0
0
0.52804
0
0.547529
0.430935
0
0
0.544831
0
0.455556
0.379544
0.745345
0.969964
0.690757
0.249286
1.09708
0.995602
0
0.76515
0.188141
0.504807
0
1.4121
1.19799
0.318006
0
0.721952
1.30536
0
0.702371
0.821644
0
1.64207
1.79027
0.817633
1.40071
0.420718
1.25565
0
0.446413
0.474898
0.628911
0.37524
0.259917
0.40811
0.527611
0
1.05485
0.462745
0.758912
0
0.70954
0
0.268469
0.248371
0.954492
1.40177
1.25672
0.686712
2.98117
0
0.272586
1.27909
0.961937
0.396472
0.801944
0.74246
0.423675
0.138151
0.654906
0
0.924696
0.564048
0.798546
0.309793
0.314621
0.524076
0.762808
0.957553
0.503717
0.226281
0.602555
0.458378
0
1.10681
0
0.599315
0.51461
0.761693
0.852656
1.27536
2.10492
0.722434
1.12073
0.971898
0.18776
0
1.23642
0.498569
1.10507
0
0
0.346457
0.606969
0.362806
0.273469
0
2.74975
0.530171
0
0.772881
0
0.999773
0
0.530005
0.206635
0.717641
0.423931
0
1.26495
0.279236
0.5024
0
0
1.02336
0.206279
0.595837
0.789373
0.852974
1.40377
0
0.188914
0
1.24281
0.575759
0
0.330887
0
0.646021
0
0.344948
0.415594
0.486572
0.454475
0.330227
0.388043
0.449063
0.685509
0
0.544472
0.915604
0.279684
0.560096
0.511808
0.822487
1.00309
0.343343
0.797617
1.21451
0.535185
1.15966
0.417903
0
1.66552
1.51304
0.558965
0
0.72103
0.642699
0.790704
0
0.854631
0.432154
0.919268
0.28122
0
0
0
0.690014
0
0.861469
0
0.62762
0.770838
0.648822
0.367187
0.233276
0.418688
0.636344
0.770345
0
0
0.221257
0
0.369397
0
0.58586
0.740617
0
0.514554
0
0
0.571626
0.947029
0
0
0.370319
0.959411
0.40036
1.01542
0
0.575562
0.70231
0
0
0.310622
0.407851
0.394551
0.563557
0
0.323031
0.460232
0.667863
0
0
0.904125
0.690027
0.556713
1.38786
0.587098
0
0.238213
0.320658
0.413329
0.547795
0.649854
0.940589
0.634288
0.799027
0
0
0.850426
0.521265
0
0.920066
0.141434
0.453037
0.537509
0.634922
0.492547
0.245839
0.937906
1.62411
2.11652
0.816542
0.369905
0
0.564197
0.221658
0.466521
0
0.588852
0
0
0
0.478754
0
1.02981
0.917449
0.752099
0.599371
0.86864
0.346698
0.676044
0.967894
0.49458
0.895515
0.471271
0.838977
1.10544
0.79168
0
0.267666
0.751002
0.63763
0.979954
0.843415
1.0435
0.631576
1.3553
1.79969
0.676288
1.11727
1.00452
0.658866
0.702268
0
0.974073
1.80432
1.02948
1.47679
0.508815
1.06802
0
0.999669
1.46213
0.257588
0.494461
0.456236
0
0.770262
1.05027
0.712373
2.06907
0.682722
0.45897
1.02898
0
0.408132
1.01211
0.94867
0
0
0.203382
1.25574
0.200093
0
0
0
0
0
0.748184
0.668366
1.64274
0.933367
0.528067
0
0.53335
0.472094
0.523799
0
0.552848
0.734575
0.654224
0
1.31355
1.43712
0.771196
0.810195
0
0.815088
0.443598
0.801866
0.476816
0
0.392329
0.624787
0.535426
0.954395
0.923222
0
0.468724
0.743035
0.604462
0.390609
0.734717
0.251336
1.02261
1.09088
0.258552
0.785456
0
0.47642
0.459786
0.377032
0.351713
0
0.282126
0
0.375882
0
0.470285
0.720391
0.421689
0.687826
1.13395
1.30966
0
0
1.19088
0
0.467742
0.796017
0.764867
0.430558
0.644325
0.775623
0.916244
0
1.16968
0.475118
0
0
0
1.29145
0
0.374408
0
1.07233
0.166706
0.818715
0.700265
0.550398
0.458472
0.800308
0
0.991488
0
0.724064
0.500404
0.588792
1.47864
0.816149
0
0.321214
0.71418
0.514263
0.243177
0.384241
0.900129
0
0.543594
0.607188
0.603647
0.543959
0.627764
0.793395
0.569935
0.508895
0
1.20095
0
0
0.268432
1.4288
0.32299
0
0.418997
0.297132
0.607205
0.603762
0
0.20337
0
1.79535
0.290569
0
0.229707
0
0.675043
0
0.382535
0.916555
0.599051
0.522079
0.323008
0
0.138735
0.642824
0
0.772894
0.621747
0.386432
0.605277
0.546473
0.775542
1.00795
0.562487
1.04397
1.06234
0
0.4356
0.405
0.513076
0.384263
0
0.714368
1.16964
0.795508
0.412869
0.466902
0.754877
0
0.40048
0
0
0.40767
0
0.459395
0.21266
0.576961
0.2369
0.844747
0
0.484616
0
0.523502
0.786184
0
0.784315
0.445471
0.478667
0.584911
0.24162
0.245142
0
0.763138
0
0.611044
0
0.433942
0
1.1309
0.499255
1.3246
0
0.72535
0.539102
1.28407
0.121332
0.295576
0.163859
0.222062
1.26591
0.185088
0.736583
0.770775
0.706238
1.92538
0.873793
0.778349
0
0.64758
0
0
0
0.534558
0.726499
0.427455
0
0.718701
0
0.756357
0
0.449698
0.602241
0
0.750311
0
0.646258
0.652122
0
0.349598
1.75253
1.20666
0
0
0.339961
0
0.526133
1.24755
0.684936
0
1.48827
0.328298
0
0.257751
0.681543
0.485958
0
0.427859
0.718254
0.519851
0.831649
0
0.616453
0.525512
0
0.501058
0
0.475168
0
0.949323
0
0.56528
0.577847
0
0.311874
0.895587
0
0.48757
0.139188
0.294235
0.252446
0.533227
0.788705
0
0
0
0.507429
0.422896
0.464216
0.948231
1.04296
0.177271
0.3749
0.341508
0
0.819294
1.22465
1.14562
0.776394
0
0.574361
0.920795
0.721143
0.44447
1.05988
0.53064
0
0.589778
0.245066
0.891899
0
0
0.396986
0.529058
1.4053
1.31252
1.42968
0
0
0.662568
0
1.02363
0.906837
1.01449
0.604031
0.346318
0.446463
1.11887
0
1.12576
0.98307
0.511843
0
0.795966
0.603815
0.427694
0.48536
1.33584
0.677403
0.453305
0.577662
0
0.622479
0.835926
0.649772
0.53757
0.546635
0
1.36799
0.747891
1.29953
1.07866
0.762434
0.898726
0.537655
0.826788
0.383171
2.10434
0.331652
0.585324
0.26502
0.360879
0.426166
0.41424
0.824095
0
0.595388
0
0
0.803145
1.19397
0.797465
0.850982
0.241019
0.584205
0
0.488743
0.612532
0.794067
0.30947
0.471186
0.774131
0.701985
1.97872
1.12352
1.24946
0
0
0.653099
0
0.533253
0
0.497394
0.443713
0.274041
0.615655
0
0.875759
0
0.746729
0
0
0.662333
0.530627
0.458975
0
0.414499
0
0.922634
0
0.868392
0
0.69493
0.877736
0.505231
0.867519
0.883073
0.474647
0.759198
0.502509
0.480149
0
0
0.932868
0
0.459453
0.661682
0.333715
0.552708
0.892601
0.667592
0
0.913121
0.340405
0.835045
0
1.21773
0
0.565251
0.540052
0.553185
0
0.764642
0.352338
0.695815
0
0.321161
0
0.368018
0.664389
0.532489
0
0
0.707366
0.385831
0.657297
0.559289
0
0.345162
0.620241
0.335614
0.460515
0.438997
0.664704
1.04645
0
0.723501
0
0.505126
0
0.156816
0
0.486585
0.650434
0.908906
0
0.733252
1.06034
0.744932
0.523873
0.76701
0.497093
0
0
0
0
0
0
0
0
0
0
0
0
0
0
0
0
0
0
0
0
0
0
0
0
0
0
0
0
0
0
0
0
0
0
0
0
0
0
0
0
0
0
0
0
0
0
0
0
0
0
0
0
0
0
0
0
0
0
0
0
0
0
0
0
0
0.793214
0
1.30929
0.772743
0
0
0.967334
0.74102
0.649507
0
0
0
0
0
0
0
0.751992
0
0
0
0
0
0
0
1.04164
0
1.48155
0.468112
0
0.680819
1.39244
0
0
0
0
0
0
0
0
0
0
0
0
0.664615
0
0.975954
0
0
0.230462
0
0
0
0
0
0
0
0
0
0.675335
0
0
0.371632
0
0.169554
0.910987
0.827
0.941525
1.33746
0.830438
1.08626
0.986098
0.602351
1.2901
0.577291
0.655473
1.46119
0.392613
0.773336
0.579185
0
0.981322
0.988413
0.43068
0.47744
0
0.848872
0.991611
0.655855
0
0
1.24909
1.27583
0.476324
0.913087
0
0
0.443752
0.952555
0.611814
0.549693
0.672989
0
0.581565
0
0.199885
0.953983
0.948603
0.987668
0.544966
0.623115
0
1.12976
0
0.921503
0
0
0.387926
0.524963
0.687969
0.637324
0
0
0.107083
0
0.797947
0.645247
0.4893
1.08572
0
0.891463
0
0
1.0382
0.351183
1.47641
0.812832
0.657274
0.136953
0.479174
0.494574
0.701503
0.99529
0
0.836363
0
1.16846
0
0
0.790618
0
0.419933
0.602057
0.77447
0.82276
0
0.435035
0
0.618629
0
0.482275
0.395931
0
0.872091
0.347239
1.08407
0.480958
0.757276
0
0.730229
0
0
0.806445
0.373932
0.374919
1.0758
0.449157
0.722723
0.950024
0.643001
1.34373
0.662876
0.606685
0.281475
0
0.65806
0.432057
0.581568
0.698339
0
0.364057
0
0.437871
0.739749
1.61686
0.332644
0
0.473106
0.810666
0.606975
0
1.14505
0
0
0.699754
0
0
0.276832
0
0.61039
0.611218
0.556054
0.377573
0
0.387322
0.617093
0.624828
0.979573
0.552596
0.509499
0.725556
0.42302
0.647628
0
0.521255
0.546144
1.25037
0.644513
0.499265
0
0.781815
0.356971
0.861899
1.08077
0.379164
0
0
0.591135
0.722398
0.423558
0
0.489721
0.715002
0.802292
0.740314
0.988763
0.947066
0.69611
0.692783
1.00273
0.503438
0.44425
0
0
0
0.370093
1.03846
0.312054
2.57553
0.433431
1.14814
1.09809
0.282477
0
0
0.748195
0
0.739342
0
0.48142
0.319311
1.75006
1.89768
0
1.52442
0
0.48054
0.456449
0
0.357065
0
0.59229
1.02142
0
0.498751
0.308178
0.442338
0.590754
0
0.86144
0
0.264828
0.562929
0.29826
0.758751
0.529958
0.233709
0
0.647547
0.499098
0.604735
0.996973
0.773706
1.09992
0.579632
0.440885
0.7809
0.599455
0.595342
0.71224
0.479283
1.07109
0.619069
0
0.521228
0
0.691637
0
1.60082
1.11206
0.166952
0.662815
0
0.606341
0.691694
0.273514
1.03847
0
0.839763
0.898483
0.403682
0.512462
0.492046
0.194543
0.604754
0.624494
0
0.862007
1.63254
1.15495
0.466091
0.468985
0.754455
0
1.16424
0.517974
0.577757
0.535766
0.123066
0.125772
0
0
0.533787
0
0.99796
0.337747
0.73623
0.252914
0.438061
0
0.643935
0
0.933636
0
0.565224
1.16459
1.07864
0
0.530902
0.550138
1.33008
0.217883
0
0
0.354588
0
0.689307
0
0.657622
0.780023
0.686647
0
0
0
0
0.324386
0.305859
0.293379
0
0.143042
0.836504
0.61375
1.33569
0.246469
0.331718
0.614782
0.296771
0.413862
0.441822
0.508722
0.629923
0.321743
0
0
0.458297
0.355151
0.933566
1.44279
0
0.851049
0
0.503873
1.43033
0.228936
0.509495
0
0
0.898362
0.930025
0.832883
0
0.79036
0.718293
0
0.927221
0
0.820525
0
0
0.802389
1.71623
0.953804
0.377029
1.09164
0.619448
1.20533
0.63386
0.502604
2.73148
2.04691
0.656531
0
0
0.276824
0
0.725424
0.902512
0.663771
0.34221
0
0.478702
0
0.892854
1.35477
0.812893
0
0
0
0
0.892097
0.638107
1.04715
1.03403
0.295658
0.402334
0
0.386788
0.746215
0.33311
0.3176
1.90988
0
0
0
0.763305
0
0.66998
1.03766
1.3592
0
0
0.565512
0
0.660313
0.677419
0.403997
0.584142
0
0.682438
1.56496
1.57213
0.531367
0.674632
0.191245
0
0.547574
0
0.760387
0
0.600929
1.48172
0.88507
0.839424
1.20584
0.465682
0.276976
0.639135
0
0.964984
0.714294
1.38947
1.0436
0.74032
0.866115
0.425907
0.195848
0.644274
0.624124
0.413441
0.330029
0.733797
0
0
0.689013
0.583485
0.444711
0.648766
0.334534
0.789766
0
0.48457
1.1913
0.516175
0.117204
0.047174
1.1725
0.727316
1.06173
0.739726
0.369872
1.1928
0
0.580776
0
1.29814
0.502677
0.717146
0
0
0.335013
0
0
0.490051
0.780468
0.589208
0
0.771171
0.499582
0.959337
0.581147
0
0.415794
0.699297
0.394587
0.188716
0.270987
0.3666
1.0128
0.659992
0.90462
1.02424
0
1.12948
0.809973
0
1.07385
0.427361
0.382437
0.382218
0.784222
0
0.432368
0
0.753955
0.956751
0.791887
0.567019
0
0
0.785961
0.349542
0.384327
0
0.541829
0.697775
0.616363
0.446288
0.625093
0.782574
1.43022
0.905337
0.595669
0.900216
1.39625
0.904464
0.698841
0
0.932249
0.325121
1.83828
0.328797
0.344276
1.29308
0.887415
1.31634
0
1.21582
1.48469
0.533805
0.633449
1.22897
0.46878
0.868379
0.721903
1.3536
0.90978
0
1.14406
0
1.87074
0
0
0.409937
0
1.15868
0.405474
0.533401
0.919272
0.401068
0.531245
0.208117
0.443949
1.48003
0.886809
0.275665
0
0.112146
0.226445
0
0.369091
0
0.587001
0
0
0.162123
0.478191
0.683525
0.627593
0.452182
0.781114
0
1.14731
1.05328
1.7742
0.614053
0
1.23963
0
0
0.635261
0.765685
0.550388
0.416431
0
0.475856
1.356
0.913185
0.410414
0
0.69769
0.48871
0.795678
0
0.457338
0
0
0.50335
1.13579
0
0.169424
0
0.913592
0.647651
3.93266
0.38248
0
0
0.492097
0.525956
0.47116
0
0.427084
0
0.609394
0.530273
0
0.597814
0.679765
0.371765
0.46402
0.732948
1.3573
0.76249
1.16574
0.457867
0
0.596849
1.26846
0
0
0.600779
0.735266
0
0.395026
0
1.12805
0
0.447983
1.09679
0.418392
0
0.623374
0.435596
0.479394
0
0
0.473749
0
0.70597
0.603051
0.498004
0.44795
0
0.463132
0
1.01345
0.463338
0.786311
0
0.562767
1.25343
0.643982
1.16582
0.744909
0.429045
0.399762
0.729787
0.509899
0.409769
1.90583
1.0591
0
0.77723
0
0.537926
0
0.992011
0
0.413162
0
0
0.580753
0
1.01913
0.700966
0.739551
0.542756
1.07384
0.668386
0.904471
1.0425
0.290021
0
0.760777
0.622381
1.24425
0.260116
0.707794
0
0.368785
1.45459
0
0
0
0.808319
0.389421
0
0.891729
0.725136
0.246466
0.678423
1.28036
1.62718
0.499948
0
0.557134
0
0.732335
1.03628
0.422944
0.454939
1.04097
0
0
0
1.65445
0.776179
1.49057
0.827179
0
0.96418
0.407697
0.609149
0.227972
0.907955
0.811129
0.816042
0.331826
0.512375
0
0.415646
1.01814
0
0.370197
0.654205
1.09263
0
0.547707
0.760214
0.853713
0.390277
0.48975
0.48104
0.310398
0.725259
0.699896
0.574334
0.7385
0.527891
0
1.32629
0
1.1626
1.70707
0.933701
0.694446
0.501083
0.716606
1.35548
0.960531
0.558523
0.953647
0
0
0.322467
0
0.502024
0
0.786184
0
0.528714
0.302783
0.641685
0
0.696458
0.699837
0.578698
0
0.477099
0.340577
0
0.308424
0.381925
0.514206
0.11802
0
0.794811
0.376333
0.50255
0
0.403631
0
0.826586
0
1.10816
0
0.751788
0
1.48792
1.00628
0.677907
0.694854
1.25716
0.217835
0.294986
0
0.561191
0.828329
0.795394
0.470324
0.748447
0.894723
0.495044
0.401833
0.533133
0.571639
0.358636
0
0
0
0.409249
0
0
0.509152
0
0.455954
0.76251
1.58535
0.696824
0.723145
0.615303
0
0.693314
0.735465
0
0.612682
0.817128
0.450221
1.06066
0.184742
0
0.554545
0.846769
0.424857
0.328766
0
0.503415
1.03472
0
0.443623
0.665125
0.321148
0.735417
0.420475
0.698475
0.55734
0.672466
0
0.536304
0.267782
0
0
0
0
0
0
0
0
0
0
0
0
0
0
0
0
0
0
0
0
0
0
0
0
0
0
0
0
0
0
0
0
0
0
0
0
0
0
0
0
0
0
0
0
0
0
0
0
0
0
0
0
0
0
0
0
0
0
0
0
0
0
0
0
0.427594
0.491979
0
0.411961
0.589467
0.994556
0.345618
1.20165
0.344766
0.478036
0
0.378479
0.318426
1.18571
0.493394
1.15535
0.229682
0.99585
0
0.374557
0.365177
0.557717
0.546461
1.02851
0.175161
0.708282
0
0.434729
0.469427
0
0.586175
1.14948
0.360012
0.432088
0
0.44179
0.751301
0
0.529487
0.924563
0.632401
0.317022
0
1.01876
0.603491
1.2269
0.646913
0.877293
0.290605
1.89124
0
0.590879
0.632229
0
0.38745
0.796039
0.452793
0.436779
0
0.814047
0.396817
0
1.40031
1.18543
0.402331
0.890085
0.937114
0
1.1693
1.79442
0
0.691142
0.519474
0.815131
0.511829
0.869832
0
0.696814
1.85752
0.237389
0.470844
0.620589
0.456674
0.484398
0.616671
0.448906
0.44293
0.703496
0.936334
0.673474
0
0
0
0
1.49736
0.593277
0.3591
0.425286
0.43994
1.98689
2.20794
1.54851
0.460151
0
0.191423
0.828784
1.1885
0.700906
0.87664
1.17828
0
0
0.375621
0
0
1.20694
0.744252
0
0.489183
0.500832
0.684382
0.502598
0.323316
0.706558
1.21103
0.768766
0.83749
1.20702
0.442016
0.290852
0.788072
1.63166
0.555274
0
0.483856
0.771437
0.810636
0.285144
1.20205
0.542281
0
0.669555
1.44018
0.537622
0.586061
0
0.922314
0.706906
0.86699
0.533024
0.767622
0.894023
0
0.352341
0
0
0.520976
0
0.429729
0.333991
2.38217
0.546551
0
1.0143
0.576862
0.615261
0.346106
0.769771
0
0.483916
0.119981
0.604556
0
0.644669
0.608761
0
0.736414
0
0
0
1.0105
0
0.560238
0
0.536451
0.614705
0.713614
3.60406
0.529903
0.497189
1.42321
0.61944
0.193874
0.84585
0.765938
0
0
0.611871
0.526922
1.14761
0.578012
0.517468
0.411436
0.458826
1.12069
0
0
0.765916
0.727414
0.432712
2.66072
0.462703
0.418299
0
0.691131
0
0
0
0
0.344244
0.967448
0.211651
0.62807
0.756616
0
0
0
0
1.53263
0.627009
0.204006
0.922239
0.650212
0
0.816582
0.640889
0.520275
0.539658
0.354494
0
1.28391
0.694905
0.813031
0.628501
0.472161
1.27678
0
0
0.547716
0.318933
0.747099
0
0.486928
0.450862
0.0775047
0
0
0.293294
0.0820047
0.501469
1.60907
0
0
0.504116
0
0.34735
1.0362
0.749883
0.509118
0
0.520742
0
0.50484
0
1.17496
0
0
0.672575
0
1.35952
1.10874
0.291229
0.448656
0.665913
0.993186
0
0.40158
0
0
0
0
0.419136
0.72854
0.678656
0.977208
0.439048
1.31988
1.02142
0.357759
0.556343
1.84075
0
0.838809
0.950898
1.14919
0.65669
1.65852
0.447502
0.594562
0
0.706129
0.672815
1.02858
0
0.918403
1.5523
0.626097
0.472451
0.628122
0.779007
1.26193
0.462358
0.633211
0.887178
0
0.858163
0
0.883729
1.15285
1.1137
0.594277
2.52243
0
0.548619
0.467604
0.947144
1.12668
0
0.388947
0.308486
0
0.514659
0
0.688628
0.499575
0.526733
0.970813
0.253955
0.428499
0.50702
0.545782
0.845252
0.485263
0.663734
0.548313
0.191801
0.633238
0.476443
0.608691
0
0.356564
0.9189
1.12508
0
0
0.641615
0.441854
0.731659
0
0
0.69492
0
0.422096
0
0.619953
1.25265
0.43594
0.766684
0
0.218782
0.609779
0.304881
0.579886
0
0.348187
1.22831
0.630204
0.322199
0
0.789973
0
0.624301
0
0.310794
0
0.416057
0.770436
0.580367
0.348154
0
0.430574
1.14231
0.509849
1.19065
0.735876
0
0
1.1876
0
0.378142
0.250847
0
0.560662
1.15053
0.301142
0.180212
0.36503
0
0
0.604748
0.545382
0.651778
0.696361
0.577141
0.930352
0.606135
0.582709
0.194956
0.931792
0.653208
0.460409
0
0.0532828
0.888713
0.458719
0.746213
0
0.210034
0.566388
0
0.611275
0.664642
1.82677
0.631454
0.739984
1.61768
0.28845
0
0.391651
0.588217
0.367949
0
1.06599
0.369401
0
0.904757
0.686193
0.268868
0.664085
0
0.499631
1.69923
0.547439
2.21569
0.464139
0
0
0.537233
0.295634
0.467018
0
0.756292
0
0.805425
1.47465
1.07062
0
0.601133
1.04809
0.496316
0.392622
0
0
0
0
0
0.442309
0
1.23056
0
0.938477
0.58842
0
0.254718
0
0.727064
0.672075
0.517384
0.485179
0
0.508554
0
1.10521
0
0.565422
0
0.933638
0.697478
0.352716
0.353013
0.647795
0.495416
0.409657
0
0
0.329324
0
0.909944
0.79868
0.39046
0.315523
0.262111
0.709215
0
0.396029
0.500821
0.933481
0.884076
0.209837
0.785524
0
0.638215
0
0.340349
0.63375
1.04411
0.321155
0
0.624637
1.29186
1.18011
0.413165
0
0.671526
0.613412
0.721033
0.791663
0.589733
0.484302
0.394119
0.535132
0.628304
0
0.459071
0.37503
0.322303
0.589723
0
0
0.54605
0
0
0
0.514432
0
0.666767
0.94797
0.526134
0.768284
0.778022
0
0.333177
0.538793
0.67081
0.778138
0.585199
0.901449
1.86337
1.00053
0
0
0.464439
0.702387
0.438768
0
0.380113
0
0.638073
0.640381
0
0.418056
0.5383
0.515857
0.596054
0
0
0.742411
0.78681
0
0.667574
0
0.371102
1.05228
0.931663
0.829634
0.84625
0.551945
0.954777
0
0.891035
0.794594
0.688401
0.624426
1.21898
0.613566
0
0.610847
1.82573
0.898106
1.01044
0.44278
1.45889
1.06838
1.78643
0.489794
1.10449
0.381137
1.49384
0.407226
0.712271
0.220752
0.457721
0
0.844711
1.37439
0.778782
0
0.684396
0
0.473957
0
0.477477
0.308484
0
0.413912
0
0.478463
0.532983
0.617058
0.921316
0.669064
0
1.188
0.771662
0
0.391705
0
0
0
0.219088
0.894895
0.249826
1.02631
0.636732
0.325951
0
0.631972
0.848649
0.637607
1.18722
0
0.421265
0.312735
0
0.232434
0.650274
0.505271
0.473184
0.459352
0.726693
1.42655
0.317773
0
0.374722
0
0.313362
0
1.12506
0.609358
0.72313
0
0.734822
0
0
0.967716
0.403968
0.981279
0.652221
0.552296
0.962382
1.38076
0.78616
0.807304
0
0.704521
0.445893
0.936619
0
0.451743
0.896272
0.575053
0.737711
1.06422
0.610625
0.0687707
0.645881
0.57779
0
0.778887
0
0.675935
0.706471
0.431046
1.00096
0.576146
1.45351
0.226459
0.594028
0
0.915308
0.476518
0.328256
0.913002
0.737649
0.534565
0
0.558416
0.658043
0
0.308281
0.47755
0
0
0.196222
0.734421
0.839938
0.710871
0.838282
0.473542
0
0.723781
0.343203
0
0.317241
0
0.459601
0.512762
0
0.878794
0.471231
0.394656
0.263088
0
0.731416
0
0.356983
0.129754
0.908701
0.295952
0.490855
0.752949
0.432877
0.614434
0.361022
0
0.882947
0.575211
0.459929
0.362209
0.988112
0
0.670809
0.930266
0.709647
1.41183
0.22994
0.596591
0.89807
0
0.817255
0
0.705117
0.713015
0.689355
0.505807
0.886379
0
0
0.612702
0.582681
0.479042
0.648036
0.733349
1.07306
0
0
0
0.512005
0.421306
0
0
0.955209
0.729457
0.597571
0.358363
0.9752
0.712535
0.66195
0.617247
0.287503
0.455845
0
0.649331
0.850702
0
0.382558
1.4307
0.572469
0
0.589513
0
0
0.384895
0.646804
0
0.592212
0.309254
0.812293
0.448711
0
0.802843
0.311028
0.318602
0.77532
0
0
0.894359
0.870394
0.370332
0
0.584728
0.479628
0.883317
0.427583
0
0.792108
0.466174
0.548473
0
0.935403
1.07763
0
0
0.742198
0.57616
0.843908
0
0
0.648439
0.410263
0.425919
0
0.938321
0.551315
0.7539
0
0
0.58839
0
0
0.381194
0.713236
0
0.164291
0.243399
0.769382
0
0.839822
0
0.609044
0.85679
0.425682
0.631178
1.17177
0.806108
0
0.798293
0
0.414667
0.240447
0
0
0.438652
0
0.653468
0
0.642762
0
0.547081
0.556452
0.317314
0.453038
0.340772
0.362432
0.49265
0
0.2742
0.467582
0.697946
0.65055
0.47193
0.302014
0.291224
0.948007
0.776689
0
0.445272
1.42596
0.74143
0.250614
0
0.434045
0.386893
0.707213
0.322165
0.699363
0.772943
0
0.467949
0
0.189943
1.15478
0.102179
0.674293
0
0.590676
0
0.564617
0.478379
0.597686
0.620335
0.754106
0.514407
0.652233
0.760828
1.19029
0.871454
0
0.404217
0.328814
0
0
0
0
0
0
0
0
0
0
0
0
0
0
0
0
0
0
0
0
0
0
0
0
0
0
0
0
0
0
0
0
0
0
0
0
0
0
0
0
0
0
0
0
0
0
0
0
0
0
0
0
0
0
0
0
0
0
0
0
0
0
0
0
0.24417
0.699488
0
0.333334
0.734489
1.39278
0.390711
0.866165
0.294382
0.550419
0.687933
0.475636
0.609306
0.790951
0.467314
0.88958
0.351503
0.36481
0
0.442192
0.438192
0
0.435683
0.901372
0.380274
0.277142
0.325323
0.512806
0.545509
0
0.488899
1.16737
0.323569
0.568245
0
0.474476
1.09498
2.10036
1.11742
1.21185
0.374271
0.982289
1.87825
0.40316
3.64683
1.2352
0.671795
0.759303
1.65783
0.175236
0
1.07378
0.201034
0
0.770631
0.248818
0.0947509
0.783041
0
0.397376
0.679315
0
0.302196
1.03779
0.780126
0
0.916649
0.929268
0.574387
1.01733
0.499188
0.586456
0.698581
0.707099
0
0
0.734721
0.298927
0.471393
0.71125
0.775247
0.77805
0.434867
0.342783
0
1.40404
0.588269
1.33436
0
0.8493
0.833411
0.60479
1.35578
1.02563
0.844486
0.569912
0.576818
0.525666
0
0.496925
0
0.297775
0.0651885
0
0
0
0.608226
0.65839
1.31186
0.705323
0.306144
0
0.7715
0
0.561735
0
1.11551
0.984472
0.477987
0.84819
0.576075
0
0.642462
0.649697
0.362647
1.20255
1.76728
1.31302
0
0
1.22347
0.941064
0
0.373489
0.27646
0.0590094
0.653112
0.19558
0.34745
1.54667
1.12542
0.732719
1.46007
1.10306
0.923054
1.33144
0
0.691429
1.36667
0.977423
1.11676
0.850081
1.07579
0.738446
0.710373
0.716131
0
0.381451
0
0.499571
0.785007
0.5913
1.76639
0.272808
0.767131