<?xml version="1.0"?>
<VTKFile type="RectilinearGrid">
<RectilinearGrid WholeExtent="0 32 0 32 0 32" Origin="0 0 0" Spacing="1 1 1">
<Piece Extent="0 32 0 32 0 32">
<PointData>
</PointData>
<Coordinates>
<DataArray type="Float32" format="ascii">
0 0.524874 1.04975 1.57462 2.0995 2.62437 3.14924 3.67412 4.19899 4.72386 5.24874 5.77361 6.29849 6.82336 7.34823 7.87311 8.39798 8.92285 9.44773 9.9726 10.4975 11.0224 11.5472 12.0721 12.597 13.1218 13.6467 14.1716 14.6965 15.2213 15.7462 16.2711 16.796 
</DataArray>
<DataArray type="Float32" format="ascii">
-5.03879 -3.62163 -2.20447 -0.787311 0.629849 2.04701 3.46417 4.88133 6.29849 7.71565 9.1328 10.55 11.9671 13.3843 14.8014 16.2186 17.6358 19.0529 20.4701 21.8872 23.3044 24.7216 26.1387 27.5559 28.973 30.3902 31.8074 33.2245 34.6417 36.0588 37.476 38.8931 40.3103 
</DataArray>
<DataArray type="Float32" format="ascii">
0 0.524874 1.04975 1.57462 2.0995 2.62437 3.14924 3.67412 4.19899 4.72386 5.24874 5.77361 6.29849 6.82336 7.34823 7.87311 8.39798 8.92285 9.44773 9.9726 10.4975 11.0224 11.5472 12.0721 12.597 13.1218 13.6467 14.1716 14.6965 15.2213 15.7462 16.2711 16.796 
</DataArray>
</Coordinates>
<CellData>
<DataArray type="Float32" Name="Scalar" format="ascii">
0
0
0
0
0
0
0
0
0
0
0
0
0
0
0
0
0
0
0
0
0
0
0
0
0
0
0
0
0
0
0
0
0
0
0
0
0
0
0
0
0
0
0
0
0
0
0
0
0
0
0
0
0
0
0
0
0
0
0
0
0
0
0
0
0.158177
0.183633
0
0.271041
0.255319
0
0.504464
1.15455
0.0224035
0.293301
0
0.16506
0.255182
0
0.360177
0.974283
0.303456
0.328135
0
0.346888
0.271052
0
0.369516
0.907023
0.0448875
0.405745
0
0.254928
0.160218
0
0.181795
0.942074
0.134225
0
0
0.105287
0.533087
0
0.483679
0.414748
0.171295
0.17383
0
0.989829
0.105328
0
1.51454
0.978014
0.269402
0.694777
0.52169
0.519634
0.682687
0
0.0309262
0
0
0.239114
0
1.22348
0.345982
0
0.612288
0.803223
0
0.927086
0.554155
0.346829
0.688751
0
0.528746
0.732971
0.930358
0.639265
0.689035
1.20267
1.00391
1.1597
0.745393
0.886453
0.522574
0.319026
0.309617
0
0.978295
0.736193
0.807131
0.746565
0.997063
0.784629
4.52303
3.45543
1.21109
0.865755
0.637333
0.554243
0
0
0.352973
0.62002
1.98925
1.16488
0.431353
0.490633
0
0.746439
0.749974
0.889304
0
0.498277
1.59888
1.04495
0.346427
0
0
0.717047
0.529184
0.518807
0
0.618853
0
0.353322
0
1.79548
1.27292
0.853461
0
0.590667
0.702052
1.05474
0.790914
0.759876
0.610504
1.1357
0.898595
0.672389
2.38287
1.22695
0.906431
0.723626
0
0.375262
0.630725
0
0.508845
0.805551
0.683707
0.354763
0.377039
0
0.762607
0.373669
0
0.575122
0
0
0.541351
0.396282
0.752048
0.480835
0
0.872601
0.923643
0
0.496583
1.28746
0
1.721
1.22701
0.926509
1.19756
0.702797
1.2463
0.703477
0.353494
0.574171
0
0.525296
0
1.08868
0.552173
0.584623
1.03298
0
2.80856
0.639068
0.515434
0.800731
0.610632
0.554918
0.918403
0
0.669234
1.09626
0.842253
0
0.632569
1.92882
1.16225
1.44934
1.31411
0.906019
1.37187
1.07136
1.88632
1.21351
0.448526
0
0.584492
0.449731
0.642915
0.715216
0
0.356895
1.38947
0
0
0.306394
0.46559
0.594664
0.341176
0
0.909483
0
0
0.473073
0
0
0.480427
1.12515
1.27356
1.62736
0
0.869097
0
0.462617
0
0.766743
0.551289
1.21048
0.472192
1.16475
0
1.24193
0
0
0
0.809729
1.18217
0
0.379224
0.564253
0.567538
0.167365
0.288292
0.378922
0.539046
0.994399
0.587572
0.472722
0.835922
0
1.08063
0.756433
0.845798
0.620555
0
0.725112
0.428024
0.506112
0
0
0.785418
0.693931
0.862433
1.58525
0.656334
0.779922
1.15684
0.54973
0
0.698396
0
1.03892
0
0.518287
0
1.0219
0
0.312658
0.643974
0.573124
0.485386
0
0.428092
1.00822
0.659755
1.11361
0.611761
0
0
0.788474
0.927009
0.578506
0.761925
0.612279
0.605417
0.500599
0
1.29659
0
0
0
0.332368
0.498843
0.86895
1.46412
0.736762
0.7035
0.81495
0.57951
0.649834
0
0.637694
0
0
0
0.52723
0
0.738131
0.368616
1.56371
0.844789
0
0.443197
0.182838
0
0.644109
0
0.448926
0
0.431116
0.709632
0
0.281285
1.01124
1.42833
0.955509
0
0.200043
0.549915
0
0
1.15514
0.556337
0.724675
0.642721
0.269131
0.88778
0.72982
0.425547
0.36757
0
0.538826
0.310105
0.798866
0
1.55611
0.527418
0
0.866893
0
1.21208
0
0.322842
0.784529
0.371589
0.433752
0
0.519199
0.516217
0.310681
1.15574
1.03117
0.877462
0.357399
0.810264
0
1.2955
0.42213
0
0.401202
0.298069
0.52996
0.155977
0.138092
0.477214
0.81021
0
1.08184
0
0
0.856877
0
0
0.770608
0
0.54401
0
0
0.833176
0.284079
1.08457
1.25135
0.76654
0.904262
0.652164
0.600566
0.614322
0.800029
0
0
0.505935
2.4479
0.972962
0.365163
0.175044
0.459893
0.771541
0.696072
0.556036
0.527265
0.622611
0.567896
0
0.602438
0
0.752361
0.302395
0.441379
0
0.43109
0
0.385234
0.539891
0.254741
1.14621
0.529383
0.941594
0
0
0.616892
0.508444
0.410364
0
0.330801
0.688103
0
0.456685
0
0.840535
0.404834
0.645864
0
0.516178
0.27241
0.201056
0.174022
0.500409
0
0.6418
0.301299
0.415011
0
0.376694
1.01888
1.06879
1.19245
0.954371
1.4009
0.471616
0.437236
0.356554
0
0
0
1.18515
0.771538
0.57022
0
0.600724
0
0
0
0
0
0.416928
0.750343
0.66834
0.751852
0.292426
0.456331
0.594379
0
0.301447
0.761251
0.832797
0.507817
0.962326
0
0.656083
0
1.55476
0.909137
0.329558
0
0.419894
0.232455
0.552555
1.16707
0
0.610326
0
1.88332
0
0.794147
0.513163
0.587196
0.58505
1.93479
0
0.958383
0.783074
0.443669
0.37292
0.215947
0.880804
0
0.892624
0.477137
0.836316
0.623405
0
0.35384
0.481512
0.651551
0
0.438726
0.842751
0.447918
0.404853
0.633341
0.663164
0.903256
0.4863
1.09282
0.553529
0.286845
0
0.330077
0
1.01237
0.409641
0
0.802049
0.345302
0
0
0.580927
0.587886
0.455497
0.589502
0.590801
0.908985
0.40397
0.580799
0
0.583057
1.45123
0.792574
0
0.691737
0
0.406964
0.4731
0.910927
1.06428
0.87778
0.51341
0
0
0.265773
0.765164
0.766869
0.630002
0.568352
0.256243
0.75708
0.500899
0.55249
0
1.06878
0
0.545695
0
0
0.50347
0.720415
0
1.54139
0
0.674286
0.311857
0.422089
1.10229
0.674904
0
0.512133
0
0.335122
0.653709
0.413363
0.353686
0
0.230182
0.758182
0.625162
0.310776
0
0
0.425118
0.402689
0.108783
0.641607
0
0.659169
0.963822
1.24714
0
0.748613
0.722428
0.472741
0.555839
0.304166
0
0.547731
0
0.790713
0
0.902963
0
1.22919
0.429066
0
0
0.213596
0.135762
0
0
0.59762
0.687229
0.735221
0.680421
0.437434
0
0.937604
1.27086
0
0.393178
0.513613
0
0.460825
0.242461
0
0.715054
0.763248
0.464294
0.758643
0.384999
0
0.352848
0
0.50508
0
0.571007
0.524125
0
0.567937
0.517705
0.683346
0
1.15842
0.699101
1.1351
1.30094
0.41277
0.34926
0.584354
0.74494
0.662682
0.63229
0
0.638833
0.958026
0.708596
0
0
0.470455
0
0.486376
0
0
0.725875
0
0
0
0
0.62618
0.254507
1.0973
0
0.417373
0.742816
0
0
0.795678
0
0.916511
0.293213
0.678359
0
0.467521
0
0.905345
0.648752
0
0.717094
1.63224
0.387649
0.550262
0.586834
0.63291
0.683708
0.429423
0
0.35264
0
0.560593
0
0
1.67274
1.03956
0.782909
0.466554
0
0.412463
0.310419
0
0.883366
0
0.889386
2.9265
0.434493
0
0.932411
0
0.399096
0
0.427256
0.839703
0.491406
0.637284
0.382561
0.580608
1.19427
1.16635
1.19042
0.524446
0.217888
0.619141
1.01976
0.823127
1.10289
0
0.990975
1.40909
0.297027
0.834054
0.615137
0.345305
0.24458
0
0.359322
2.88181
0.927538
0.283369
0.272447
0.300212
0.411762
0.415518
0
0
0
1.76107
1.11658
0
0.591083
0.586255
0
0.333748
0.611763
1.0687
0
0.501577
0.437209
0
0.267964
0.948281
0.627751
0.747132
0.297905
0.454617
0
0.572384
0.658181
0.324544
0
0.548247
0
0.630584
0.404914
0.219354
0
0.636254
0.537775
0.10831
0
0.821303
0.607178
0.591244
0
0.944615
0
0.693577
0.935113
0.728634
0
0.383891
0
0.606885
0.628309
0.753828
0.279996
0.28184
0.249782
0.564178
0
0
0.575108
0.705061
0.657189
0.719966
0.667305
0
0.298554
0.436078
0.165854
0.695288
0.75201
1.64862
0
0.481981
0.0335904
0.423126
0.449692
0.670194
0.837267
0.539584
1.26109
0
0
1.40453
0
0.55915
0.457717
0.784959
0
0
0.251605
0
0.94358
0
0.546357
0
0.367143
0
0.695062
0.491874
0
0.6182
0.794599
0.481321
0.665778
0.829386
0.881373
0.89416
0
0.464221
0.734063
0.942446
0.525239
0
0.0435144
0.6286
0.948102
0.478437
0
1.03282
0
1.06871
0
0
0.473521
0.18764
0.510023
0
0.987474
0.11644
0.646279
0.321191
0.936171
1.03469
0.480406
0.96906
0.2845
0.349682
1.50198
0.917695
0
0.37215
0.204231
0.837075
0.211257
0.541834
0.361141
0.562916
0
0.539278
0
0.324186
0
0.937631
0.458332
0.825476
0.357089
0.281304
0.262044
0.584091
0.567613
0
0
0
0
0
0
0
0
0
0
0
0
0
0
0
0
0
0
0
0
0
0
0
0
0
0
0
0
0
0
0
0
0
0
0
0
0
0
0
0
0
0
0
0
0
0
0
0
0
0
0
0
0
0
0
0
0
0
0
0
0
0
0
0
0
0.344523
0.624131
0.938937
0.688358
0.636185
0
0.540537
0.79201
0.283156
0.476465
0
0.495569
0.553897
1.54371
0.523408
0.915862
0.269719
0.705579
0
0.372754
0.901967
1.29359
0.447466
0.561281
0.24305
0.319644
0
0.482611
0.760771
0
0.740762
1.1154
1.16885
0.60654
1.00405
1.15328
0.247194
0
1.29875
0.310911
0.115368
0.506015
0
0.231576
0
0
0.458314
0.381245
0.473386
0.112822
0
0.659894
0.289278
0
0.885999
2.01074
0.550987
0.742797
0.235763
0.789786
0.686102
0
0.474456
1.06601
1.37046
1.53706
0.939078
0.367769
1.14412
0
0.558717
1.41008
0.768464
0.605201
0.922816
0.74845
0.348208
0.470348
1.30738
0.639495
0.401289
0.456393
0.616572
0.797491
0.466399
0
0.805911
0
0.528634
1.19826
0.825139
0
0
0
1.28682
1.22324
0.886896
0.921754
0.84399
0
0.318034
0.357369
0.477885
0
0.897067
0
0.868205
0.700437
0.399659
0.851397
0
0.808457
0.465287
0
0.396679
1.74761
1.4965
1.09504
0
0.855616
0.324274
0.362437
0
0.356906
0
1.11677
0.53397
0.0684107
0.957835
1.17043
0
0
0.913953
2.47684
1.30564
0.369605
0
0.925207
0
0.786854
0.701276
1.30373
1.36165
0.398915
0.531512
0
0.342332
0
0.259465
0.590375
0
0.99504
1.35741
0.529976
1.10165
0.562231
0.794892
0.439993
0.236046
1.40219
0.631478
0.464878
0.63267
0.560037
0
2.13292
1.08682
1.8288
0
1.1576
1.16308
0.523098
0
0.330972
0
0.335552
0.37627
0
1.3673
0
0
0
0.770719
0.826643
0.818317
1.02977
1.19667
0.820978
1.09133
0.361573
0
0.636645
0
0.776658
1.3355
0.744719
0.509504
0.758485
0.655403
1.08828
1.36582
0.670309
0
1.02709
0.826932
0.692213
1.37907
1.19517
0
0
1.36609
0
0.539227
0
0.536998
0.653626
0.453341
0.937108
1.62154
0.909296
0
0.790533
0.419325
0
0.0892108
0
0
0.806277
1.92937
0.992339
0.542807
1.19184
0
1.04899
0.314177
0.32112
0
0.723334
0
0.624788
0
0
0.300526
0.456979
0.580597
1.14764
0.633781
1.17161
0.939958
0.512337
0
0.421658
0.579703
0.582181
0
0.655553
0.810044
0.337187
0
0.272888
0.612528
0.697122
0.754714
0.703298
1.17082
0.418545
0
0.900247
0.587261
1.10809
0.755542
2.08266
0.412074
0.29464
0.533139
0
0.658526
0.710073
0.661211
0
0.650729
0.693521
0
0.617835
0.289324
0.517306
0
0
0
0.434028
0
0
0.1826
0.716296
0
0.542367
0.927159
0
1.21464
1.18294
0.414855
0
0.942423
0
0
0.549345
0.384189
0.616316
0.282331
0.500477
0.181601
0.328786
0
1.27546
0
0.360137
0.5974
0.227559
0.315548
0.720929
0
0.468635
0
0
0.565923
0.728461
0.685062
0.130829
0.284414
0.797425
0.928528
0.341282
0.558788
0.666376
0.593125
0.369468
0.6209
0.993046
0.3855
0
0.497941
0
0
0.322136
0.585248
1.21391
0.156377
0.622127
0.775232
0.569237
0
0.602018
0
1.68253
0
0.785423
0
0.576098
0.887414
1.40025
0
0.394156
0
0.983748
0.823568
1.64679
1.29701
2.02702
0
0
0.445319
0.607097
1.03881
1.22863
0.773807
0.467417
0.488407
0
0.447855
0
0.461312
1.14147
0
0.559625
0.1179
0.520866
0
0.71511
0
0.548597
0.569033
0
0.184986
0.80783
0.623205
0.409044
0
1.10225
0.845938
1.2107
0.808267
0.454345
0.285579
0.557518
0.46656
0.325055
0.462739
0.694065
0.716544
0.462503
0.388066
0.344201
0.88451
0.411071
0
0.729349
0
0.413164
0.319698
0.745349
0.941761
0.552052
0.94115
0.711528
0.690374
0
0.464034
0
0.51739
0.705188
1.01992
0.945154
0
0.597493
0.60179
0.373829
0.595369
0.51677
0
0.718473
0.45754
0.231343
0
1.0467
0
0.409405
0
0.776968
0
0.576271
0.360404
1.41765
0.419558
0.605738
0.508232
0.247095
0.52906
0
0.554189
0.0811437
0.380125
0.562372
1.5675
0.904531
0
0.889112
0.605004
0
1.18152
0.537941
0.707523
0.26103
0.856942
0.630856
0.896985
1.03822
0.975177
0
0
0.369202
0.0839542
0
0.418425
0
0.470688
0.370952
0
0.832058
0.248433
0
0.447619
0.812658
0
0.726869
0
0.772853
0
1.01794
0.432574
0.773865
0.476876
0
0.793981
0
0.445339
1.66277
1.22259
0.972203
1.73796
0.314256
0.624631
0.35874
0.5584
0.371599
0
0
0.299745
1.04983
0.232202
0
0.425483
0.725798
0.536744
0.368393
0.393186
0.540593
0.52445
0.446987
0
0.599473
0.472539
0.696
0
0.467634
0.615046
0.162684
0
0.65463
0.813874
0
0
0.464032
1.20018
0.509918
0.424939
0.294075
0.693567
0.56467
0
0.453639
0.536055
0.915543
1.50081
0.815619
0
0
1.55969
0.775695
0
0
0.518365
0.680621
0.442572
0.404725
0.476767
0.76323
0.720546
0.495071
0.906954
1.08557
0.854721
2.75841
0.756456
0.515763
0.961798
0
0
0.421091
0
0.745516
0.236708
0.727276
0
0
0.296977
0
0.764596
1.10818
0.913114
0.127907
0.397139
0.0881939
0.408709
0
0.619485
0
0
0.575646
0
1.13884
2.29747
0.421926
0
0.391727
0.513379
0.498705
0.77795
0.990959
0.0854614
0.277662
0
1.21718
0
0.594229
0
0.636642
0
0.552344
0.848266
0.558974
0.358564
0.729525
0
0
0.592724
0
0
0.847383
0.749272
0.573609
0.649802
0.485348
0.856282
0.692475
0.441359
0.490127
0.853039
0.492969
0
0
0.336477
0.77695
0
0.713916
0.969094
0.64199
2.1135
0.816702
0.151549
0.403846
0.38045
0.39293
0.543633
0.39957
0.71583
0.574877
0.67928
0.677043
0.711291
0.556214
1.37179
0
0.706409
0
0
1.04423
0
0.974571
0.240507
0.377448
0.657364
0.464791
0.703555
0.691404
0
0.516259
1.02722
0.521918
0.981646
0.821518
0
0.764121
0.548084
0
0.588014
0
0.610052
1.07738
0.36812
1.11607
0.729917
0.111335
0.486148
0
0.437359
0.32244
0.595781
0
0
0.549726
0
0.554952
0.794875
0.888651
0
0.701966
0.542398
0.96612
0.797882
0.443569
0.721114
0
0.599227
0
0.406572
2.31432
0.944291
0.30835
0.526976
0
1.27732
0.608864
0.453368
0.921436
0
0
0
0.781013
0
0.535307
0
0.489475
0
0.364005
0.6952
1.13746
0.79349
0
0.830678
1.21574
0
0
0.483807
0.699307
0.709359
0.435037
0
0.535059
0
0.419025
1.11735
1.21571
0
0.406443
0.501444
0
0.546708
0.596268
0
0
1.34238
0.368929
0.966369
0
1.77583
0.681324
0.347367
0.593297
0.644579
0
1.16302
0
0.493584
0
0.713373
0
0.676587
1.33403
0.684062
0.599242
0.751395
0
1.51387
0.621043
0.482397
0.190654
0.16286
0.521288
0
0
0.647391
1.55329
1.20312
0.658124
0
0.864509
0.243687
0.462583
0
0
0.434375
1.01069
0.706426
0
0.693926
0
0.431292
0.44081
0.550702
0
0.313454
0.807298
1.08756
0
0.187133
0.174223
0.575975
0.754858
0.29789
1.17824
0.369892
0
1.15089
0.790415
0
0
1.18872
1.57011
0.217696
0.367076
0.480585
0
0.757879
0.541208
0.523058
0
0.547722
0
0
1.08943
0.783465
0.352509
0.634514
0
0.817014
0.732863
0.365069
0.417497
0.494381
0
0.789553
0
2.11344
0.659513
1.09189
0
0.516095
0
0.404485
1.25688
0.741759
0
0
0.946182
0
0
0.582069
0.682234
0
0.532852
0.39551
0.433782
0
0.665507
0.644395
0.587196
0.463568
0
0
0.361887
0
0.800644
0
0
0.706051
0.579736
0.803492
0
0.558884
0
0.821163
1.73004
0
0
0.17278
1.39667
0
0
0.868752
0
3.14752
1.23442
0.386023
0
0.602864
0
1.16028
0.556506
0.539771
0
0
0
0.815666
0.656807
1.02383
0
1.1925
0.943813
1.07061
0.494858
0.80062
0.605315
0.334316
0
0
0.289599
0.209714
0.57706
1.32445
0.462265
1.4076
0.460717
0.414379
0.475888
1.22821
0.532779
0.311742
0.65088
0.306342
0
0.591009
0.705902
0
0.626935
0
1.08405
0
0.873763
0.854248
0
0.95161
0.752128
0
0
0.215173
0.414469
0.54052
0.480755
0.792621
1.00927
0
0
0
0
0
0
0
0
0
0
0
0
0
0
0
0
0
0
0
0
0
0
0
0
0
0
0
0
0
0
0
0
0
0
0
0
0
0
0
0
0
0
0
0
0
0
0
0
0
0
0
0
0
0
0
0
0
0
0
0
0
0
0
0
1.2079
0
0
0
0.46337
0
0
0
0
1.26717
0
0
0.503571
0
0
1.12042
1.86509
0
0
2.10394
0
0
0.866151
0
0
0
0
0
0
0
0
1.39912
0
0
0
0
0
0
0
0
0
0.114135
0
1.98578
0
0
0
0
0
0
0
0
0
0
0
0
0
0
0
0
0
0
0
0
0.687983
1.20873
1.03306
0
0.492445
0.168747
0.524924
0
0
0.611974
0.704838
0.570981
0.940008
0
1.14022
1.15008
0.512987
0.299628
1.17794
0
0.861889
0
0.638751
0
0.974604
0.670227
1.21058
1.12111
0.587594
0.396038
1.10398
0
0.566848
1.03035
1.26813
0.818525
1.29798
0.145986
0
0.637789
1.20584
0.677748
2.14238
1.6555
0
0.973165
0.548512
0.729373
1.08863
0.618945
0.996328
0.481199
0.660975
0.885098
1.16419
0.819179
0.7165
1.01029
0.345585
0
0.765168
2.37825
0.481552
1.46576
0
0.541022
0.993096
0.7914
0
0.564711
0.675906
0
0.732247
1.20949
0.737356
0
1.63063
2.36814
0.836951
0
0
0.246012
0.777756
0.755245
0.318149
0.368737
1.86574
0.741103
0
0.846135
0
0.753784
0.368021
0
0.217815
0
1.18081
1.32498
0.822661
0.724243
0.554055
1.68271
1.47999
0.428376
0.860876
0.542361
1.1766
0.566982
0.236469
0.608899
0.908138
0.499058
0.678351
0.759641
0.600516
0.7428
0.44087
0
0.79649
0.687301
0.420483
0
0.701039
0.516834
0.893596
0.520531
1.04739
0
0.690059
0.915656
0.948222
0
0
1.33608
0.900286
0.719363
1.05263
0
0.48599
0.618889
1.13662
0
0.682835
0.298591
0.200709
0.539314
1.37815
1.3348
0.701951
0.422008
0.698284
0
0.580091
0.819156
0.377933
0.82239
0
0
0
0.99776
0.397812
0
0.257644
0.517094
2.62091
2.83338
0.742384
0
0.722253
0.641449
0.36536
0.249119
0.541657
1.00339
0.740794
0.907127
1.36701
1.07417
0.48804
0.870828
0.632722
0.51837
0
0.655087
0
0
0.747134
0.657676
1.11492
1.40927
0.814849
0.442033
0.480004
0.530807
0.821533
0.880353
0
0
0.800068
0.859942
0
0
0.757405
0
0.696493
0
0.86591
1.2164
0.583562
1.09969
0
0.385847
0.256918
0.876502
0.581188
0.584089
0.823463
0
1.63992
0.210721
0
0
0.759049
1.04542
0.604352
0.784337
0
0.686992
1.07312
0.992263
0.89753
0.748142
0.705273
0.81182
0.63104
0
0
0.745926
0.385953
1.47419
0.722724
0.358523
0
0.719682
0.353504
0.802733
0.534377
0.548706
0
0.60352
0
0.516857
0
0.72814
0.845983
0
0.229204
0
0.84103
0.754252
0.552692
0
0.631045
0.922417
0.434309
0.605495
0.773125
0.552987
1.87422
1.03195
0.542826
0
0.509009
0
0.376047
0
0.519377
0
0.543119
0
0
0.628391
0.627459
0.389243
0.685876
0.577747
0.409769
0.678985
0
1.01201
0.859229
0.683383
0.899973
0.575657
0.601603
0.681696
0.296618
0.324672
0
0
0.581603
1.10621
0.893232
0.794004
0.762685
0.560825
0.873816
0.515869
0.662422
1.06622
0
0.29545
0.534962
0.859871
0.810425
0
0.598713
0.85825
1.08073
0.654498
0.840912
0
1.05543
1.89292
0.512769
0.357246
0
0.614951
0.801369
0
0.276536
0.614508
0
1.05256
1.1899
1.5428
1.27779
0.457805
0
0
0.438393
0
0
0
0.28375
0.496427
1.41699
0.76231
0.296823
0.637458
0.175638
0.824076
0.434124
0.513459
0.550459
1.15237
0.611618
0
0.432802
0
0.5324
0.769379
0.556674
0.782974
0.133087
0.36815
0
1.14197
0.540114
0.666069
0.810414
0.713699
0.377645
0.351949
0.439067
0.815032
0
0.403491
0
0.605784
0
0.515336
0
0.37219
0.441009
0
0.957312
1.91684
0.877186
0.922759
0
0.311705
0
0.537133
0.939618
0.920091
1.85414
0.865788
0.838561
0.483752
0.397794
0.800371
0
0.62979
0.897802
0
0
0.526217
0
0.712551
2.29688
0.513849
0.811268
0.568873
0.869987
0.534959
0.561934
0.994437
0.45333
0.292273
0
0
0.997672
0.700203
0
0.358206
1.59409
0.908917
0
0
0
0.724796
0.287802
0.637265
0
0.440539
0
0.880872
1.03036
0.821313
0.423771
1.38898
0.460505
1.19038
0.928329
0.800861
0.701659
0.429882
0.165239
1.17612
0.520981
0.440252
0
0.718561
0
0.371035
0
0.59439
0.513827
1.68177
0.810186
0.482198
1.26366
0.385885
0
0.641887
1.5342
0.704276
1.06444
0.511434
0.731065
0.435521
0.355522
1.18276
0.832735
0
0.836057
0.392417
1.01927
0
0.694654
0
1.04314
0.109928
0.418305
0.723885
0.936018
1.36017
1.47744
0.537301
0.792839
0.658087
0.376017
0
0.286015
0.53043
0.897787
0
0.685093
0.106529
0.968949
2.47891
0.975032
0.265381
0.882723
0.956838
0.639261
1.52032
1.46988
0
0.785714
1.40395
0.159421
0
0.594234
0.237037
0.459957
0.794409
0.130608
0.281387
0
0.377406
0.894179
0.295967
0.486265
0
0.841428
0.356156
0.970968
0.350333
0.48429
0.431291
0.37104
0.678184
0.336625
0.879615
1.00564
0.477852
0
0.442887
0
0
0.891259
0
0.694241
0
0.205289
0.346839
0.433582
0.602002
0
0.812636
0
0
0.477719
0.496768
0.247383
0.46967
0.623138
0.567294
0.510231
0
0.642544
0.75315
0.359774
1.95753
1.28349
0.620702
0.898883
0
0.280277
0.392503
0.509594
0
0
0.499822
0.326346
0
0.222832
2.14524
1.54311
0.191257
0.702114
0
0.579929
0.776428
1.45674
0
0
0
0
0.892698
0.40079
0.601032
0.630702
0.751206
0.54045
0.362923
0.471798
1.06202
0.445647
0.46784
0.0884392
0.401192
0.652695
0.408043
0.417737
0.301886
0.848142
0
1.34528
0
0
0
0
2.07318
0
0.55719
1.59259
0.370197
0.278355
1.44349
0.558303
0
0.574654
1.44941
0.556016
0.970315
0.689022
0.268354
0
0.420108
0
0.527365
1.35106
0.366848
0
0.365484
0.848854
1.21486
0
0.816398
0
0.348228
0.656812
0.299352
0
0.742034
0.672855
0.535026
0.289209
0.522632
0.941356
0
0.606799
0.176165
0.882071
0
0
0
0.728474
0.514383
0
0.853688
1.51251
0.400403
0.556434
0.534476
0.355529
0.588274
0
0.887133
0
0.486069
0.203363
0.493292
0.412736
0.922179
0.584337
0.686724
0.41325
0.852448
0.450537
0.705267
0.505619
0
0
1.39679
0.373457
0
0.756977
0.720239
0
1.16183
0
0.663679
1.08026
1.44489
0.925282
1.22259
0.682047
0.689986
0
1.3908
0
0.916973
0.636995
0.785861
0
0
0.534232
0
0.220895
0
0.342444
0.500168
1.12544
0
2.15701
1.13653
0.592552
0
0.782526
1.70002
0
0.452307
1.18293
0.321756
0
0.160859
0
0.756254
1.83066
0.776775
1.08113
0.988694
0.88637
0.618078
0.87495
0.812999
1.04633
1.20352
0
1.2471
0.290914
0.553533
0.533256
0.718143
0.533003
0.576959
0.340665
0.242183
0
0.4818
0.466407
0.56597
0
0.691616
0.431052
0.376579
1.26156
1.04926
0
0
0
0.358324
0.566837
0.524799
0.98089
0.866344
1.85752
1.4289
0.619788
1.58643
0.96295
1.13714
0.783655
0.57342
0.372134
1.93205
0
0.370841
0
0.407105
0.71259
0
0.778113
0.783541
0.846317
0.192659
0.656088
0.533608
0
0
0
1.00543
0.769678
0.5564
0.467672
0
0
0.351757
0
0
1.81517
0.698708
1.49151
0
0.547045
0
0
0.466075
0
0.351983
0
0.378311
0.939432
0
0.602379
0.875834
0.862973
0
0.195951
2.04618
1.01197
0.534097
1.21459
1.44433
0.523474
0.793067
0.605377
0.829595
0.654506
0.335108
0.174499
0
0.713134
0
1.04447
0
0.342968
0
0
0.551036
1.04747
1.09132
0.598127
1.657
1.28298
0
1.04628
0
0.973859
0
0.553811
0
0.201579
0.435931
0
0.510535
0
0.317442
0.465241
0.717283
0.798792
0.324987
0.297
0.297853
0.670639
2.01015
2.21956
0.519911
0.993056
0
0.723518
0.235485
0.551129
0.962059
0
0.628311
0.630454
0.510145
0.485908
1.03951
0.885743
0.536921
0.780068
0.620744
0.353452
1.24099
0.314722
0
0.357902
1.24328
1.5376
0.699051
0
0
0
0
0
0
0
0
0
0
0
0
0
0
0
0
0
0
0
0
0
0
0
0
0
0
0
0
0
0
0
0
0
0
0
0
0
0
0
0
0
0
0
0
0
0
0
0
0
0
0
0
0
0
0
0
0
0
0
0
0
0
0
0
0.337563
0.288262
0
0.526615
0.764177
0
0.243626
0.678911
0.130827
0.588565
0
0.379021
0.441124
0
0.408194
1.32865
0.47043
0.503512
0
0.488983
0.40223
1.95524
0.742815
0.411112
0.134288
0.754944
1.61911
0.565591
0.6393
0.53251
0.590227
1.24792
0.333258
0.768824
0
0.217382
0.949529
0
0.267344
1.05302
0.465959
0.638866
0
1.05326
0.352647
0
1.03963
1.30673
0.529927
0.549984
0
0.296065
0.982652
1.02511
0.26885
0.730623
0.642485
0.36672
0.184543
1.15953
0.381567
0
0
1.15878
0
1.37094
0
0.387479
0.717424
0.348757
0.659793
0.487987
0.428556
0.663423
0
1.39831
0.590965
1.14004
0.648843
0.822685
0
1.07326
0.583698
0
0.61802
0
0.636897
0.976196
0.511377
0.139199
0.646016
0.663917
0
0.604919
0
1.5357
0
0.892197
0.881128
0.477465
0.838608
0.966867
0
0.638762
1.19709
0.702364
0
0.662862
0
0.67204
0
0.957258
0.309102
0.664196
1.30058
1.11773
1.89878
0.829918
1.09408
0.739262
0.78505
1.17328
0.704737
0.309224
2.5097
1.65024
0
0.803428
0.413664
0.490704
0
0
0.955779
0.612268
0.929295
1.48099
1.4706
1.28155
0.547936
0.799103
0.916125
0
0
0.669674
0
0
0
0
0.679699
0.766193
0.807312
1.15299
0
0.673293
0.216955
0.273271
0.169259
0.315653
0.900494
0.43373
0.219293
0
0.858664
0.614671
0.446212
1.31633
0.555836
0.612088
0.314748
1.09178
1.45556
0.947738
0.356857
0
0
0.408741
0
0.578791
0
0.48722
0.666817
0
0
0.691995
0.198618
0.378683
0.457665
0.47524
0.795978
0.0251588
0.921752
0.314588
0.806296
1.01329
0.656942
0.746778
0.759329
0.296742
0
1.45389
1.15087
0
0.688831
0
0.231956
0.384528
0.50058
0.3561
0.434074
0
0.521389
1.69361
0.880962
0.585953
0.556369
0.604088
1.37953
1.04776
0.637877
1.2456
0
0.399474
0.61562
0.496366
0.307855
0.547538
0.516538
0
0.647379
0.462545
0.584803
0
0.938262
0
0.582583
0
0
0.909084
1.05683
0.698615
0.267948
0.813144
0.81168
0.643299
0
0.583355
0.921623
0.49463
0.969799
0.468377
0.257478
0.0959581
0.532111
1.50204
0.677119
0
0.480742
0
0.238364
0.506354
0.840602
0.372886
1.06236
0.850005
0.792162
0.54415
0.427404
0
0.937371
0
0
0.799495
0.320727
0.400813
0.51249
0
0.319629
1.5907
0.769445
1.16586
0.568379
0.603973
0.310599
0.547828
0.818556
0.869623
0.886808
0
0
0
0
0.802112
0.472961
0.394146
0.352887
0.751363
0
0.720219
0.496243
0
0.509261
0.622156
0.58484
0.691403
0.740676
0.552138
2.16812
0.427203
0.661079
0.713312
0
0.716773
0.480181
0.424104
0
0.510249
0.570707
0.935307
1.02252
0.410959
0
0
0.659095
0.290438
0.969816
0.491672
0.887082
0.435563
0.838489
0.6231
0.781322
0
0.578902
0.631051
0.612868
0.30478
0.301391
0.432727
0.648539
0
0.531045
0
0
0
0.554419
0.445129
0.213941
0
0.959205
0.255387
0.412589
0.697605
0.420141
0.554495
0.7544
0.011246
0.128854
0.270135
0.422431
0.505581
0.18721
0.635505
0.339202
0.620274
0
0.606697
1.25111
2.12627
0.969859
3.61201
0
0.31275
0.950446
1.28993
0.95311
1.17168
0.275253
0.517421
0.932498
0.723699
1.00703
2.06079
0.574027
0.93539
0.73032
0.49892
0.977801
1.2287
0.565727
0
0.685942
1.36098
0.36222
0.594983
0.548012
0
0.524883
0.236239
0.685088
0.743281
0.538452
0
0.463824
0.657409
0.543163
0
0
0.500739
0.732615
0.901449
0.786481
0.383089
1.06229
0.696408
0.433689
0.290859
0
0.70618
0.857877
1.36394
0.385609
1.15482
0.530892
0.769701
0.371232
0
0
0
0
0.632149
0.570071
1.58629
0.366096
0.455674
0.735019
0
0.806941
0.329014
1.3929
0.282895
0.33828
0
0.608825
0.834671
0.436969
1.64127
0.357763
0
0.792485
0
1.11093
0.137735
0.628413
0.676145
0.420412
0.422894
0.513099
0.420227
0.605859
0.543416
0.436626
0.480438
0
0
0.787693
0.649568
0.302016
0.354714
0.742084
0.847701
0.471877
0.212059
0.879652
0.940222
0.457354
1.38449
0.284592
0.518623
0
0
0
0.430133
0.219276
0.557229
0.448965
0.0866596
0.636692
0
0.310508
0
0.577779
0
0.656651
0.835038
0.680957
0.348581
0.659564
0.688512
0.722733
0.857322
0.549077
0
1.25076
0.547842
0
0.811737
1.37582
0.790845
0.562032
0.366041
1.12482
1.00907
1.14394
0.51792
0.46503
0.145386
0.700635
0.375906
0
0.893607
0.902894
0
0.912036
0.885075
0.799828
0.494077
0.564055
1.53941
0.96021
0.644247
0.171623
0.368855
0
0.898933
0.558287
0.394216
0.222574
0
1.64833
0
0.348155
0.744706
0.431359
0.528485
1.02365
0.487065
0
0.799934
0.536212
1.18663
0.828829
0.793697
0.665799
0.683922
0
1.094
0.991575
0.701911
0
0
0.491698
0.834861
0.661183
0.566366
0
1.07494
0.91987
1.14314
0
0.285922
0.604483
0
0.516695
0.908778
0
0.494393
0.420046
0.528374
0.237609
1.17207
0.758974
0
0.692243
0.457873
0.537934
0
0.422417
0.742193
0.391925
0.740305
0.730485
0.296948
0.952051
0.270006
1.43864
0.751246
0.779327
0.332177
0.489469
0.528694
0.933078
0.955244
0.437012
0
0.48919
0.722554
0.323156
0
0
0.811538
0
0.809824
0.372411
0.493268
0
0.192807
0.38544
0.297924
0.781294
0.48319
0.164152
0.884336
0.630114
0.402363
0.849931
0.557018
1.04801
0
0.739324
1.18173
0.952206
0
0.370188
0.681398
0.228812
0.256469
0.238384
0.525613
0.647289
0
0.666859
0.446965
0
0
0.554321
0.486335
1.13803
1.64691
1.02426
0.386194
0.369105
0.880435
0.54515
0.23526
0.382209
0.0670784
0.724944
0.273444
0.504289
0.473548
1.22667
2.11201
1.23701
0
0
0.797513
0.322024
0.433301
0
0.307504
0
0.873279
0.412857
0
0.894941
2.44314
0.794666
0
0.815169
0.502727
0.693843
0
1.52924
0.448698
0.117231
0
0.301065
0.785813
0.462871
0
0.516209
0.993344
1.7115
0.509609
0
0.817213
0.520034
1.13958
0.446
0.234233
0.542742
0
0.48943
0
0
2.3004
1.36424
0.39373
0.553797
0
0.89921
0
0
0.771901
0
0
0.104253
0.327495
0.162291
0
0.178745
0.478046
0.692646
0.172947
0.260313
0
1.57488
0.900612
0.384141
0.519652
0.225341
0.696496
0
0.514794
0.547163
0
0
0.262352
1.5178
0.48999
0.454021
1.4556
0.477797
1.04595
0.607037
0.558213
0
0.528337
0.397039
1.18877
1.08933
0.771412
0.589211
0.348306
0.227663
1.56062
0
0.817205
1.1222
0.690367
0.900427
0.341319
0
0.729745
0
1.24066
0.327309
0.642448
1.04899
0.725137
0
1.02552
1.16644
1.42025
0
0.673281
1.25768
1.35314
0.738772
0.998458
1.29797
0.576895
1.2511
0.73658
0.924663
0.618042
0.471331
0.849863
0
0.686109
0.709179
0.836511
0.162498
1.06974
0.437542
0.878303
1.90622
0.483892
0
0.919135
0.601144
0.397823
0.337548
0.971189
0.652165
0.520372
0.377458
0.671997
0.778862
0.696193
0
0.556792
1.38815
0.450132
0.672404
0
0.345756
0
0
0.480139
0
0.406262
1.60264
0.894984
0.427706
0.691437
0.198599
0.489991
0.530731
0.578879
0.532304
0.575326
0.471083
0.404107
0.770798
0.842667
0.785114
1.36398
1.31796
1.07095
0.241129
0.705638
0.371069
0.683288
0
0.544823
0
0.487357
0
0.506119
0.479428
1.024
1.37859
0.400453
0.617987
0.532751
0
0.274518
1.07576
0.472063
0.435878
0.974337
0.202269
0.666469
0.33391
0.732132
0.866468
0.978434
0.56331
0.622659
0.835738
0.547531
1.33863
0.263885
0.617918
0.701622
0
0.820069
0.753908
0.564269
0.841798
0.772669
0.501137
0
0.882205
0.998878
0.738314
0
0.852222
0.953588
1.25628
0.391433
1.19692
0.589519
0.699508
1.00704
0.478213
0.590443
0.327548
0.750976
0.750151
0
0.614198
0
0.366672
0.529863
0.942575
0
0
0.436958
0
0
0.629281
0.521176
0.355623
0
0.421702
0.874387
0.681888
0.477553
0.334138
0.471828
0.488859
0.214146
1.12625
0.280514
0.829798
0.796966
0.701488
0.540008
0
0
0.339469
0.760147
0.617464
0.596334
0
0.742502
0
1.05513
0.771455
0.236109
0.691731
0.692343
0
0.616444
0.772682
0.265415
0.60426
0.587706
0.790018
0.862818
0.410689
0.0970457
0.440203
0.489692
0.665227
0.408071
0.797756
0
0
0
0
0
0
0
0
0
0
0
0
0
0
0
0
0
0
0
0
0
0
0
0
0
0
0
0
0
0
0
0
0
0
0
0
0
0
0
0
0
0
0
0
0
0
0
0
0
0
0
0
0
0
0
0
0
0
0
0
0
0
0
0
0
0.429949
0.66236
0
0.360668
0.703931
4.19912
0.538883
0.837145
0.160226
0.604985
0.996914
0.567602
0.603018
0
0.532739
1.26731
0.293863
0.487437
1.1233
0.456633
0.526899
0
0.570069
0.851411
0.237734
0.682095
1.50614
0.475954
0.446435
0
0.476018
1.79045
0.809579
0.628558
1.06583
0.794515
0.31075
0
0.987595
0.783727
0.220002
1.02095
0
0.278122
1.03534
0
0.56514
1.07777
1.19614
0.526017
0
3.28245
0.339052
0
0.849635
1.16623
0.30635
1.71864
0
0.425656
2.40503
0
0.159685
2.02269
0
0.53315
0.988734
1.1656
0.638356
0.4978
0.986524
1.39034
0
1.07551
1.61955
0.607452
1.15877
1.27324
2.55534
1.3895
0.833212
0.836864
0.435854
0.718018
1.60859
0.390538
0.513853
0.410457
1.14223
0.373682
0
0.85809
0.441353
0.376653
0
0.370848
0.648067
0.448584
0
0.943707
0.769406
0.777634
1.21163
1.07235
0.731352
0.955862
1.06538
0.848565
0.663955
0
0.586399
0
0.217416
0.722404
0.748837
1.9405
0.402642
0
0.328408
0.411829
0
0.465373
0