<?xml version="1.0"?>
<VTKFile type="RectilinearGrid">
<RectilinearGrid WholeExtent="0 32 0 32 0 32" Origin="0 0 0" Spacing="1 1 1">
<Piece Extent="0 32 0 32 0 32">
<PointData>
</PointData>
<Coordinates>
<DataArray type="Float32" format="ascii">
0 0.524874 1.04975 1.57462 2.0995 2.62437 3.14924 3.67412 4.19899 4.72386 5.24874 5.77361 6.29849 6.82336 7.34823 7.87311 8.39798 8.92285 9.44773 9.9726 10.4975 11.0224 11.5472 12.0721 12.597 13.1218 13.6467 14.1716 14.6965 15.2213 15.7462 16.2711 16.796 
</DataArray>
<DataArray type="Float32" format="ascii">
-5.03879 -3.62163 -2.20447 -0.787311 0.629849 2.04701 3.46417 4.88133 6.29849 7.71565 9.1328 10.55 11.9671 13.3843 14.8014 16.2186 17.6358 19.0529 20.4701 21.8872 23.3044 24.7216 26.1387 27.5559 28.973 30.3902 31.8074 33.2245 34.6417 36.0588 37.476 38.8931 40.3103 
</DataArray>
<DataArray type="Float32" format="ascii">
0 0.524874 1.04975 1.57462 2.0995 2.62437 3.14924 3.67412 4.19899 4.72386 5.24874 5.77361 6.29849 6.82336 7.34823 7.87311 8.39798 8.92285 9.44773 9.9726 10.4975 11.0224 11.5472 12.0721 12.597 13.1218 13.6467 14.1716 14.6965 15.2213 15.7462 16.2711 16.796 
</DataArray>
</Coordinates>
<CellData>
<DataArray type="Float32" Name="Scalar" format="ascii">
0
0
0
0
0
0
0
0
0
0
0
0
0
0
0
0
0
0
0
0
0
0
0
0
0
0
0
0
0
0
0
0
0
0
0
0
0
0
0
0
0
0
0
0
0
0
0
0
0
0
0
0
0
0
0
0
0
0
0
0
0
0
0
0
0.309277
0.511206
0
0.243821
0.255901
0.640824
0.344672
1.32428
0.183773
0.211797
0
0.424696
0.321552
0
0.392709
0.619246
0.0358429
0.276832
0
0.42134
0.234474
0
0.438727
1.4477
0.219193
0.296676
0
0.243382
0.288324
0
0.300882
1.9254
0.0943855
1.07516
0
0.145774
1.11246
0
0.324263
0
0.616756
0.24764
0
1.67552
0.352683
0.692213
1.36466
0.395305
0.0907387
0.8483
0
0.262199
0.676076
0
0.0811594
0.821975
0.749357
0.558453
0
1.23306
0.575036
0
1.4068
0.601541
0
0.773383
0
0.586012
0.99184
0.672847
0
0.455481
0.75618
0.606135
0.439599
0.573167
0
0.908382
1.14224
0
0.937297
0.593287
0
0
0.391626
1.39836
0
0.363792
0.243648
0.187999
1.45739
1.0032
0
0
0.859799
0.573156
0.284176
0.361503
0.519612
0
0.356698
0.37683
0.588119
0.527056
0.86827
0
0.657715
1.83456
0.724259
0
0.615912
0
0.61654
0.06567
0.589724
0
0
2.35682
1.46437
0.443145
2.48601
3.78913
0.955846
0.657482
0.7427
0
0.602803
0
0.741471
0
0.92469
0
1.38259
0
0.519506
0
0
0.173387
0.2317
0.865677
0
0.590361
0
0.973643
0.812219
0.231193
0.618124
0.701937
0
1.66574
1.54021
0.400313
0.195402
0.236861
0
0.618312
0.21955
0.214762
0.859401
0
0.175052
0
1.00865
0.776864
0.389918
0
0.652207
0.669267
0.649661
0.43218
0
1.01405
0.456583
1.71774
0.531877
0
0.284106
0
0.412135
0.936752
1.03334
0.631007
0
0.436372
0
0.553657
0.37085
0
0.644701
0
0.660802
0
0.411957
0.276711
0
0
0
0.528372
0
0.745607
0
0.517219
0.94549
0.87731
0.538314
0.886304
0
0.565435
0
0.713155
0.146177
0
0.884513
0.763944
0.782593
0.837881
0.424173
0.591284
0
0.968512
0.667251
0
0.413921
0.481314
0.257646
0.715187
0.414067
0
0.628611
0
0
0.801097
0.615374
0
0
0.313124
0.299086
0.418305
0.0512244
0.105815
0.375129
0
0.746719
0.686771
1.27127
0
0.645303
0.476914
0
0
0.776066
0.481566
0.989051
0.632808
0
0.381867
0.293108
0
0.488381
0.53027
1.02672
1.00483
0.36871
0.45841
0
0.315581
0.351265
0
0.563293
0.735023
0
0.603059
0.48171
0
0
0.783151
0.431439
0
1.56761
0.476615
0
0.49882
1.16726
0.222321
0
0
0.940924
0.779541
0.260507
0.665395
0
0.872908
0.880518
0.496734
0
0.589968
0.337888
0.537672
0.530307
0.78559
0
2.30778
0.621675
0.653231
0.495413
0
0
0.874924
1.60227
0
0
0.112422
0
0
0
0.916158
0.804092
0
0
0.890404
0
0.858913
0.777307
0
0.293846
0.47902
0
0.219526
0
1.0124
0
0.690029
0.273327
0
0.523613
0
0
0
1.48985
0.410132
0
0
0.595946
0.693538
0.424807
0.879886
0.859705
0
0.339001
0
0.635659
0.416046
0
0.123568
0
0
1.21583
0
0.692295
0.312193
0.642711
0
0.679583
0.528772
0.545117
0.349892
0
0.558427
0
0.646342
1.19358
0.823218
0.338767
0
0.473733
0.41475
0.760412
0
0
0.645444
0
0.796013
0
0.553717
0
0
0.724455
1.09306
0.678196
0
0.674976
0
0.370356
0.33576
0
0.596434
0.959955
0.945638
0.652622
0.886112
0.552374
0
0.445317
0
0.955522
0
0.380718
0
0.725089
0.871384
0
0
0
0
0.70378
1.39618
0.675365
0.613761
0.426644
0.556757
1.1403
0.360859
0
0.496564
0.693062
0.451276
0.691788
0.620695
0.633155
0
0.706538
1.33158
0
0.978769
0.298163
0
0.574364
0.27786
0.936583
0.84055
0
0.637326
0.279678
0.783931
0.576024
0.768139
0.314451
0
0.581611
0.86392
0.537801
0
0.61936
1.35456
0.568324
0.243171
0
0.880622
0.181088
0.967881
0.977364
0.46681
0.375112
0.833288
0.802408
0
0
0.380592
0.303107
0.99275
0.473878
0.0954196
0.464128
0.758293
0.708995
0.724227
0.292554
0
0.333567
0.44281
1.13952
1.15975
0.645711
0.277356
0
1.3659
0.492292
1.07785
0.500445
0.558347
0.568749
0.272155
0.632186
0.539488
0.530847
0
1.19653
0.304758
0.36466
0.456163
0
0.207723
1.03029
0.865616
0
1.43028
0.423633
1.37679
0
1.1634
0.712606
0.609772
0
0
0.716243
0.748268
0.565549
0
0
0.387103
0.529997
0.433912
0.574474
1.61739
0.432515
0.218996
0.833355
0
0
0.8787
0.48721
0.760719
0
0.324408
0
0.717282
0.911582
0
1.43585
0.75521
1.01112
0.873362
0.906381
0.785347
1.52267
1.76532
0.824543
0
1.14549
0.251652
0.123183
0.719379
0.721942
0.489556
0.568027
0.481218
0.626277
0
1.00665
0
0.610589
0
0.338544
0.571585
0
0.617073
0
0.562313
0.689972
0
0.775226
0.635615
0.652513
0.504544
0.660118
1.53289
0
1.41338
1.16777
0.701813
0
0
0.335281
0
0
0.521114
0.617971
0.28182
0.408336
0.660172
0.407773
0
0.771701
0.454264
0
0.245526
0.617087
0.757998
0.55632
0.711989
0
0.780713
0
0.458498
0
1.22301
0
0.286187
0
0.996547
1.80712
1.05202
0
0.966429
0.650379
0.542231
0.485362
0
0.530818
0.553962
0
0.756689
0.86977
1.12937
0.602952
0.488923
0
0.739965
1.05473
0.617682
1.48602
0.638468
0.355317
0.085116
0.279688
0.521381
0.212923
0.682834
0.536872
0.447803
0
0
0
1.14956
0.440466
0.643697
0
1.29643
0.519582
1.14552
0
0.366496
0.943543
0.582771
0.950943
0.642102
0
0
0.805255
0.438522
0.56609
0
0.596392
0
1.0461
0.391447
0
0.384152
0.651758
0.343978
0
0.755343
0.517045
0.938209
0.981903
1.44934
0.570028
0.56927
0.702566
0.473851
0.307528
0.562684
0.417028
0.483023
0.464916
0.264714
1.4029
0
0
0.909028
0.578415
0.65325
0.894602
0.784237
0.982306
0.451154
0.971381
0
1.10845
0.873547
0.740543
1.1322
0.9461
0.746955
1.04017
0.642342
0.579323
0.483857
0.406275
0.732825
0.777674
0.517447
0
0.348831
0
0.991917
0.412073
1.05614
0.537501
0.65297
0.645407
0.203647
1.03559
0.790663
0
1.20864
0.214305
0.479785
0.285241
0
0.728926
0
0.804509
0.757234
0.226287
0
0.941488
0.542534
0.900701
0.957134
0.509957
1.1685
0
2.07385
0.220382
0.396087
0
0.6934
1.08728
0.520541
0
0.505932
0.852783
0.912656
0
0.499894
0
1.19821
0.091375
1.15572
0.812021
0.934946
0.671344
0
0.772944
0.159868
0
0
0.250724
0
0.427821
0
0.38852
0
1.21179
0.770094
1.54645
0.97231
0.57628
0.270048
0.27947
0.816149
0.385362
0
0.551504
0
0.391946
0.239468
0
0.458485
0.346578
1.71367
0.929046
0.728156
0.958436
0.542784
0.183409
0.17859
0
0.412304
0
0.962796
0.446291
0.668057
0
0.645217
1.24021
0.514843
0
1.04945
1.29917
0.409243
0.00941638
0.505379
0.0241075
0.743697
0.568068
0.318563
0.42691
0.371048
0
0
0
0
0.61976
0
0.681389
0.457901
0.522786
0.433778
0
0.908237
0.905418
0.711618
0.166418
0.691686
0
0.628215
0
0.514297
0.220442
0.477779
0
0.590535
0
0.524756
0
0.658034
0
0.888186
1.33483
0.374205
0.656011
1.12095
1.87188
0.620683
0
0
0.626329
1.28285
1.00835
0.858112
0.576758
0
0.217998
0.743249
1.11828
0
0.434221
0.689906
0
0.423962
0
0.967409
0.54155
0.90339
0.173181
0
0.797611
0.813334
0
0.883845
0
1.03299
0.517906
0.981646
0
0.656444
0
0.594849
0.634963
0.460996
0.426906
0
0
0.92227
0
0.78908
0
0.568533
0.479097
0.584773
0.838772
0.658175
0.722308
0.179383
0.50578
0.28851
0.513197
0.610633
0.735432
0.496515
0.549793
0.500492
0.365331
0.808191
0
0.41159
0.771731
0
0.92127
0
1.10473
0
0.454427
0.282415
0.537303
0.283512
0.494756
1.04733
0
0.655098
0.508106
0.332507
0.453061
1.20558
0.441193
0.639559
0.498069
0.59217
0
1.93337
1.35349
1.91639
1.49066
0.956149
1.05335
1.11334
1.21261
0
0.570634
0.678242
1.15583
0.877238
0.57135
0.670396
0
0.175904
0.64988
0.624043
0
0
0
0
0
0
0
0
0
0
0
0
0
0
0
0
0
0
0
0
0
0
0
0
0
0
0
0
0
0
0
0
0
0
0
0
0
0
0
0
0
0
0
0
0
0
0
0
0
0
0
0
0
0
0
0
0
0
0
0
0
0
0
0
0.324272
0.784342
0
0.428639
0.46549
0.612169
0.308994
1.90869
0.602583
0.431688
1.81939
0.92683
0.527813
0
0.628719
0.708976
0.273336
0.320733
0
0.35482
0.535947
1.29023
0.605305
1.54191
0.507368
0.568334
0.665999
0.523593
0.474116
0
0.438509
0.711282
0.633888
0.266544
0
0.997518
0.615115
0
0.935144
1.19325
0.421463
0.934012
0
0.195785
1.02113
0
0.237326
0.339228
0.311598
0.324171
0
0.784268
0.721474
0.406468
1.55287
0.388293
0.126837
0.636201
0
0.363942
1.51972
0.153136
0.358458
1.9546
0.550901
1.1119
0.630933
0.765179
1.06691
0.836958
0
0
0
0.457936
0.57989
0.439561
0.648188
0.686528
1.41616
0.638077
0.76421
0.815508
0.557488
0.670801
0
0
0.288954
0.736484
0.673578
0.637699
0.557353
1.05142
0.624594
0.500392
0
0.605296
0.517308
0
0.764989
0.653791
0.311967
0
0.377669
0
0.498116
0.680794
0
0.69662
0.462491
1.21863
1.31304
0
0.85934
0
0.545597
0.23143
0.268765
0.339537
0.413825
0
1.13642
0
0.488917
0.567914
0
0
0.716979
0.228342
0
0
0.844998
0
0.532495
0
1.45315
0
0.666063
0.238631
0.628177
0.739681
0.397169
0
0.597831
0
0.360459
0.400708
0.731422
0.195187
0
0.589019
0
0.713836
0
0.345013
0
0.832749
0
0.496043
0
0.370983
0
0.386251
1.15955
0
0.73549
0.650937
1.23915
0.134562
0
0
0.328337
0
1.81109
1.4857
0.788692
0
0
0.597057
0.721162
0
0.432279
0.779482
0.481835
0.770003
0.591867
0.710792
0
0.463265
0.0470494
0.670682
0.425693
0.73457
0.332093
0.559742
0.693652
0.733268
0.995494
1.14485
0.595702
0.487183
0
1.12886
0.496742
0.473481
0.45556
0.838299
0
0.341508
0.516676
0.775628
0
0.680052
0.759721
0
0
0.993358
0.603915
0.199641
0.400496
0
0.792446
0.540719
0.427247
0
1.0591
1.30258
0.713641
0.586598
0.531224
0.362348
0.658717
0
0.543894
0.299342
0.55103
0
0.851659
0.833799
0.940192
0.350001
0
0.432837
0
0.902698
0.554466
0.42481
0
0.527811
0.549967
1.16827
0.560101
0
1.03472
0.664612
0.737539
0.565972
0
0.457681
0.182953
1.42876
0.88473
1.09703
0.949947
0.731636
0.363302
0.304403
0.731315
0.905148
0.850979
0.928116
0.33019
0.864086
0.250696
0.267913
0.5003
0
0
0.423046
0
0.780307
0.374599
1.62458
1.06704
0.674196
0
0.760956
0.114889
0.268518
0
0.49532
0
0.517931
0
0
0.168357
0.975205
0
0.0912632
0
1.02062
0.425191
0.922324
0.972571
0.887747
0.316523
0.425395
0.372184
0
0.69733
0.330471
0
0.49466
0
0.414189
0.18095
0.963581
0.276323
0.426952
0
0.920463
0.871141
0.757243
0.415715
0
0.686281
0.912613
0.355539
0.348676
0
0.694212
1.16331
0.987323
0.796424
1.18491
0
0.710622
0.136237
0.589706
0.167653
0.486971
0.300238
0.447861
0
1.18254
0.894436
0
0.959862
0
0.361906
0.174197
0
0.568384
1.18562
0.824027
0.929834
0.802479
0.556249
1.19389
0.45262
0
0.257878
0.656897
0.722346
0.450124
0.570622
0.516457
0.467352
0.578612
0.557105
0.811183
0.911208
0
0.723307
0.916263
1.78413
0.291221
0.534285
0.48694
0
0
0.439527
0.778791
0.64312
0
0.609158
0
0.575436
0
0.402269
0.326579
0
0.427311
0
0.614725
0
0.329143
1.89987
0
0.892107
0.262561
1.02886
0
0.678891
0
1.00479
0
0.962703
0.717549
0
0.695684
0.570276
0
0.402542
0.857252
1.24523
0
0
0.31769
0.602878
0.635157
0.292936
0.483877
0.564991
0.263001
0.40331
0.456126
0.665061
0
0.698674
1.00168
0
0.660845
1.3053
0
1.03078
0.585377
0
0.314775
0.295556
0.969778
0.673646
0.563998
0.694881
0.706702
0
0
0.778369
0.456954
0.381651
0.552476
0
0.593063
0.467233
0.423471
0.450546
0.260825
0.893666
0.422561
0.210835
0.643565
0
1.04226
0.528303
1.41682
0.575372
0.547292
0.706535
0
0.63158
0.836376
0
0.567138
0
0.832338
0
0.493989
0.564875
0.587462
0.517181
0.461602
0.661445
0.466796
0.420695
0.302729
0.395071
0.801498
0.245641
0.461196
0
0.478588
0
0
0.626122
0.524963
0.50926
1.19158
0.987339
0.82405
0.340037
0
0.493456
0
0
0
0.688893
0.573187
1.40458
0.433951
0.665052
1.004
0.606916
0
0.668682
0.665077
0.501072
0.232788
1.06661
0.933334
0.675496
0.223166
0.170456
0
0.243287
0
0
0
0.326563
0.746293
0
0
1.44648
0
0.592167
0.680992
0.714404
0
0
0.489256
0.730669
0.83671
0
0.975562
0
0
0.614404
0
0.6226
0
0.768973
1.56181
0.32001
0.767637
0.479534
0.355656
0.446229
0
0.405307
0
1.3385
0
0.687249
0.62061
0.715942
0
0
1.11327
0
0.47984
0.331986
0.728427
0
0.523889
0
1.03501
1.04761
0.559303
1.48474
1.12211
0.87332
0
0.908599
1.70838
0
0.297502
1.17105
0.117417
0.18584
0.487591
0.554183
0.45365
0
0.719232
1.49419
0.763105
0.724322
0.45444
0
0.48939
0
0.649059
0
1.41326
0
0.574925
0.435759
0.961562
0.220372
0.740887
0.277928
0.843822
1.62849
0
1.43607
2.00527
0.288753
0.657892
0.191947
0.687085
1.23578
0.426593
0.838142
1.83662
2.31072
0.815285
0.617077
0
0.485476
0.896209
0.405193
0
2.58214
1.31684
0.861204
0.813082
0
0
0.15652
0
0
0.191592
0.359206
0.601211
0.614667
1.30369
1.40639
0.658253
0.624136
3.20112
0
0
1.23223
0.716123
0
0.484484
0.900567
0.908926
0.656056
0
0
0
0.610555
0
0.913341
0.763008
0.812656
0.530049
0.237628
0
0.537542
0.657919
0.8476
0.737907
0.187885
0.70131
0.938016
0.756972
0.150327
1.76215
0.276277
1.01418
0.563156
0.801911
0.422589
0.889965
1.28204
0.492789
0
0.549262
1.4193
0
0.402934
0.842051
0.816726
0
0.9403
0.488111
0.872195
1.24568
0.816568
0.813251
1.13304
0.807322
0
0
0.825793
0
0.840319
0.462436
1.25912
0
0
2.09005
2.09673
0
0.698232
0.416837
0
0.551299
0
0.858049
0.686494
0.673692
0.248729
0.241017
0.747496
0
1.37894
0.837765
0.991444
0.670181
0.636206
0.541254
0.653299
2.61843
1.03868
1.17537
0.492354
1.64665
0
0.605117
0.790473
1.13999
1.59668
0.686157
0.800858
0
0.507634
0.397374
0.522047
0.702578
0.706775
0.466844
0
0.649392
0
0.726865
0
0.697658
0.550787
1.44426
0.942484
0.759932
0.978361
0.33815
0.386363
0.29421
0.415115
0.652987
0.713585
0.648348
0.492096
0.93607
0.828588
1.39694
0.679805
1.60561
1.44366
0
0
0.639301
0.507318
0
0.437142
0
0
0.619283
0.330646
0.832924
0.605031
0.658094
0.405137
1.0978
0.740374
1.25332
0
1.72719
0.946841
0
0.691186
0.549183
0.876684
1.04654
0.998922
0
0.904814
0.877107
0
0.917084
0.482899
0.475131
1.40369
0.869653
0.784003
0
0.387413
0
0
0.578213
0
0.781513
0.568508
0.514902
0.458546
0.314894
0.599617
0.873406
0.365111
1.99774
0
0.596975
0.471834
0.685694
0.761074
0
0
0
0.671362
0
0.283931
0
0.438841
0.873607
0.630664
0.35658
0
0
0
0.473199
1.16456
0
0.490857
0.624455
0.522714
0.741907
0
1.33476
0.614887
0.779862
0.636809
0.401567
0.380108
0.775323
0.266169
0.58539
0.664584
0.523099
0.527523
1.05958
0.775736
1.0666
0
0.477761
0
0.373073
0
0
0.425874
0.540057
0.684527
0
0.71767
0.456933
0.481336
0
0.591417
0.571393
0.908591
0
0.648872
0
0.481549
0
0.410957
0
1.08837
0.829308
0.32115
0
0.691001
0.305503
0.60957
0.385535
0.684404
0.669187
0.57564
0.96791
0.751418
0.800985
0
0
0.577078
0.547098
0.648889
0.436371
0.0515148
0
1.97185
0
0.616955
1.04999
0
0
0.708687
0
0.486244
0
0.693541
0.863002
0.446177
0
0.497809
0.458409
0.703193
0.328659
1.03219
1.25468
0.977306
0.356849
0.74827
1.24083
0.874554
0.753448
0.535213
0.945906
1.03461
2.03316
0.708207
0
0.981337
0.434751
1.82302
1.29745
0
0.874626
0.794956
0.585374
0
0.636439
0
0
0
0
0
0
0
0
0
0
0
0
0
0
0
0
0
0
0
0
0
0
0
0
0
0
0
0
0
0
0
0
0
0
0
0
0
0
0
0
0
0
0
0
0
0
0
0
0
0
0
0
0
0
0
0
0
0
0
0
0
0
0
0
0
0
0.454946
0.934542
0
1.05817
0.616386
0
0
0
0
1.554
0
1.03721
1.13689
0
1.34571
0
0
0
0
0.512942
1.45755
0
0
0.314557
0.44044
0
0
1.16164
1.62105
0
0.404695
1.41499
0
0
0
0
0
0
0
0
0
0
0
0
0
0
0
1.41977
1.52638
0
0
0
0
0
0
0
0
0
0
0.526227
0
0
0
0
0.635769
1.37197
1.37272
1.87043
0.884746
0.432533
0.9449
0.740321
0.856258
0.528189
1.44216
1.28022
0.327247
0.249665
0.879442
0.373245
0
0.733949
0
0.705886
0
0.66245
0.564901
0.27871
0
0.84396
0.631872
0.456472
0
0
0.464079
0
0.508781
0
0
0
0.766425
0
0.63598
0.423733
0.25768
0.488244
0.316399
0.498954
0.20357
0.514861
0
0.255434
0.319127
1.59601
0.333283
0.705208
0.708824
0
1.01061
0.86942
0.647035
0.867361
0.398762
0
0.356791
0
0.785516
0
0
0.541387
0.603491
0.81666
0
0.406606
0.531731
0.322512
0.661143
0.288545
0.427594
0
0
0.591537
0.460717
0.872629
0.857757
0
0.643982
1.04303
0
0.895842
0.445467
0.5663
0.244073
0.464659
0.633111
0.612952
0.711688
1.10938
0.510138
0
0.538622
0
0
1.50462
0.321928
0.602825
0.846405
0.405894
0.55892
2.10083
0
0.58275
0.832387
0
0.542132
0.585229
0
0.460788
0.560319
0.297761
0.456178
0
0
0
0
0.587118
0.347274
0.440645
0.940931
0.837289
0.236431
0
0.51844
0
0.490441
0.433524
0.739545
1.08461
0.65977
0.442401
0
1.13009
0
0.80935
0
0.736426
0
0.39888
0
0.454478
0.537188
0.847976
1.08634
0.340662
0
0
0.421149
0.532454
0
0.496454
0.725322
0
0.390342
0
0.486028
0.769168
0
2.34227
1.94963
0.334352
0
0.628849
0.584489
0
1.40956
1.68886
1.12938
0.78605
0.395187
0.353543
0.186953
0
0
0.601934
0
0.0746495
0
0.58764
0.115128
0
1.11164
0.736253
0
0.457138
0.435191
0.5265
0.536916
0.445307
0.690427
0
0.57575
0.939192
0.542613
0.469603
0.630944
0.339013
0
0.722175
0.506512
0.625964
0
0
0.634998
0
0
0
0.377966
0
0
0.404676
0
0.798353
0.868115
0.728351
0.420233
0
0.624932
1.19736
0
0.277478
0.346342
0
0.727579
0.543806
0.371219
0.757224
0
0.55823
0
0.473498
0
0
0
0.0332581
0
0.486656
0.798472
0.30115
0.367848
0.288577
0.643423
0.602572
0
0.799157
0.622467
1.33498
0
0.21976
0.736873
0.672462
0.424898
0
0.601383
0
0.250063
0.634837
0.87287
0.329078
0.821975
0
0.800264
0.589968
1.46615
0.637904
0
0.62052
0
0.563401
0.444084
0
0.27132
0.519629
0.641587
0.811747
0.353989
0.821035
0
0.600762
1.31916
0.456883
0.286925
0
0.512361
0.633522
0.518763
0.544857
0.46536
0.632715
0.420623
0.455696
0.812717
0.393747
0
0.420776
0.950467
0.481938
0.579242
0.569386
0.48609
0
0.527837
0
0
0
0.485299
0.303288
0
0
0.287835
0
0.529886
0
0.309542
0
1.5893
0.369809
0.358936
0
0.344462
0.644557
0
0
0.403808
0
0.616447
0.953815
0.926319
0.588402
1.54481
0.567719
0.191399
0.944103
0
0
1.15
0.634188
0.65231
0.532105
1.07111
0.472398
0
0
0.861631
0
0.82908
0
0.35858
0.170689
0
0.756448
0
0
0.510511
1.66237
0
0
0.7395
0.909795
1.00379
0.943197
0.323166
0.508504
1.05474
0.458367
0
1.9042
0
0.441417
0
0.553125
0
0
0.505227
0.278978
0.304634
0.293333
0
0
0
0
0
0.858803
0.904773
0.563294
0
0
1.0598
0.87235
0.761796
1.11916
1.84464
0.701284
0
0
0.583748
0
0.21706
0.534856
0
0.769702
0
0.460171
0
0.260912
0.704323
0
0.350493
0.743887
0.612319
0.932708
0.692836
0
0.432305
0.750467
0.26822
0
0
0.39991
0.585318
0.899122
0.296653
0.909742
0.390015
0.458443
0.356301
0
0.838219
0.668665
0.590314
0
0.561038
0
0.898107
0
1.50309
0
0.524393
0.0869147
0.383099
0.728356
0.434264
0.49546
0
0
1.00713
0.62759
0.62771
0
0.553405
0.539519
0.121305
0.682552
0
0.399462
0
0.432304
0
0.127037
0
0.102698
0.579194
0
0
0.248431
0.424518
0.248521
0.366016
0.264639
1.43854
1.12107
1.25755
0
1.40592
0.513654
0
0.314602
1.02128
0.637665
0.254768
0.547876
0.39237
0
0.428984
0.556795
0.407317
0
0.526698
0
0.577264
0.219355
0.623773
1.82736
0.554997
0.507744
0.614522
1.00327
0.922209
0.637728
0
0.268886
0
0.602116
0
0.280151
0.687319
0.52584
0
0.791682
1.07733
0.501354
0
0.347825
0
0.716156
0.640695
0.54611
0.982982
0.418233
0
0.742702
0
0.346831
0
0.757223
1.65195
0.606568
0.373826
0.664092
0.830005
0
0.628973
0.782526
0.529128
0.513735
0.655316
0.99147
0.564937
0
0.375193
0
0
0.766982
0.523371
0.397607
0.374852
0
0.838697
0
0.405198
0.684553
0
0.984558
1.00083
0.612173
0
0.646897
0
0
0.540571
0
0.538068
0
1.21873
0.536638
1.07764
0.293078
0.458029
0.468506
0.550399
1.15562
0
0
0
1.28493
1.136
0
0
0.996491
0.250985
0.729982
0
0
0
0.852094
1.42353
0
0
1.20304
0.594759
0
0
0.613002
0.751441
0
0
1.82692
0.944452
0.609798
0.965622
0.227763
0
0.524529
0.472966
0.543836
1.24369
0
0.474939
1.39483
0.578435
0.44794
0
0.716572
0.472536
0
0.861076
0.898546
0.408588
0
0.573393
0
0.61977
0
1.01005
0.392859
0.477518
0
0.393769
0.868877
0
0
0.517553
0.339706
0.446315
0
0.962803
0
0.715584
0.318707
1.22664
0.693334
0.534815
0.352907
1.16848
0.43441
0.859722
0
0.531184
0.605408
0.687463
1.59749
0
0
0.253378
0.593322
0
0.481658
0.741832
0
0
0.895778
0
0.697826
0
0.530334
0.680892
0.911041
0.731332
0.409601
0.757485
0.823948
0.875351
0.885538
0
0.571568
1.07339
0
0.302922
0.894342
0.463317
0.983341
0
0.205982
0.310394
0.54839
1.04117
0
0.562218
0
0.567426
1.45209
0.492444
0.714285
0.738562
0.990724
0.801649
0.614356
0
0.626622
0.642626
0
0
0.476128
0
0.730029
1.04685
0.631633
2.20707
0.863657
0.465932
1.08763
0
0.573736
0.581759
0.364295
0.444188
0.337455
0.835674
0
1.06934
0
1.17101
0.687781
0
0.776903
1.71059
1.20845
0.33311
0.849437
0
0
1.56409
0
0.813742
0.746207
0.572455
0.442144
0.436891
1.31397
0.793152
0.199092
0.834303
0.765478
0.764698
0.542584
1.5507
0.534069
0.689659
0.867171
0.530215
0.456522
0
0.620897
0
0.259224
0.712421
0.803382
0.388067
1.00697
0.468613
0
0
0.368063
0.708128
0.972756
0.457133
0.295137
0.767239
0
0.51036
0.794863
0.519092
0.393986
0.170613
0.142012
0.929562
1.08024
0.89916
0.722581
0.920576
0
0
0.435635
0
0.85248
0.553312
0.93505
0.250401
0.745787
0.698761
0
1.09238
0
0.716728
1.27711
0.657131
1.40513
0.153485
2.33464
0
0.572276
0.311762
0.239064
0.501421
0.554807
0.552372
1.21299
0.700644
0
1.06695
0.961443
0.424485
0.297421
0.494035
0.703699
1.92606
0
0.615598
0.848129
0.882767
1.32217
0.776636
0.500493
1.08225
1.30951
0.389113
0
0
1.88561
0
0.614747
0.449208
0.369625
0.835321
0.8389
0.565629
0
0.419756
0
0.594811
0
0.914338
0
0
0
0.891268
0.51975
0.805209
0.571238
0
0
0.971706
1.2328
0.635611
0
0
1.66442
0.786933
0.397239
0.441183
0.863001
0.380488
0.611992
0.871829
1.5422
1.31873
0
1.44791
0.821715
0.520397
1.07359
1.51757
0.324729
0.680371
0
0.921546
1.60543
1.06761
0.949644
0
0
0.779435
1.14729
0.653121
0.62768
0.478446
0.419888
0.509869
0.686853
0.320203
0.527069
0
0
0
0
0
0
0
0
0
0
0
0
0
0
0
0
0
0
0
0
0
0
0
0
0
0
0
0
0
0
0
0
0
0
0
0
0
0
0
0
0
0
0
0
0
0
0
0
0
0
0
0
0
0
0
0
0
0
0
0
0
0
0
0
0.259431
0.659867
0
0.764326
0.659279
0
0.464155
0.697128
0.300481
0.496936
0
0.302166
0.626936
1.38481
0.693121
0.942543
0.312369
0.406752
1.09159
0.62095
0.604972
0
0.410097
0.810283
0.276933
0.440042
0.449512
0.611468
0.594133
1.84788
0.504215
1.22603
0.282615
1.64241
0.79848
0.591208
1.1008
0
0.269557
0.948086
1.47819
0.336892
0
0.710033
0.193439
0
1.60837
1.224
0.36678
0.57277
0
0.161308
0.420248
0
0.104545
0
1.11509
0.279077
0
2.22506
0.447909
0
0.92782
0.999434
0.817642
0.63591
0.800243
0.580544
1.00252
0.686404
0.691378
0
0
1.04935
0
0.674118
0.568727
1.11577
1.79229
0.329792
0.543454
0.771226
0.824543
2.06508
0.788811
0
0
0.986077
1.54355
0.871643
0.931991
0.595627
0.47427
0
0.608169
0.390288
0.278418
0.306397
0.529105
0.449096
0.647565
0
0.243432
0.199614
0.833082
0
0.612746
0.669097
0
0.403659
0
0.461835
0
0
0.253881
0.961964
0.815907
1.05374
0
0.324198
1.05312
0
0.168378
0
0.17905
0
0.760094
0
0
0
0.846812
0.595943
0.625848
0
0.741031
0
0.686002
0.739401
0.364277
0.453012
0.677113
0.350071
0
0.528772
0.24685
0.557886
0.6862
0.209038
1.0125
0.944898
0.418689
0.335951
0
0.959861
0.470009
0
0.457978
0
0.643825
0.81172
0
0.493213
0.917919
1.21733
0
0.770505
0.246593
0.423597
1.44926
0.714759
0
0.149371
0.589561
1.29345
0.904892
0.50629
0.808329
0.325732
0.73586
0.581926
0
0.547241
0.420507
0.825907
0
0.456099
1.79741
0
0.536854
0
0.563308
0.316969
0.71743
0.662806
0.790415
0
0.587704
0.859305
0.595106
0.301177
0.62785
0.897098
0.549781
0.884713
0.660151
1.25854
0
0.286843
0.46686
0
0
0.367377
1.08423
0.763642
0.839903
0
0.87705
0
0.757793
0.849329
1.11959
0
0
0.514109
0
0.445978
0.59338
0.345478
0.388975
0.187108
0.436859
0
0
0.59255
0
1.18862
1.6784
1.11469
0.171666
0.49687
0.497999
0.660247
0.412241
1.38469
1.2608
1.18634
0.636233
0
0.421199
0.658847
0
0.686468
0.592063
0.573884
0.736868
0.853788
0
2.25674
0.653885
0.799538
0
0
0.317079
0.423146
0.541575
0.771234
1.51473
0.779959
0.169513
0.388683
0.284052
0.468587
0.489129
0.312217
0.339138
0
0.324775
0.544303
0.461384
0.352496
0.452988
0
1.83055
0.517772
0.958793
2.40974
1.05765
0.6966
0.539436
1.5178
0.841441
0
1.04029
0.936454
0
0.630854
0
0
0.6517
0.444422
1.01871
0.600791
0.423328
0.630539
0.471475
0
0.3431
0
0.337391
0.282294
0.157301
0.66957
0.359479
0.45396
0
0
0.511656
0.471614
0.683734
1.14025
0.653122
0.283859
0.619396
0.264467
0.233111
0.0608817
0.941717
1.10094
1.16604
0.647196
0.633361
0
0.847158
0.586628
0
2.74976
0
0.431727
0
0
0.598279
0.875721
1.31186
0
0
0.578381
0
0
0.580582
0
0.425151
0.390027
0.383652
0
0.852825
0.827239
0
0.44682
0.508271
0.845738
0.359415
0
0.427067
0
0.447772
0.521722
0.743999
0
0.298565
0.660275
0.961845
1.70032
1.2162
0
0.573644
0.840333
0.461721
0
0.983436
0.352378
0
0.246812
1.11479
0.721024
0.161704
0.41527
0.470501
0.581651
0.362589
0
0.520087
0
0.7404
0
0.632856
0.893231
1.07802
0.828712
0
1.11808
0.787512
1.5989
0
0.570897
0.867881
0.42286
0.645873
0.943986
0.78962
0
0.74451
0.424567
0.744589
0.990629
0.880319
0.995083
0.523334
0.29694
0.508497
0
1.16603
0.94056
0
1.68878
1.1394
0.466005
0
0.631502
0.223096
0.270564
0
0
0.813585
1.66206
0.577981
0.718588
0.62376
0.355366
0
1.05648
0.172729
0.657675
0.301782
0.729087
0
0
0.288754
0.477125
1.11584
0.964287
0.441482
0.722272
0.565741
0
0.626789
0.587543
0.805818
0.152403
0.520154
1.5041
1.0259
0
0.717386
0
1.36663
1.06587
0.413783
0.358378
0
1.02733
0
0.483769
0.675745
0.491289
0
0
0.699662
1.57215
0.270493
0.989544
0.332492
0.723515
0.715651
0.554398
0.67295
0.380464
0.542867
0.572773
0.74113
0.147643
0.11234
0.644581
0.180536
0.612455
0.51809
0.259222
0.483975
0
0.0912406
0.587899
0.397425
0
0.921554
0
0.547076
0
0.134846
1.0101
0.813933
0.519794
0.33494
0.587271
0.73046
0
0.806415
0.816871
0.526998
0.374233
0
0.343744
0
0.595144
0
0.185584
0
0
0.605352
0.593194
0.493835
0.613342
1.0022
0.735256
0.779708
1.08785
0.589431
0.398179
0
0.675693
1.58045
0.584542
0.842886
1.08082
0.896873
0.261501
0.537875
0.482178
2.46394
1.60342
0
0.569542
0.349098
0.474313
1.07434
0.888366
0.227647
0.314108
1.40037
0
0.852736
0
0.179222
0.792566
0.315772
0
0
0.822208
0.477701
0
1.11723
0.38589
0.354156
0
0
0.480446
0
0.52726
1.32012
0.797502
1.66148
0.723815
0
0.551781
0
0
0
0.511558
0.830543
0.687055
0.501666
0
0
0.737713
0
1.23553
1.17916
1.17092
0.553377
0.699879
0.292445
0.656864
0.439725
1.48203
0.616927
0
0.332307
0.511717
0
0.851041
0
0.86139
0.46161
0.814881
1.43574
0.776568
0.897826
0.651007
0.398633
0.573053
0.323549
0
0.8853
0.49805
0.669116
0
0.611944
0
0.833985
0.437016
0.355736
0.554684
2.11509
0
1.36006
0.821164
0
0
0.610029
0
0
1.25338
0.651926
0.655898
0.320414
1.4278
0.805809
0.455868
0.354332
1.26711
0.521306
0
0.463964
0.782256
0.358026
0
0
0.313418
0.587166
0
0
0.420268
0.609854
0.912446
0.878769
0
0.58039
0.691217
0.628793
0.646662
0
0.334469
0
0.874872
0
1.19377
1.14717
0.732093
1.2743
0.913804
0
0.298282
0.387367
1.06696
0.5322
0.655352
0.391532
1.13345
0.847179
0
0.298037
0
0
0.563765
0.592515
1.21319
0.418244
0.302612
0.567604
0
1.40247
0.782937
0.422018
1.32667
0
0.197082
0.665632
0.591646
1.50964
0.995267
0
1.7097
0
0.869794
0
1.1108
0
0.413395
0.446395
0.57348
0.221596
0.373082
0.609788
0.393687
0.808723
0.125169
0
1.02376
0
1.05568
0.313342
0.923049
0.876412
0.84438
0.429487
0.896408
0.793151
0.714445
0.594599
0.22935
0.61247
1.23489
0.70792
0.570277
0.600289
0.817616
0.672167
0.6897
0.412203
0.683798
0.603136
0.674333
0.806739
0.842971
0.412159
0
0.756463
0.813534
0.115128
0.580825
0.601265
0
0
0.242271
0.271714
0.626674
0.551184
1.12214
0.379956
0.49365
1.40588
0.556604
0
0
1.13112
0.840699
0.76036
1.19775
0.407145
0
0
0.806185
0.290742
0
0.500855
0
0
1.8481
0.958679
0.476589
0
0.522569
0
0.508687
0.827193
0.333777
1.02798
0.667868
0
0
0.101468
0.385345
0.880861
0
0.777636
0
0.66748
0.910992
0.953819
1.02262
0.511718
0.572378
1.11454
1.22352
0.61034
0.278849
0.617094
0
0.334681
0.632505
0.609708
1.12825
0
0.603318
1.75207
0.815665
0
2.8317
0.304181
1.48572
1.06554
0.850443
0.880405
0.587581
0.863723
0
0.792921
0.800359
0.772901
1.27359
0
0.481385
0
0
0.756452
0
0.464641
0
1.33133
0.366162
0.709221
0.586674
0.521759
1.16297
0.555671
0.595777
0.200172
0.654387
0.353114
0.501912
0.212869
0
0.352108
0
0.451264
0
0.781791
0.920613
0.224857
0.575825
0.716991
0.442744
0.321747
0.374164
0.497716
1.16466
0.950953
0.741614
0.376446
0.374245
0.604295
0
0.472137
0
0.771378
0.538646
0.727976
0
0
1.04961
1.54539
0.942416
0.653764
0.384485
0.354319
0.776125
0.496486
0.593731
0
0.566265
0
0.63631
0.528577
0.881427
1.00172
0
0.49997
1.22112
0.581732
0
0.547405
0.693888
0.589704
0.408102
1.06925
0.623034
0.491043
0.178619
0.233008
0.682735
1.20456
0.681923
0.334171
0
0.592985
0
0.623797
0.476637
1.42126
0.51074
0
0.607501
0
0.679706
1.05161
0
0.689716
1.69337
1.32141
0.968566
0.612195
0.96127
0.227303
0.585835
0.310085
0.616981
0.391884
0.60787
0.496924
0.767635
0.69265
0.763321
0
0
0.674617
0
0.6072
0.452073
0.560448
0
0
0.931598
0
0
0
0
0
0
0
0
0
0
0
0
0
0
0
0
0
0
0
0
0
0
0
0
0
0
0
0
0
0
0
0
0
0
0
0
0
0
0
0
0
0
0
0
0
0
0
0
0
0
0
0
0
0
0
0
0
0
0
0
0
0
0
0
0.313476
0.601118
0.90857
0.500287
0.636563
0.587314
0.59545
1.20601
0.425824
0.485978
1.07123
0.587454
0.507999
0
0.544732
1.1188
0.34888
0.521789
0
0.513752
0.567187
0
0.511228
1.09474
0.264051
0.46473
0
0.466601
0.503623
0.516163
0.517012
1.24001
3.40209
0.436501
0.0311129
0.843697
0.282355
0
1.53464
0.923217
0.337373
0.645179
0.553502
0.551847
1.05063
0
0.738757
0.282027
0.57807
0.186867
0
0.372148
0.967821
0.83116
0.95785
0.464131
0.132157
1.44688
0
0.290917
1.21817
0
0.458931
1.7304
0.612623
0.839266
0.992824
0.857929
0.400532
0.334531
0.41693
0.756739
1.09104
1.25428
0.301801
0
0.386032
0.844447
0.487059
0.785868
0.699128
0.548427
0.704164
0.902011
0.49564
0
1.46905
0
0.838322
0.763156
1.11732
0.608884
0.722758
0.591868
0
0.500397
0
0.231415
0
0.586171
0.710744
0.615683
0.616112
0
0.540177
0.0460672
0.620703
0.532403
0
0.398297
0
0
0
1.03541
0.288382
0.204168
0
0.388908
0.632717
1.08639
0.741334
0.626315
0.618416
1.12957
0.874993
0
0.728877
0
0.691784
0.686154
0.762128
0
1.11939
0.535601
0.487432
1.78795
0.820951
0
0
0.504644
0.605001
0
0.585779
0.611307
0
0
0.76924
0.730821
0.531879
0.740781
0.659615
0.488428
0
1.2456
0.363433
0.519665
0.640351
1.14564
0
0.567412
0
0
0
1.05393
0.574465
0.506679
0.543642
0.215273
0.0768314
0.222927
0.412623
0.648845
0.839471