<?xml version="1.0"?>
<VTKFile type="RectilinearGrid">
<RectilinearGrid WholeExtent="0 32 0 32 0 32" Origin="0 0 0" Spacing="1 1 1">
<Piece Extent="0 32 0 32 0 32">
<PointData>
</PointData>
<Coordinates>
<DataArray type="Float32" format="ascii">
0 0.524874 1.04975 1.57462 2.0995 2.62437 3.14924 3.67412 4.19899 4.72386 5.24874 5.77361 6.29849 6.82336 7.34823 7.87311 8.39798 8.92285 9.44773 9.9726 10.4975 11.0224 11.5472 12.0721 12.597 13.1218 13.6467 14.1716 14.6965 15.2213 15.7462 16.2711 16.796 
</DataArray>
<DataArray type="Float32" format="ascii">
-5.03879 -3.62163 -2.20447 -0.787311 0.629849 2.04701 3.46417 4.88133 6.29849 7.71565 9.1328 10.55 11.9671 13.3843 14.8014 16.2186 17.6358 19.0529 20.4701 21.8872 23.3044 24.7216 26.1387 27.5559 28.973 30.3902 31.8074 33.2245 34.6417 36.0588 37.476 38.8931 40.3103 
</DataArray>
<DataArray type="Float32" format="ascii">
0 0.524874 1.04975 1.57462 2.0995 2.62437 3.14924 3.67412 4.19899 4.72386 5.24874 5.77361 6.29849 6.82336 7.34823 7.87311 8.39798 8.92285 9.44773 9.9726 10.4975 11.0224 11.5472 12.0721 12.597 13.1218 13.6467 14.1716 14.6965 15.2213 15.7462 16.2711 16.796 
</DataArray>
</Coordinates>
<CellData>
<DataArray type="Float32" Name="Scalar" format="ascii">
0
0
0
0
0
0
0
0
0
0
0
0
0
0
0
0
0
0
0
0
0
0
0
0
0
0
0
0
0
0
0
0
0
0
0
0
0
0
0
0
0
0
0
0
0
0
0
0
0
0
0
0
0
0
0
0
0
0
0
0
0
0
0
0
0.146641
0.456758
1.18524
0.397647
0.295308
0.744496
0.414008
1.10124
0.271405
0.343813
0
0.578253
0.472598
0
0.325059
1.22807
0.191249
0.475159
0
0.327613
0.443534
0.511317
0.537343
1.13915
0.0407227
0.270239
0
0.40087
0.14434
0.778801
0.306002
1.8526
0.265543
0.837394
0
0.206997
0.991195
0
0.146597
0.679098
1.04786
0.328455
0
3.77633
0.110949
0
2.90007
0.886443
0.153024
1.08267
0
0.241142
0.699617
0
0.33054
0.90459
0
0.119828
0
2.27872
0.173252
0
1.25195
1.21239
0.394473
0
0.429267
0.12976
0.510591
0.69566
0.42433
0.975523
0.668331
2.8014
0.707619
0.662158
0.460362
0
0.459024
0.587164
0.624054
0.763442
0.57707
1.15109
0.643033
0.436182
0.637181
0
0.603049
0.44585
0
0.293653
0
0.923408
0.687962
0.804096
0.409069
0.5515
0.140857
0
1.09849
0.700647
0.351445
0
0.534169
0
0.938367
0
0.367618
0.314721
0.831097
0
0
0.345749
0.35081
0.750317
0
0
0.909811
0.553623
0.557283
0
0.866754
0
0.477704
0
0
0.292109
0.404499
0.880894
0.231431
0.580184
0.813419
0.706394
0.710929
0.515317
0.552719
0
0.603718
0
0.330947
0.776875
0.716646
0.548976
1.01151
0.467713
0.349028
0.858577
0
0.286388
0
0.445334
0
0.532984
0
0.416796
0.355037
0.98368
0.665626
0.65449
0.918661
0.541797
0
0.376122
0
0.142773
0
0.961342
1.54498
0.809701
0
0.711878
0.430655
0.551104
0.541668
0.547937
0.956056
0.255008
1.13297
0.807551
0
0.688612
0.91158
0.312713
0.657824
0.445713
0.570854
0.456239
0.404965
1.36082
1.13151
0.80679
0.545364
0
1.71651
0.793009
0
0
0
0
0
0
0.656112
0
0.505387
0.537512
0.395337
0.977153
0
0.510742
0
0.537558
0.510794
0
1.02342
0
0.235749
0.71253
0.539331
0
0.658248
0.576772
0.730998
0.752994
0
0.593042
0.505037
0.655441
0.288673
0.53962
0.627321
0
1.16826
0.3939
0.538534
0
0
0.757666
0.296133
0.589951
1.17646
0.533613
0
0
0.451231
0
0.649866
0
0.625481
0
0.448511
0.592181
0
1.13047
0.390292
0.186232
2.05843
0.495526
0.538928
0.697849
0.561457
0.187798
0
0.499462
0.441102
0
0.616726
1.04648
0.25038
0.228533
0
0.477884
0
0.579017
0
0.382596
0.738328
0.463524
1.28714
0.93207
0
0.497875
0.50225
0.690387
0.550022
0
0
0
0.632967
0.274246
0.257408
2.19932
0.783932
0.67165
0
0
0.958414
0
0.480781
0
0
0.667304
0.743926
0.2616
0.659666
0.623264
0.541368
0.737876
0.79144
0.569841
0
0
0
0.672083
0.719058
0.385003
0.321407
0.332329
0
0.654787
0
0.380838
0
0
0
0
0.820679
0.846402
1.01618
0.956747
0.392156
0.959521
0.670021
0.385937
0.58753
0
0.309561
0.530507
0.0749625
0.774601
0.30435
0.486927
2.84337
1.51583
0.789857
0.646123
1.50883
0
0.94786
0.247636
0.390128
0.817984
0.216069
0.470142
0
0.0823071
0.418042
0
0.694617
0
0.75031
0
0.65249
0.75132
0.724104
1.28082
0
0
1.06212
0.642619
1.23731
0.921478
0.928145
0.939698
0.995532
1.23436
0.639588
0.535198
0.445976
0.583918
0.711678
0.384754
0
0.383854
0.526682
0.552365
1.02918
0.333946
0.401484
0.900329
0.337861
0.524574
0.315293
0.59572
1.41653
0
1.15704
0.471356
0.81397
0.637001
0.437585
0.381848
1.60087
1.07705
0.639676
0.636577
0.84518
0
0
0.269228
1.22597
0.731961
0.414103
0.403873
1.06633
0.162369
0
0.769741
1.1089
1.17999
0.45809
1.46388
0
0.565037
1.76482
0.859455
0
0
0.261937
0.514015
0
0.576965
0.93085
0.904546
0
2.1536
0
0.701979
0.223713
0
0.602782
0
0.897101
0.613824
0.418511
0
1.14365
0.438922
0.188001
1.51148
0.725633
0
0.745739
0.187112
0.28853
1.37954
0
0.254571
0
0.492236
0
0
0.842066
0
0.394279
0.41642
0.828709
0.512933
1.03193
1.56187
0.882135
0
0.403439
0
0.904202
0.224985
0.695321
0
0
0.467529
0
1.02155
0.698691
0
0.567096
0.220831
0
0.517646
0.802359
0.405232
0.440291
0.133358
0.40165
0
0.4557
0.589476
0
1.50798
0.926946
0
0
0
1.0922
0.499789
0.675184
0
1.7242
0.345307
0
0
0
0.169293
0
0.523933
1.19121
0
0.417134
0
0.306755
0
0.728645
0
0.511139
0
0
0
0.520916
0.673722
1.39669
0.642802
0
0.822366
0.963133
1.56929
1.12189
0.581461
0.747145
0.982072
0
0.553364
0.752668
1.07024
0
0.654167
1.05516
0.853726
0.67077
0.862754
0.904091
0.700507
0
0.63166
0.656309
0.499834
0.386151
0
0.742272
0.818904
0.485082
0.345386
0.956676
0.19852
0.440446
0
0.621544
1.4124
0.634691
0.487616
0
0.70065
0.504658
0.857086
0.576691
1.00371
0.448026
0
0
0.896182
1.73577
0.352995
1.23008
0.807139
0
0.702261
0
0.76918
0.594039
0.409786
0
0.523082
0.499922
0.445556
0.806963
0.504834
0.704529
0.578133
0.344795
0
1.07614
1.01289
0
0.350575
0
0.771501
0.934704
0
0
0
1.28038
0.928991
0.80216
0.355643
0.846419
0.551321
1.33234
0.847829
0.290039
0.454535
0.859533
0.38493
0.763783
0
0.384916
0
0.380583
0.624336
0.794795
0
0.44721
0.750903
1.37854
0.291229
0.731017
0
0.490147
0.277589
0.441342
0.358437
0.335331
0.323748
0
0.917727
0
0.835031
1.07331
0
0.965884
1.37551
0.930986
0.797537
0
1.03116
1.23652
0
0.535701
0
0
0.733323
1.64065
0.694802
1.10407
2.17118
0.750187
0.922884
0.471053
0.446528
0
0.432434
0
0.513988
0.197407
0.545927
1.53214
0
0.404089
0
0.987505
0
0.39163
0.827801
1.30265
0.506119
0
1.37989
0.562651
0.517578
0.432664
0
0.778205
0.390793
0
0.774413
0.586274
0.881736
0.546071
1.11666
0
1.52457
0.848206
0
0
1.17698
0
0.420135
0.97885
1.10824
0.306537
0
0.317478
0.765741
0.844622
0
0.277335
0
0.852145
0
1.46567
0.75034
0.608035
0.671839
0.669125
0.17604
0.570816
0.417582
0.886556
0
0.500011
0
0.949443
0
0.412531
0.457301
0
1.34623
0.591135
1.407
1.84948
0.401814
0
0.880204
0.488396
0.508336
0.478628
0
0.195318
0
0.39231
0
0.452846
0.290787
0
0.407075
0.59426
1.46052
0.993797
1.00789
0
0.487372
0
0
0.520837
0.514381
1.18435
0.739953
0.597275
0.73789
0.929866
0.867972
0.266346
0.495925
0
0.56587
0
0.581648
0.866177
0
0
0
0.708729
0
0.800437
1.07628
0.317611
0.932725
0.499159
0
0.750524
0.348569
1.3068
0
0.499846
1.6701
0
0
0
1.41887
0.409671
0
0.520639
0.659981
0.493444
0.49935
0.686843
0.699375
0.85923
0
0
1.36003
0.496075
0.637773
1.35395
0.498688
0
0.725969
0.596298
0
0.569585
0.482326
0.755608
0.335514
0.469501
0.694679
0.366852
0.362949
0.423169
0.873299
0.417022
0
0.936387
0.684286
0.726211
0.718707
0.821251
0.938458
0.600333
0
0.745957
0.724958
0.507468
0
0.64976
0
0.711847
0.464063
0.779098
0.904803
0.658848
0.94297
1.31016
0.600757
0.83499
0.639752
0.62118
0.503948
0.808805
0.749856
0
0.729119
0
0.918988
0.762206
0
0.462844
0
0
1.1592
1.42239
0.618167
0.472617
0.888953
0.413125
0.300783
0
0.704599
0.457047
0.731285
0
0.746769
0.338176
1.25806
1.12927
0.628312
1.20808
0
0.591855
0.861515
1.49769
0.515367
0
0.788326
2.85008
0.686254
0.54006
0.539241
0.465069
0
0.600459
0.51078
1.41354
0.317402
0.969289
0.209406
0
0.368923
0.409106
0
0
0.483662
0
0
0.462431
0
0
0.859556
0.968722
1.12483
0
0.666991
0
0.441103
0
0.584416
0
0
1.01828
0
0
0
0.393285
0.330519
0.649348
0.760538
0.455614
0.749323
0.381374
0.298865
0.78238
0.845936
0.5369
0.677826
1.57441
0.913362
0.844997
0
1.30356
0.605209
0.466324
1.83325
1.27942
0.593094
0.688802
0.235585
0.291079
0.448401
0.794124
0.331549
0.203614
0.864113
0
0.621038
0
0
0
0
0
0
0
0
0
0
0
0
0
0
0
0
0
0
0
0
0
0
0
0
0
0
0
0
0
0
0
0
0
0
0
0
0
0
0
0
0
0
0
0
0
0
0
0
0
0
0
0
0
0
0
0
0
0
0
0
0
0
0
0
0.143392
0.541802
0
0.379025
0.453916
0
0.477558
1.29873
0.285417
0.474202
0
0.489492
0.65621
1.10615
0.263322
1.35573
0.248843
0.518214
0
0.432163
0.514003
0
0.51387
0.805731
0.270172
0.356152
0
0.469636
0.311037
0
0.544454
0.918889
0.382536
0.474283
0
1.1016
0.239829
0
0
1.35602
0.294359
0
0
0.192291
1.72001
0
0.0843887
0.507898
1.52127
0.296666
0
0.868838
0.788592
0.974719
1.13777
0.987037
0.373926
0.666854
0
0.242617
0.535046
0
0.531695
0.635355
0.262156
0.434092
0.351786
0.396632
0.980273
0
0.533191
0
0
1.01403
0.703608
0
0.556045
0.889453
0.43533
1.27824
0.709944
0
0.614197
0.606146
0.563294
0.378633
0.738523
0.465055
0.776714
0.420567
0.448886
0.299929
0.590883
0.762618
0.495068
1.5057
0.385669
0
0.598646
0.561383
0
0.564263
1.28474
0.516954
0.976229
0
0.593081
1.63643
0.645595
0.734231
0.862613
0.867548
0.604356
0
1.17677
0.99163
0.762619
0.727196
0.348773
0.328829
0.538954
0.508159
0.153373
0.409299
0.441226
0
0.495125
0.486345
1.19182
0.36005
0
1.21609
0.516103
0.249527
0.484896
1.68232
0.541978
0.509096
0.721464
0.599554
0.934737
0.921155
0
1.14604
0.23915
0.30813
0
0.594074
0.12618
0.438548
0.520853
0.874297
0.562132
0.243079
0.449022
0.68538
0
1.55778
0.506284
0.570496
0.742168
0.593308
0
0.671908
0
0.771345
1.65817
1.51369
0.503714
1.55275
0.379313
0.213412
0
0.581116
0
0
0.353119
0
0.759808
0
0.396908
0.664744
1.06024
0.664898
0.555825
0.450571
1.04835
0
0.423573
0.468645
0.503699
0.350634
0.26434
0.958311
1.20852
0
0.648105
0.66604
0
0.691275
0.53193
1.03924
0.824096
0.588202
0.648416
0.588204
1.56754
0.874333
0.668138
0.406068
0.296318
0.993559
0
0.783101
1.34714
0.933408
0.610182
0
0
0.455434
1.3234
0.534322
0.478645
0.878847
0.403505
0.593321
0.74352
0
0
0.597095
1.12938
1.11039
0.923862
2.17957
0.148185
0.158035
0.494647
0.831069
0.446434
0.705095
0
0
0.565464
0
0.698864
0.639801
0.749083
0.536901
1.08718
0.542529
0.733068
1.04069
0.472151
1.12299
0
0.695163
0.545432
0.709836
0.657768
0.697427
0
0.506014
0.624309
1.22246
0.515529
0.765036
0.762135
0
0.675288
0.624771
0.395248
0.477433
1.42039
1.02306
0.866846
0.54455
0
0
0.42124
0.652474
0
0.561353
0
0
1.57047
0
0.683583
0.393151
0.489065
0.251209
0.501581
0
0.843744
1.04142
0.415384
0.489903
0.438924
0.392382
0.271142
0.772391
0.810159
1.03295
0.93596
0
0.209893
0.349721
0.761679
0.508905
0
0
0.827371
0.408763
0.28452
0.452445
0
2.07648
0.403706
0
0.931784
0.605797
0
0.929137
1.0895
0.481772
0.7307
0.714687
0.935338
0.379783
0.945506
0
0.442729
1.62315
0
0.846769
0
0.853349
0
0
0.422215
1.16028
0.324075
1.04211
0
0.476317
0
0.538613
0.266405
0.412168
0.368704
0
1.04667
2.09462
0
0.254759
0.781038
0.788214
0.228834
0
0
0
0
0
0.965721
0.58398
0.892021
0.708672
0.76197
0.531555
0.500432
0.534837
0
0.540486
0
0.248003
0
1.22655
0.484759
0
0.462925
0.558247
0.920486
0.553382
0.274636
0.578166
0.472856
0
0.99061
0.733739
0.543432
0
0.434057
0
0.854272
0.548311
0
0.949942
0.78438
0
0.572594
0.035772
0.850588
0
0
1.29663
0.848483
0.686644
0.618736
1.68044
0.775273
0.674873
0.699479
0.324531
0.785501
0.393995
0.69606
0.927552
0.906317
0
1.4327
1.05237
1.25443
0.763151
0.84874
0
0
0.424444
1.01202
0.289894
0
0.845988
0
0.291014
0
0
0
0.412933
0.46126
0.438782
0.369867
0.435764
0.756215
0.85403
0.297218
0.624409
0.670703
0
1.1978
0.349705
0
0
0.596404
0
1.29764
0.266375
0.617474
0
0.267826
0
0.253816
0.381606
1.04952
0.362333
0
0.68332
1.40779
1.39405
0
0.463108
0.723658
0.579391
1.24378
0
0.873082
0.625581
0
0.532837
0.553243
0.669783
0.871502
0.876499
0.938111
0.782189
0
1.07282
0.343364
0
0.653873
0
0.357066
0
0.438203
0.214973
0.218889
0.561736
0
0
0
0.937209
0.669346
0.369871
0
0.509015
0
0.78143
1.40497
0.689242
0.0453826
1.82765
0.559339
0.528613
0
0.983359
0.655545
0.742378
0.601379
0.704423
0.454418
0.369161
0
0
0.673363
0
0.355855
0.23489
0.618322
0.241509
0.481227
0.32794
0.181317
0.935302
0.70368
0.103605
0.799891
0.597834
0
0.294942
0.3257
1.09568
0.866952
0
0
0.616486
0.699059
0.565233
0.723305
0.645446
0.577033
0
1.34419
0.65391
0.377736
0.474543
0.399316
0
0.857537
1.5295
0.508595
0.92904
0.36272
1.5091
2.13405
0
0.899194
1.44107
1.56027
0.324742
0.491315
0
0
0
0
1.08779
0.615962
1.16901
0.510136
0.39647
0.7569
0.346212
0.668208
0.493827
0.984534
1.21171
0.709411
0
0.407842
0
0.77986
0
0.353953
0.34055
0
0.94024
0.870831
0
0.866856
0.61769
0.649738
0
1.17715
1.85863
1.90387
0
0
0.413216
0.363967
0.505383
0.566774
0.71322
0.409195
0.36658
0
0.404361
0.347475
0.528391
0.422604
0
0.330464
0
1.20274
0.734518
0.300758
0
0.501554
0
0.603142
0
0.731174
0.827579
0.839342
0.722814
2.60516
0
1.02348
0.630059
1.09082
0
0.446048
0
0
0.670406
2.4297
0.821479
0
0.72812
0
0.359943
0
0.498163
0
0.936547
0.448261
0.344479
1.19263
1.7501
0
0.454971
0.714669
0.473314
0.613101
0.600395
0.681747
1.01639
0.633519
0.691863
0.320763
1.15412
0
0
0.258667
0.852195
1.38598
0.652387
0
0.614527
0
0.560428
0.651576
0.902523
1.01546
1.01042
1.18847
1.12966
0.912852
0
0.537241
0.961824
0.748497
0.688303
1.24021
0
0
0.689091
0.276019
0.807042
0.431977
0.446621
0
0.537433
0.632896
0.708976
0.798004
0.629897
1.03752
0.514774
0.851047
2.57449
1.10237
0.388824
0.209321
0.842518
0
0
0
0.65406
0.518024
0.488686
0.310814
0
0
0
0.412366
0
0.789389
0.835076
0
0.426258
0
0.105931
1.40153
0
1.1097
0.654181
0.563757
0
2.20446
1.39949
0.758168
0.697225
0.680673
1.34744
1.40496
0.782115
1.16863
0.524729
0.625938
0.428919
0.556031
0.258516
0.616174
0.120549
0.916361
0
0.730777
0.712433
0.854389
0.641265
0
0
0.348108
0.339668
0.877009
0
0.598516
0
0.503777
0.378505
0.535732
0.697134
0.548972
0.386476
0
0
0.736966
0.544623
1.82208
0
1.01212
0.858627
0.457571
0
0.590339
1.42835
0.975019
0
0
0.715516
1.14617
0
0
1.25082
0.485601
0.428683
0
1.03194
1.12299
0.540736
0.876724
0.552071
0.661012
0
0
0.400073
0
0
0
0.270752
0.710686
0.487618
0.666039
0
2.20749
1.4494
0.679485
0.960531
0.489334
0.468173
1.01021
0.285394
0
0.652178
0.83034
0.762525
0.704131
0.491022
0.0661717
0.500888
0.119968
0.883934
0
0.954784
0
0
0
0.367366
0.884893
0.793582
1.26766
0.515132
1.20866
0
0.567664
0
0.878984
0.55898
3.14591
1.88007
2.4632
0.582731
1.10499
0
0.863966
2.06563
0
0.381176
0.0909404
1.12664
0
1.59509
0.101881
0.459115
0
0
0.570328
0
0.330506
0.705629
0.90464
1.64689
0.745277
0.593395
0.549779
0.478034
0.297569
0.293401
0
0.539252
0.567637
0.707946
0.737126
1.23892
1.19171
0
1.51191
0.715346
0
0.968247
0.364374
0
0.71803
1.11804
1.88924
1.22184
0
0
0.326402
0.595253
0.688372
0.294188
0.571219
0
0.787686
0
0
0.719462
0
0
0.437863
0.486911
0
0.607207
0
0.734111
0.918796
1.53718
1.3832
1.19433
0
0.781702
0.173765
0.647979
0
0
0.517709
0.616612
1.44794
0
0.470378
0.529245
2.18569
0
0.286856
0.525172
0
0.667085
0
0.516248
0.316605
0.737088
0.361867
0.628375
0
0.698656
0.426824
0.747184
0.343086
0
0.927323
0.822088
0.615382
1.01
0
0
1.03293
0.517806
1.51987
0.175311
0.713476
0.394252
1.38234
0.970648
0
0
0
0
0
0
0
0
0
0
0
0
0
0
0
0
0
0
0
0
0
0
0
0
0
0
0
0
0
0
0
0
0
0
0
0
0
0
0
0
0
0
0
0
0
0
0
0
0
0
0
0
0
0
0
0
0
0
0
0
0
0
0
0
0
0
0
0
1.08338
0
0
1.40615
1.80158
0
0
0
0.562021
0
1.03758
0
0.337995
0
0
0
0
0
0
0
0
0
0
0.605227
0.782769
0
0.826809
0
0
0
0
0
0
0
0
0
0
0.107948
0
0
0.791417
0
0
0.195383
0.149567
0
0
0.161992
0.433738
0
0.159484
0
0
0
0
0
0
0
0.90473
0
0.624569
0.44145
0.889189
0
0.522987
0.457206
0.234551
0.801463
0
0.461357
0.664387
1.36478
0
0
0.0505296
0
0.304859
0.493253
0.955366
0
1.26712
0.695077
0
0.532555
0.512422
1.22442
0.691453
0
0
0.73707
0.534812
0.469683
0.656543
0.55899
1.80243
0
0.894828
0
0.855578
0.531818
0.27361
0.579261
0.962471
0.765329
0.630051
0.821202
0.725107
0.493008
0
1.10601
0.697169
0.611057
0.7766
0.935271
0
0.434649
0.370407
0.292692
1.33529
0.633667
0.822914
0.738442
0
0.18047
1.03466
0.446727
0.477131
0.286193
0.681497
0.836423
0.544227
0.604545
0.607669
0
0
0.571053
0.843247
1.61422
0
0.366568
0.298824
0.62232
0.788171
0.965427
0.602027
0.72524
0.406856
0.418489
0
1.05461
0.675581
0.293084
0.567253
0.332789
0.565761
0
0.62517
0
0.617162
0.487022
0.76026
0
0
0
0.661446
0
0.531514
0.45969
0
0.149059
0
0.669476
0
0.594523
0.494444
0.724193
0.420951
0.355183
0.777346
0.547879
0.604178
0
0.718378
0.712596
0
0.583958
0.128031
0.619188
1.5017
0.753584
1.01385
0.418538
0.345639
0
0.612839
0.359821
0
0
0
0
0.744547
0.718496
0.725142
0.866443
0.419589
0.614647
0
0.648602
0
0.634483
0
0.421168
0
0.574482
0.927012
0.620285
0.385417
0.91891
0.686058
0.740875
0
1.16317
1.60823
0.256231
0.526258
0.450105
0.620491
1.05869
1.54702
0
0.919934
0.664981
1.37388
0.360558
0.370275
1.2124
0.341569
0
0.682994
1.11699
0.925398
0.647725
0.529267
0.913685
0
0
0.643334
0
0
0.926004
0.766162
0.404434
0.327009
0
0.735768
0.336654
0.619162
0.261225
0.682071
1.9725
0.996379
0.849168
0.350007
0.924861
0.0636863
0.0977101
0.447111
0.266709
0.702976
0.459418
0
1.19999
0.703662
0.673027
0.797638
0
0
0.558072
0.472045
0.464039
0.488806
0.770748
0.422368
0
0.694389
0
0.461952
0.341291
0
0.640753
0
0
0.516383
0.812561
0.739854
0
0.118952
0.750616
1.45926
0.408709
0.529213
0.250462
1.39625
0.837416
0.483195
0.185564
0
0
0
1.44399
0.55633
0.54731
0.353821
0
0.839343
0
0.245385
1.02218
0.753958
0
0.499867
0.910623
0.629956
0.817641
0.758164
0.886992
0.177811
0.92887
0.914579
0.126529
0
1.09874
0
0.628612
0
1.64989
0.689679
0
0.420374
0.974745
0
0.5296
0
0
0.511087
0.40574
0
0.422088
0.644642
0.694148
0
0
0.745321
0.615666
0.702729
0
0.59275
0
0.824307
0.389996
0.697729
0.808489
0
0
0
1.00702
1.06051
0.954224
0
0.444055
0.209225
0
0.84676
0
0.653544
0
0.450119
0.465084
0.548395
0.90338
1.20372
0.757576
0.983488
1.41587
0.373248
0.561857
0.351076
1.56228
0.819523
0
0.417344
0.92416
0.511158
0.641915
0.581827
0.452741
0
0.600316
0.164213
0
0.61596
1.10202
0.694299
0.501054
0
1.72449
0.180425
0.438642
0.302182
0.433186
0
1.0114
1.04065
0.980414
0.614899
0
0
0.943778
0.574408
0.48788
0.365767
0.674158
0
0.341253
0.865457
0.885734
1.37809
0.776333
0
0.835136
0
1.01424
0
0.569716
0
0.396707
0.440621
0
0.772562
0.896196
2.88403
0.524352
1.08997
0.756944
0.675055
0.655221
0
0.429697
0.454128
0
0
0.52005
0
0
0.162318
0.109036
0.479316
1.23432
0.95582
0.415206
0.429028
0.470136
0.785143
0.525109
0.324459
0.355075
0.463672
0.554566
0
1.54487
0
0.682656
0
0
0.842533
1.06714
2.20392
0.726527
0
0.868908
1.26538
0.818853
0.768338
0
0.444148
0.562026
0.475692
0.636153
1.04796
0.80894
0.585446
0.418945
0
0.456874
0.274065
0.38537
0.384718
1.1002
1.11909
0.984141
0
0
0.910587
0
1.24279
0.177334
0.255577
1.04503
0
0.581725
0
0.17428
1.92527
0.831844
0.370777
0.71493
0.821158
0.36521
0
1.01805
0
0
0.307
0
0.514058
0.97378
0.907656
0.516838
0.400384
0.321681
0.612657
0.6204
0.305476
1.06557
0.598715
0.596516
1.27334
1.25269
0.96926
0.635402
0.916188
0.924763
0.672886
0
1.22299
1.22844
0.491077
0.18828
0
0.852519
0
0
0
0.59774
0.462414
0.555526
1.46205
0.807264
1.73893
0
0.828875
0.988874
0.183832
0
0.724587
1.0464
0.682211
0.532794
0.824021
0
0.681167
0.885771
0
0.367485
0
0.651834
0
1.30819
1.40766
0.974749
1.48486
0.581739
1.32643
1.14238
0
0.584872
0.615524
0.249487
3.33133
0.693187
0.472463
0.658077
0.673678
0.477858
0.838082
0
0.540998
0
0.474504
0.614967
0.570091
0
0.671595
0
0.927635
0.460474
0
0.775286
0.810372
0.753717
0.797623
1.06515
0.419105
0.408596
0.845151
0.74008
0.24389
0.373787
0.471129
0.395582
0.353639
0.569861
0.808412
0
0.321939
1.08384
0.631492
0.662505
0.525562
0.558294
0
0.719797
1.21263
0.658197
0.477877
0.975738
1.37057
0.839746
0.470078
0.485353
0
0
0
0.405049
0
0.495823
0.304813
0.348027
0.521422
0.148525
0.431662
0
0
0.640916
0.660091
0.466213
0
0.529895
0.138997
0.380092
0.557971
0.388102
0
0.477989
0
0.478564
0
0.53104
0
0.588821
0.515812
1.37782
0
0.600645
0
0.573271
0.749667
0.678572
0
0.682459
1.24898
0.443857
0.543245
0.429685
0.467638
0.647627
0.596648
0.74193
0.414108
0
0.585744
1.03911
0.720541
0.703923
1.02305
0.536086
0.273648
1.06323
0
0
1.34249
0.492188
0.971981
0.670983
0.205056
0.555511
0.555877
0.212795
0.75237
1.18077
0.683393
0.705334
0
0.688144
0.454236
1.21238
0.409665
0
0.856172
0.956238
0.910772
0.606342
0.519668
0.642907
0.804306
0.914917
0.906953
0.490766
0
0.580424
0.724646
0.527773
1.35714
0
0.390237
1.1668
0.612479
0.732903
0.988444
1.29775
0.626433
0.733147
0
0
0.981361
0
0.362289
0.96224
0.360479
0.637574
0.812437
0
0
0.371764
0.737028
0
0.42912
0.455547
0.517676
0
0.715264
0
1.54241
0.492223
0.971643
0.896334
0.610465
0.55926
0.819009
0
0.441336
1.13981
0.605484
0
0.582181
0
0.744553
0
0.452676
0.587757
1.18735
1.33697
0.981098
0.842505
0
1.06227
1.31649
0.461005
1.18434
0
0
1.10016
0.665713
0.734224
1.35472
0.390684
0
0.962675
0.382567
0
0.961718
0.539013
0.592729
0
0.807668
0.628702
0.519844
0.729889
0.689988
0
0.580529
0.98
1.02176
0.414829
1.01807
0.522651
0.411174
0
0.378639
0
0.587738
0
0.916479
1.68185
0
0.422132
0.226508
0.741598
0.745771
0.701451
0.398082
1.40181
0.568301
0.788969
0
0.604108
0
0.514297
0
0.546036
0
1.1414
2.13701
0.742691
1.27026
0
0
0.76584
0
0
0
0.471729
0.657515
0.508896
0.956197
0.517316
0.389579
0.646962
0.566152
0.422886
0.625625
0.661095
0.740642
2.15042
0
0
0.791082
0.596451
0
0.67513
0.599294
0.548447
0.674461
0
0.514599
0.968014
0
0.371364
0.579977
0
0.405461
0
0
0.148061
0.822974
0
0.799486
0
0.675623
0.788192
2.12262
0
0.313635
0.581489
0.444801
0
0.540349
0.615857
0.495224
0.63796
0.659464
0
0
0
0.396732
0.115877
0
0.857066
1.0093
0
0.534474
1.40952
1.02191
0.56854
0.403941
0.423829
0.647628
0.895173
0.682341
0.970497
0.661571
0
1.00204
0.260307
0.840312
0.304698
0.281262
0.574598
1.04689
0.577116
0
0.677105
0
0.878889
0.553907
0.51857
0.76779
1.65906
0
0.673816
0
0.720061
0.441681
0.494286
0
0.72521
0.666142
0.596164
0.608461
0
0.846168
0.44126
0.787649
0
0.753483
0.477368
0
0
0
0
0
0
0
0
0
0
0
0
0
0
0
0
0
0
0
0
0
0
0
0
0
0
0
0
0
0
0
0
0
0
0
0
0
0
0
0
0
0
0
0
0
0
0
0
0
0
0
0
0
0
0
0
0
0
0
0
0
0
0
0
0.341719
0.542692
1.76693
0.340254
0.419271
0
0.31981
0.816027
0.308204
0.449714
0
0.439326
0.51035
1.09958
0.486502
0.740338
0.387655
0.485495
1.48934
0.575664
0.302901
0.558514
0.363763
0.850075
0.152883
0.637653
1.00718
0.538962
0.451288
0
0.629209
1.44127
0.0821598
1.58765
0
0.389362
1.84696
0
0.393772
1.32786
1.19546
0.56408
0
0.733186
0.822804
0
0.913616
0.587661
0.275132
0.807226
0
0.459629
1.14506
0.674504
0.283424
1.58075
0.869388
0.187426
0
0.515265
0.448142
0
1.08544
0.392438
0.699995
0.80515
0.680502
0.849449
0.548716
0.752932
0
0.671577
0
0.741778
1.26132
0.993853
0.382867
0.387392
0.359744
0.77309
0.306919
0.925121
0.226939
0
1.1151
1.41149
0.862625
0.525196
1.03727
1.99164
0
0
0.541606
0
0.722666
0
0.275544
0.703662
0.745136
0
0.708232
0
0.120432
1.47276
0.576119
0.321818
0.315198
0.513266
1.09212
0.602201
0.610632
0.672269
0.413345
0.937059
0
1.13367
0.296058
0.33339
0.335844
0.561396
0
1.08052
0
0.41396
0.425777
0.132231
0.922274
0.289982
0.954244
0.400082
1.04464
0.715454
0.403505
0.641767
0.836026
0.553841
0.593599
0.548036
0
0.500082
0.179492
0.448262
0.630806
0
0.135962
0.260994
0
2.06405
0.530833
0.566934
0.376836
0.51127
0.573061
0.601229
0
1.14105
0
0
0.852137
0.325105
0.835079
0.346357
1.07463
0.288465
0.898916
0.467604
1.25807
0.384502
0.853211
0.600324
0
0.318705
0
0.618256
0.577185
0.973883
0.558768
0.939488
0.512642
0.533851
0.356391
0
0
0.533312
0.295085
0.491303
0.70609
0.617347
0
0.445604
0.482657
0.199861
0.737162
0
0
0.670129
0
0.430841
0.834325
1.04288
0.258205
0.0941582
0.430627
0.401598
0.618695
0.55718
0
0.508844
0.602935
0.524824
0.905646
0.502931
1.668
0.563362
0
0.515729
0.412721
0
0.862405
1.1804
0.519012
0.480785
0.738861
0
0.72079
0.895534
0.511127
0.482513
0
0
0.771272
1.31219
0.655503
1.10417
0.698317
0.367315
0.799416
0.976028
0.309938
0.542733
0
0
0.0629518
0.879179
0.144469
0.349725
0
0.455809
0.33555
0.371242
1.36434
0.356582
1.22265
2.20829
0
1.15809
0.51543
0
0.268872
0.334885
1.00802
0.75742
0.309033
0.341437
0
0
1.37868
2.04035
0.44007
0
0.570584
0.684727
0.90853
0.332011
0.678282
0.383039
0.346407
0.343846
0
0.341845
0
0.536231
0
1.22899
0.945063
0
0
0.506325
1.31122
0.627677
1.64056
0
0.641306
0
0.728741
0
0.377031
0
0
0.498834
0.350817
0.462017
0.693798
0.802116
0.286289
0.232551
0.674718
0.262952
0
0.597338
0.570528
0.579812
0
0.346406
0.362123
0.564947
0
0.678584
1.27271
0.881086
0
0.945473
0
0.982584
0.776319
0
0.676713
0
0
0.347248
0.35571
0.977927
0
0.413649
0
0.343048
0
0
0.930964
0.722653
0.620715
0
0.653079
0.727276
0.783135
0
0.438834
0.518151
1.66516
0.641494
0.49562
0.630177
0.405773
0.802971
0.916925
0.224663
0.135818
0
0
0.363052
0.379536
0.945888
0.626385
0.514513
0
0.500892
0.595232
0.716737
0.453788
0.394035
0.720821
0.223772
0.644434
0
0.385673
0.701604
0.291123
0.410924
0.758495
0
0.72312
0
0.675626
0
0.403515
0.660818
0
0.612507
0
0.559216
0.502254
0.424036
0
0.565634
0.750811
0.349911
0.603824
0.287963
0.343283
0.745742
0.436839
0
0.494551
0.675825
0.83168
0.961757
0.502282
0.343613
1.50381
0.941042
1.66328
0.816334
0.739568
0.921237
0.442178
0
0
0.791984
0.752318
0.812335
0.637101
0
1.73057
0.928464
0
0
0.684879
0
0
0.524907
0.474874
0
0.592959
0
0.565691
0
1.261
0
0.790475
0.699069
0.814934
0.339657
0.292305
1.05703
0.64358
0.889854
0
0.444089
0
0.942455
0.709253
0.534502
0.619787
0.449933
0.271495
0.369539
0.468137
0.672478
1.09636
0
0.823017
0
0.603089
0
0.691937
0.765869
0
1.11677
1.48509
0.562764
0
0
0
0.380094
0
0.564845
0.437329
1.16836
0
0.869221
0.839075
0.760058
0.640426
1.06662
2.73308
0.797173
0.409015
1.857
0.417865
0.395978
0.570772
0
0.898016
0.584672
0.527711
0.453487
0.847545
0.565423
0.393656
2.10264
1.33914
0.489221
0.395007
0.51959
0.395181
0.319392
0.789024
0.719461
1.78373
0.749633
0.456287
0.867215
0.204169
0.766218
0.819897
0.626549
0.891711
0.830831
1.52452
0
0
0.753275
0.239172
0.408322
0.230613
0.155656
0
0
0.601417
0
0.505944
0.590534
0.32502
0
1.03672
0.833398
0.292243
0.433594
0.515172
0.574028
0.497778
2.44762
0
1.57764
0.842905
0.566407
0.737149
0.516973
0.824905
0.441286
0
0.498278
0
0
0
0.454911
0
0.524614
0
0.316717
0
0.612792
1.62133
0.489366
0
0.604524
0.925335
1.14174
0
0
2.27617
0
1.21674
0
1.12979
0.620155
1.46896
0.939677
0.557488
0.404071
0.265674
0.906015
1.26704
0.447589
0.417011
0.834436
0
0.974897
0.890628
0.217608
0.736706
0
0.463884
0
0.917117
0.389874
0.958696
0
0.573918
0
0
0.417706
0
0.832327
0.582081
0.321288
0.488031
0.887427
0
0.576552
0
0
0.339513
0.537242
1.56271
0.408013
0
0.939443
0.59587
0.809611
0
0
0.42594
0.593147
0.728082
0.222421
0
0.300776
0
0.817159
1.67487
0.781865
0
0.379303
0
0
0.390954
0.627891
1.01195
0.759603
0.760848
0.408301
0.595897
0.678036
0.810087
0.605994
0.64256
1.26488
1.21072
0.644767
1.27663
0
0.391251
0.565351
0
0.343444
0.800042
0.498207
0.250214
0.618846
0
0.61651
0.528623
0
0.225418
0.183121
0
0
0.276354
0
1.25284
0.726149
0.661105
0
0.879124
0.896093
0
1.03579
0.578888
0.487345
0.554147
0.428283
0.452771
0.600372
0
0.844424
0.513242
0
0.967955
1.01736
0.327702
0.329992
0.496288
0.456474
1.60696
0
0.160413
0
0.852389
2.32855
0.539203
0
0.592143
0
0.789242
0.484542
0.608032
0.323893
0.284609
1.63445
0
0.448456
0.887363
0.529613
0.390761
0.13652
0.296229
0.352352
0.465095
0.79508
0.440165
0.462937
0.916128
1.50231
0.949552
0.442249
0.640144
0.427455
0
0.701534
0.496746
0.783221
0.812084
0.738404
0.875051
0
0
0.678612
0.700197
0.364013
0.523697
0.794686
0.863339
0.866465
0.665202
0.5678
0
0.516186
0.258014
0.349926
1.22664
0
2.13057
0.54049
0.944025
0.116177
0.857721
0.991192
0.556221
1.0293
0
0
0.409534
0
1.02341
0.665094
1.0848
0.117732
0.939953
0.894288
0.736616
0.836759
0.343468
0
0
0
0.593659
0
0.757158
0.469071
1.18353
2.07535
0.732311
0
0.142545
0.953496
0.922089
0
0.739797
0
0
1.27282
0.769627
1.38818
0.33448
0.910629
0
0.616453
0.481053
0
0.889614
0.978426
1.06579
2.33214
0.784264
1.02718
0.326176
0.388739
0.534691
1.22691
0.624601
0
1.01071
0.868738
0.832569
0.911497
0.759198
0.46533
0.448754
0
0.718485
0
0.561485
1.10164
1.02906
0.532292
0.294016
1.51544
0.838298
0.518716
0.640576
0.386102
0.335161
0
0.720155
0
1.09982
0.376971
1.1671
0
0
0.782099
0.368032
0.508776
0
0.968352
0
0.748397
1.30563
0.583378
0.386774
0.695557
0.585364
0.434256
0.803187
0
0
0.516049
0
0.237677
0
0
0.561645
1.13582
1.67012
0
0
0.784285
0
0.57079
0.586379
0.63988
1.5752
1.41693
0
0.440533
1.12837
0.853509
0.832099
0
0.0957179
0.549132
0.85305
0
0.306297
0.451843
0.530704
0.547527
0.705064
0
0.807406
0
0
0.684262
0.36009
0
0.968028
0.748028
0.440163
0.662287
0
2.5759
1.05032
0
1.14708
1.35031
1.14971
0.887963
0.36755
0
0.547889
0
0.510018
0
0.676189
0
0.529683
0.275015
0
0.615381
0
0.478175
0
0
0.989203
1.29768
1.13585
0.488123
0.923533
0.569972
0
1.00784
0.480445
0.57204
0.37445
0.640113
0.696969
1.16092
0.626066
0.635802
0.720677
0.76121
0.646671
1.09852
0
0.537991
0
0.784364
0.270029
0.651946
0
0
0.848763
0.688117
1.46427
0.815341
1.75906
0.914085
0.917855
0
0
0
0
0
0
0
0
0
0
0
0
0
0
0
0
0
0
0
0
0
0
0
0
0
0
0
0
0
0
0
0
0
0
0
0
0
0
0
0
0
0
0
0
0
0
0
0
0
0
0
0
0
0
0
0
0
0
0
0
0
0
0
0
0
0.208426
0.435546
0.877653
0.549117
0.939718
2.03184
0.737136
1.19281
0.251528
0.35396
0.514294
0.41428
0.500317
0.368206
0.526636
0.695521
0.294449
0.789041
0
0.328286
0.446273
0
0.606928
1.17656
0.203857
0.690604
0.690735
0.318964
0.325761
0
0.509614
0.941844
0.953809
0.548663
0
0.412796
0.353756
0
1.26996
0.249373
0.105814
0.314795
0
0.785306
0.84877
0
0.24585
1.04144
1.33877
0.339475
0
0.365719
0.366041
0
1.12515
0.634406
0.227665
0.698251
1.52032
0.849902
1.79673
0
0.12635
0.479534
0.581029
0.786006
0.629059
0.732215
1.04862
0.71794
0.742381
0.648105
0.811051
1.00216
0
0.500574
0.669473
0
0.644166
1.55472
0.584918
0.664994
0.485174
0.81196
1.35384
0
0.466347
0.566403
0
0.55699
1.1225
0.616863
0.496923
0.228453
0.457842
0.559394
0.437105
0.619849
0.838525
0
0
0.323546
0.755494
0.865488
0.142535
0.932565
1.02787
1.31208
0.396035
0.601862
0
1.10027
0.685125
0
0.285134
0
0.553906
0.399398
0
0.798355
0.853409
0.664347
0.573167
0
0.603057