<?xml version="1.0"?>
<VTKFile type="RectilinearGrid">
<RectilinearGrid WholeExtent="0 32 0 32 0 32" Origin="0 0 0" Spacing="1 1 1">
<Piece Extent="0 32 0 32 0 32">
<PointData>
</PointData>
<Coordinates>
<DataArray type="Float32" format="ascii">
0 0.524874 1.04975 1.57462 2.0995 2.62437 3.14924 3.67412 4.19899 4.72386 5.24874 5.77361 6.29849 6.82336 7.34823 7.87311 8.39798 8.92285 9.44773 9.9726 10.4975 11.0224 11.5472 12.0721 12.597 13.1218 13.6467 14.1716 14.6965 15.2213 15.7462 16.2711 16.796 
</DataArray>
<DataArray type="Float32" format="ascii">
-5.03879 -3.62163 -2.20447 -0.787311 0.629849 2.04701 3.46417 4.88133 6.29849 7.71565 9.1328 10.55 11.9671 13.3843 14.8014 16.2186 17.6358 19.0529 20.4701 21.8872 23.3044 24.7216 26.1387 27.5559 28.973 30.3902 31.8074 33.2245 34.6417 36.0588 37.476 38.8931 40.3103 
</DataArray>
<DataArray type="Float32" format="ascii">
0 0.524874 1.04975 1.57462 2.0995 2.62437 3.14924 3.67412 4.19899 4.72386 5.24874 5.77361 6.29849 6.82336 7.34823 7.87311 8.39798 8.92285 9.44773 9.9726 10.4975 11.0224 11.5472 12.0721 12.597 13.1218 13.6467 14.1716 14.6965 15.2213 15.7462 16.2711 16.796 
</DataArray>
</Coordinates>
<CellData>
<DataArray type="Float32" Name="Scalar" format="ascii">
0
0
0
0
0
0
0
0
0
0
0
0
0
0
0
0
0
0
0
0
0
0
0
0
0
0
0
0
0
0
0
0
0
0
0
0
0
0
0
0
0
0
0
0
0
0
0
0
0
0
0
0
0
0
0
0
0
0
0
0
0
0
0
0
0.360525
0.324689
0
0.36001
0.325141
0.650193
0.335833
1.56053
0.214602
0.298525
0
0.257153
0.236931
0
0.255012
0.546249
0.127967
0.180132
0
0.308587
0.248697
0
0.294751
1.22051
0.243128
0.369383
0
0.235285
0.312482
0
0.406459
2.07958
0.104865
0
0
0.412374
1.07763
0
0.140915
0
0.99543
0.230495
0
2.15622
0.323365
0
0
0.28904
0.063029
1.81733
0
0.138488
0.573578
0
0.184554
0
0.517136
0.121439
0
1.46314
0.182755
0
0
0.548414
0
0.390004
0
0.447366
0.722813
0.310235
0.655253
0.63296
0.429013
0.552692
0.256082
0.928952
0.814479
0.368154
0.195118
0
0
0.364382
0
0.662013
0.996097
1.0263
0.739622
0.490882
0.650312
0.223168
0
1.67367
0
0.48
1.29374
0.442731
0.44644
0.526458
0.604207
0.558772
0
0.83184
0.931185
0.927533
0
0
0
0.341829
0
0.522211
0
0.351462
0
0.407266
0
0.645451
0.836023
0.146681
0.0593094
0.185151
0.340285
0
0.424319
0.454956
0
0.720475
0
0.57225
0.192214
0.239486
0
0
0
0.873969
0.267961
0.435797
0.31691
0.384675
0.604091
1.51359
0.575839
0.461014
0
0.865509
0.199005
0.761394
0.306743
0
0
0
0.322665
0
0.627562
0.706286
0
0.11985
0.450096
0.818726
0.487373
0.490308
0.613209
0.463259
0.544442
0.705261
0.373059
2.17222
0.297615
0
0.710349
0.476033
0.735438
0
0.560192
0
0
0
0.677787
0
0.748954
0
0.274445
1.2205
0.241594
0
0.628716
0.497058
0.554042
1.04956
0.947127
0.709442
0.507941
0
0.618737
1.25614
0.514395
0.522876
0
0
0.683629
0
0.316064
0
0.122174
0.338509
0.236657
0.476137
0
0
0
0.998315
0.575223
0.806832
0
0
0.316573
0.520553
0.701572
0.863995
0.767848
0.291373
0.584098
0.759881
0.713799
0
0
0.583097
1.35972
0.468817
0.808449
0.486342
0.376202
0
0.732589
0
0.632051
0
1.01217
0
0
0
0
0.487097
1.28692
1.25664
0.460969
0
1.34259
1.47779
0.998471
1.19818
0.427797
0
0.340976
0.115111
0.481149
1.05885
0
0
0.715594
0.442423
0.798115
0
0
0.437701
0.832762
0.368211
0.225501
0
1.62303
0
0.546465
0.454666
0.87548
1.31383
1.1048
0
0.382983
0
0
0.752563
0
0
0.420281
0.261926
0.471687
0
0
0.477627
0.782729
0.727135
0.334834
0.323037
0
0.463741
0
0.687561
0.279337
0.709768
0.694
0.713198
0
0
0
0.451078
0
0.55309
1.17317
0
0.712169
0
0
0.480467
0.451302
1.06307
0.985648
0
0
0.494024
0.366883
0.412287
0.529155
0.398516
0
0.267136
0
0.895882
0.913206
0.990484
0
0.918323
0.513145
0.792246
0.977
0.671678
0.635717
0
0.434667
0.624624
0
0.450047
0.213435
0
0
0
0.682045
0.423671
0.598024
0
0.376593
0.203987
0.42282
0
0.890093
1.23466
1.37206
0.644529
0
0.725357
0.723361
0.254423
0.392869
0
0.684945
0.652036
0
0.454045
0
0.469744
0.597813
0.371226
0.835303
0.658084
0.689606
0.684848
0.969124
0.485085
0.915048
1.13
1.04038
0.633383
0
0.449573
0.238991
0.404043
0.471688
0.563903
0.845243
0.552886
0.2869
0.393239
0.273286
0
0.894676
0
0.589776
0
0.224307
0.689963
0.598208
0.507379
0
0.589259
0.169674
0.383061
0
0.294887
0.996377
0
0.56399
1.28459
0.963037
0.743323
0.860332
0.92163
0
0.694706
1.26586
1.18901
0
0.755259
0.645459
1.20451
0
0.186868
0.751778
0.723514
0.511008
1.06652
0.676528
0.367156
0.537175
0.80339
0
0.618125
0.514436
0.441662
0.459582
0.348939
0.90831
0.647275
0.249246
0.713494
0.102452
0.710807
0
0.640057
0
1.00794
0.783852
0.159451
0.376211
0
0.817612
0
0.358476
0.252976
0.642412
0
0.985203
0
0.632384
0
0
0.843586
0.379333
0.728521
0
0.299267
0.277543
0
0.398895
0
0.911322
1.32736
0.647511
0.85102
1.74219
0.348485
0.520712
0.578484
0.237144
0.929133
0.43806
0.363818
0
0.511066
0.410323
0
0.446503
0
0.621036
0
0.446156
0
0
1.0813
0.785656
0
0.147558
0
0
0.917898
1.03878
1.22622
0.861468
0
0.671314
0
0.821308
0.803062
0
0.479178
0.653436
0.8966
0
0.676826
0.453005
1.13259
0.532761
0.570972
1.27815
1.20641
0.95198
0.632159
0.361031
0
0.70804
0
0.18
0
0.831395
0
0.369398
1.18963
2.28644
0
0
0.718791
0.355024
0.496304
0
0
0
0.392089
0.950672
0.985275
1.01737
0.6821
0
1.31535
0.847516
0.557491
0.337999
0.728455
0.539169
0
0.549865
0
0.250233
0
0.939725
0
0.409922
0.578329
0
0.549719
0
0.325829
0
0.328898
0.602363
0.711667
0.863545
1.20183
0
0.615865
0
0.994321
0.446587
0.990886
0.571546
1.36467
0
1.01655
0.740251
0
0.216533
1.63075
0.879771
0
0
0.699613
0
1.24795
0
0.730417
0.663723
1.21102
0.714818
1.2709
0.456851
0.914366
0.441603
1.21737
0.506386
0.860105
0.297167
0.310451
0
0.980165
0.717933
0.419541
0
0
0.395409
0.330566
0.39516
0.181229
0
0.709791
0.480594
0
0.767473
0.831284
1.17765
0
0.894268
0.993358
0.539364
0.657461
0.297531
0.461499
0
0.301004
0.279337
0
0.680134
0.444894
2.44443
0
0.926982
0.726575
0.637776
0.726882
0
0.502163
0
0.476061
0.545579
0.5398
0
0.758187
0
0.629162
0.686379
0.562994
0.390105
0.552817
0.4622
1.11502
0.824675
0.21919
0
0.732848
0
0.412535
0
0
1.07293
0
1.36018
0.522176
0
0
0.433513
0.581737
0.384002
1.67561
0.784483
0
0.244522
0
0
0.710258
1.012
0.622876
0.267546
1.11517
0.736369
0.446712
0.453567
1.15325
0.264616
0
0
0.390097
0.595341
0.725385
0
0.579188
0
0
0
1.22625
1.17268
0.418778
0.207194
0.456338
1.06764
1.06889
0.173184
0.486097
1.63349
1.21992
0.802773
0.918554
0
0.595985
0.598788
0.0705276
0
0.389904
0.268263
0.376035
0.246669
0
0
0
0.946123
0.907725
0
1.25801
1.08265
0.545384
0.663577
1.11032
0
0.894334
0.605516
0.912791
2.06797
0.798119
1.51648
1.11552
0
0.459146
1.07129
0.6868
0.722606
0.982821
0.828974
0
0.338049
0.950442
0.692917
0.948544
0.411383
0.718256
0.329393
0
0.857894
0.67575
0
0.396075
0.734217
1.08165
0.721523
2.63006
1.87593
1.67662
0
0
0
0
0.671095
1.26758
1.03963
0.72882
0
1.08323
0.353909
1.49637
0
0.484891
0.749199
0.510639
0.239477
0.997132
0.447038
0.605355
0.853167
0.653304
0.80119
0.969283
0.421628
0
0
0.254363
0
1.35475
0.555747
0
0.533827
0
0.854124
0
1.27116
0
0.265752
0.423581
0.452951
0.482245
0
1.17295
0.674844
0
0.704895
1.44707
0.639594
0.553185
0.38244
1.13275
0.633275
0
0.740745
0.479399
0.751621
0.65492
0
0
0.464747
0
0
0.44344
0
0.852014
2.32901
1.50466
0.822443
0.380479
0.429259
0
0
2.0064
0.681048
0
0
1.88464
0.851823
1.30963
0.899214
0.863532
1.02414
0.683581
2.62149
0.900147
0
0.657912
0.7541
0.829428
0.485933
0.912751
0
0.439151
0.511665
0.784658
0
0.65669
0.402018
0.434241
2.18212
1.36908
0.768593
1.11525
0.884387
4.42727
0.979946
0.326244
0.685821
0.87574
0.549528
1.14931
1.03979
0
1.48133
0
1.81553
0.819234
0.82272
0.826412
0.70778
0.87377
0.596444
0.435111
0
0
0.643658
1.62237
0
0.719225
0.888401
0.264182
0.684421
1.43228
0
0.423363
0.533664
0.96563
0.66919
0.556492
0
0.699467
0.918432
1.02812
0.90079
0.742996
0.817837
0.652091
0.455148
0.718889
0.396938
0.550437
0.174034
0.739592
0
0.42209
1.01925
0.562342
0
0
0.747902
1.27162
0.47938
1.59897
1.38661
0.956815
0.368651
1.2472
0.560681
0.326487
0.834816
0.754505
1.11927
0
0
0.270461
0.426798
1.98351
0.643764
0.304666
1.78544
1.84754
0.617742
1.09621
0.713829
0.58715
0.826356
1.32818
0
1.17958
0
0
0
0
0
0
0
0
0
0
0
0
0
0
0
0
0
0
0
0
0
0
0
0
0
0
0
0
0
0
0
0
0
0
0
0
0
0
0
0
0
0
0
0
0
0
0
0
0
0
0
0
0
0
0
0
0
0
0
0
0
0
0
0
0.393901
0.708113
1.24508
0.407157
0.320717
0
0.465312
1.18417
0.360129
0.450659
0
0.453957
0.343776
0
0.386319
1.25727
0.220409
0.71918
0
0.439241
0.473893
0
0.482909
1.49448
0.410949
0.695676
0
0.403079
0.49492
1.00602
0.42681
1.21499
0.566904
0.241945
0
0.535967
0.345316
0
0.561672
0.240432
0.0742549
1.07007
0
0.227623
1.77863
0
0.474033
1.14186
0.906431
0.319502
0
0.787025
0.234989
0
1.43313
0.599651
0.192302
1.1457
0
0.473607
1.20462
0
0.521833
0.982475
0.435807
0.390617
0.350329
0.450768
0.636507
0
0.580314
0.810479
0.642719
0.400346
0
0.491668
0.271419
0.436123
0.58912
0.320015
0.54084
0.715866
0.228451
0.456305
0.884174
0.183517
0.836296
0.453715
0.406066
0.76444
1.07025
0.950478
0.741359
0.704822
0.240521
0.962672
0.725191
0.970006
0
0.253658
0.509088
1.10861
0.704186
0.0569242
0.691741
0.456545
0.346514
0
0
0.616001
0.684299
0.226842
0
1.00035
0.802929
0.627433
0.342676
1.06071
0.676445
0.97036
0.527705
0.410387
0.721184
0.809421
0.363524
0.439063
0.518122
0.914292
0
0.287621
0.299018
0.748219
0.248216
0
0.713623
0.377472
0.550892
0.251775
0
0.661247
0.582895
0.370445
0.827711
0.563997
0.482787
0.256419
0.564709
0.42556
0.34843
1.82612
0.245635
0
0.779753
0
0.504009
0.71873
0
0.912277
1.06824
0
1.56419
0.877956
0.64147
0.749824
0
0.586722
0
0.376618
0
0.730188
0.557523
0
0.705769
0
0.37569
0
0.550721
0.431996
0.989842
0
0
0.585699
0.877093
0.667539
0.347865
0.520567
0
0.767288
0.997927
0.434682
0.472134
0
0.295618
0.10065
0.642034
0.711631
0.671613
0
0.238953
0.0951051
0.276947
0.655124
0.1101
0.405854
0
0
0.426561
0.497531
0.771676
0.191829
0.602034
0.666405
0.916392
0.483232
0.833261
0.464788
0
0.275632
0.444238
0
0.595033
0.224735
0.477377
0
0.488717
0.474043
0.677192
0.574758
0.963366
0.29491
0.650862
2.30437
0
0.304569
0.569239
0
0.486464
0
0.445383
0.532782
0.93037
0
0.282998
0.397213
0.901072
1.02156
0.881173
0
1.14042
0.581776
0.409874
0
0.459102
0.425427
0.555955
1.15238
0
1.31246
0.896847
0
0
1.00618
0
0.442205
0
0
0.515542
1.03548
0.577407
0.912957
1.027
0
0.915193
1.01431
0.50013
0.84226
0.712988
0
1.01371
0.511992
0.569348
0.49418
0
0.366824
0.310684
0.201761
0.317781
0.310084
0
0.532476
0
0.372782
0.511464
0.579899
0.581791
0.228212
0.282977
0.377778
0
0.770005
1.02984
1.49778
1.79651
1.04936
0.660927
0
0
0.515874
0
0.878028
0.530147
0.655671
0.895448
1.40161
0.168487
0.694956
0.354099
0.757547
0
0.694987
0.569585
0.79655
0.695014
0.663887
0.91867
0.229119
0.497552
0.546171
0.449129
0.563115
0.283302
0.425851
0.609314
0
0.486269
0.721063
0.546085
0
0.866211
0.427179
0.599917
0.877542
0.696611
0.846228
0
0
0
0.499974
0.591287
0.892594
1.16574
0.273002
0.294447
0.71788
0.895521
0
0.616631
1.17064
0.341724
0.267387
0.421317
0.304221
0
0.541406
0.448165
0
0.394106
0
0
1.13645
0.792438
0.71405
1.0586
0.639726
0.709364
0.52581
0.823291
0.616883
0.434824
0
0.558827
1.48016
0.939816
0.643528
0
0.443858
0
0.578846
0.878469
0
1.25889
0.467502
0
0
0
0.375873
0.806752
0
0.650849
0.910304
0
0.732529
0.264466
0.612518
0
1.30708
0.856075
0
1.05777
0.372608
0.474879
0
0.730101
0.813625
1.31528
0.593083
0.43125
0
0.653334
1.04068
0.991057
0.296779
0
0.627078
0
0.216722
1.32808
0
0
0.569501
0
0.64249
0.196618
0.513211
0
0.55078
0
0.430307
0.518807
0
0.224038
0
0
0.575269
0.376719
0.669947
0.587577
1.04545
1.24248
1.34352
0.443089
0.45659
0.279588
0.544569
0.746116
0
0
0.633224
0
0.460503
0.684196
0.530585
0.24447
0.90416
0.675759
0
0.880789
0.746893
0.966925
1.01163
0
1.1754
0.519
0.435343
0
0.463326
0.745345
1.20801
0.563793
0.341475
0.426962
0.438965
0.861121
0.209006
0.424646
0
0.348543
0
0.748707
0.805397
0.444062
0.466667
1.06663
0.299445
0.693379
0
0.712494
0
0.445454
0.0554178
0.470565
0.548899
0.888297
0
1.00074
0.983168
1.19452
0.547117
1.54092
0
0.631377
0
0
1.36648
0
0.68097
0.256978
0
0.60454
0.209974
0.316907
0.938903
0.577301
0
0.588548
0.668537
0.60472
0
0.591167
0.978352
0.608255
0
0.539536
1.05301
0
0.648527
0
0.283814
0.483814
0.677232
0.617935
0.65299
0.63191
0.527915
0
0.798699
0.480543
1.24929
0.89169
0.904824
0
0.904841
0
0.450731
0
0.772512
0.734525
0.632003
0.467224
0.571356
0
0.292686
0
1.0808
0.667421
0.606319
0.618301
0.477538
0
1.2735
0.849095
0
0
0.510101
0.595861
0.54848
0.459925
0.0754857
0.658516
1.16936
0.518117
1.25098
0.631645
0.398839
1.85507
0
0.425906
0.683056
0.930679
0.510092
1.10726
2.95411
0.971712
1.71572
0.623306
0.316359
0
0.374379
0.733379
0
0.471924
0.537103
0.476793
0.683776
0
0.531373
0.168615
0.44306
0.563227
0
0.711879
0
0.765113
0.399665
0.839831
0
0.727931
0.562011
0.548089
0.508926
0.380732
0
0
0
0.839999
0.568031
0.63148
0.912347
0.608938
0.193669
0.537563
0.334098
0.462366
0.272618
0.27372
0.513166
0
1.08288
1.54926
0.662884
0
0.656097
1.06435
0.444163
0.339686
0.667267
0.464985
0.235486
0.225583
0
0.974776
0
1.46155
0.407833
0.328224
0.468183
0.695781
0.374886
1.26215
0.606379
0.524558
0
0.529883
0.536645
0.597617
0
0.341913
0.448984
0.679915
0.832113
0
0.671592
0
0.877596
0
0
0.560875
0.390453
0.313524
0.604595
0.787771
0.513317
1.04523
0.588917
0
0.627067
0
0
1.02461
0.652737
0
1.31807
0.439513
0.188858
0.685935
0.521534
0.796874
0.795151
0.531374
0
0.829467
0.769594
0.591449
1.22799
0.514208
0.937906
0.500087
0
0
1.09036
0
0.64312
1.09895
0.778391
1.20471
1.08587
0.269367
0
0
0
0.696087
0
0
0.420159
0.361185
0.277383
0.578066
0.202657
1.5632
0.676526
0.822806
1.31033
0.758785
0.78124
1.6384
0.838898
0.762274
1.20216
0
0.912171
1.04567
0.497536
0
0.678996
0.218672
1.02595
1.11308
0.494041
0.590216
0.478757
0.741665
1.1779
1.07271
1.00091
0
0
0.843927
0.495283
0.835699
0.737411
0.810322
0.555293
0.725631
0.681779
0.831841
0
0.94385
2.23912
0
0.807854
0
0.279135
0.36232
0.831837
0
0.536223
0.617344
1.56569
0
0
0.409288
0.579832
0.807699
0
0.563154
0.819861
0
0.193526
0.615021
0
0.409799
0.402017
0.735478
0
0
0.778109
1.67929
1.05221
0.324725
0.881955
0.380259
1.19041
0.829704
0.883453
0.792813
0.634891
1.73356
0.750892
0.482177
0
0.392731
0.503154
0.225179
0.706395
0.346406
0.735259
0.547203
0.479815
0.851983
0
0.146517
0.445475
0.287395
0.690031
0
0.38054
0.334672
0.671655
1.04925
1.24812
0.568413
0.686424
0.403066
1.56984
0.683379
0.33816
1.40558
0
3.01403
0.450175
0.554443
0.454645
0.277986
0
0.217916
0.450026
0.431751
0.403827
1.4478
0.534037
0.718972
1.07995
0.50405
0.835458
0.897286
1.20663
0
0.286567
0
1.40725
1.32995
0
0.417003
0.587332
0.710549
0.7546
0.721025
0.920299
0
0.436661
1.74721
0.767103
0
0.31193
0.849663
1.12062
0.569212
0.681711
0
1.45764
1.12525
0.924527
1.65417
0.313052
0.570218
0
1.94241
0
0.325099
0.836686
1.10523
0.62703
0
0.538706
1.21847
0.556592
0.317233
0.862283
0
1.0978
0
0.858488
0.729746
0.976772
0.419765
0.800615
0.985858
0.352234
0
0.508177
0.722066
0
1.07535
0.786731
0
0.583274
0
0.40267
0
0.873574
0.687934
0
0.867088
0.807658
0.883194
0.78076
0
0.298531
0.886722
0.888952
1.47429
0
0.751815
0.800127
0.789994
0.930196
1.3175
0
0
0.988535
0.5758
0
0.343293
0
0.609464
0.720958
1.04015
1.20879
0.898235
0.417696
0.850743
0
0.211374
0
1.44163
0.551194
0.396167
1.17203
0.475523
0.92388
0
0
0
0
0
0
0
0
0
0
0
0
0
0
0
0
0
0
0
0
0
0
0
0
0
0
0
0
0
0
0
0
0
0
0
0
0
0
0
0
0
0
0
0
0
0
0
0
0
0
0
0
0
0
0
0
0
0
0
0
0
0
0
0
0
0
0
1.65914
0
0
1.03215
0
0.957596
0
0
0
0
0
0
0
0
1.96557
0
0
0
0
0.528007
0
0
0.81375
0
1.13836
0.716447
0
0
0
0
0
0
0
0
0
0
0
0
0
0
0
0
0
0
0
0
0
0
0
0
0
0
0
0
1.00918
0
0
0
0
0
0
0.639572
0.281907
0
0.243295
1.23625
0
0.444314
0.552206
0.473138
1.44723
0
0.148319
0.611368
0.239194
0
0.598384
0.421513
0.400025
0
0
0.719621
0
0.311613
0.752137
0
0.174463
0
0.937212
0.47067
0
0.558644
0.207353
0.186633
0.797503
0.235368
0.739232
0
1.04074
0.724118
0
0.666009
0.496838
0
0
0.309447
0
1.2676
0
0.726382
0
0.698507
0
0.446602
0
0.33197
0
0
0.397293
0
0
0
1.01205
0.498432
0.810996
0.212753
0
0
0.144365
0
0.811203
0.645688
1.11701
0
0
0.485299
0.329051
0.622504
0
0
0
0.328805
0.631964
0
0.482629
0.536315
1.48087
0
0.561667
0.323945
0.918475
0
0.451173
0.407421
0.872593
0
0.686505
0.503854
0.951793
0.229524
1.1585
0
0.610407
0
0.708511
0
0.655734
0
0.475764
0.470679
0.468778
0
0.956329
1.18912
0.507683
0.398344
0.467024
0.617524
0
0.633486
0.52643
0.103048
0.984163
0
0.832884
0.655437
0
0.412934
0.629436
1.04382
0.340621
0
0.535292
0
0.678719
0.492504
0.689308
0
0.377777
0
0
0.361245
0
0.269258
0
1.2785
0.290897
0.646026
0.242151
0.735667
0.665982
0
0.827743
0
0.76
0
0
0.765992
0
1.18944
0.648031
0.144514
0.444363
0.320398
0.809468
0.882465
2.08128
0.133031
1.30659
0.516799
1.282
1.16211
0.516347
1.18552
0
0.195494
0.560232
0
0.579164
0
0.651688
0
0.700879
1.49959
0
0.496074
0.121551
0.474437
0
0.665654
0.738934
0.753405
0
0.811486
0.791955
0.454051
0.446482
0.273485
0.612174
0
0.279259
0.577082
0.682221
0.566633
0
0.57952
0.835038
1.13026
0.5614
0
0.463439
0.522564
0.407772
0.439248
0.367716
0.284256
0
0.214792
0
0.711022
1.29413
0.910122
0
0.286842
0
0
0.956349
0
0.74967
0
0.523093
0
0.37241
0
0.567422
0.745626
0.461646
0.634601
1.34298
1.29118
0.436921
0.512004
0.53337
0.980323
0.639935
1.04158
0.628506
0.721933
0.857626
1.79964
1.68845
1.13747
0
0
0.435333
0.415882
0.905004
0.993956
0.559199
0.467687
0.793033
0.790259
0.758338
0.869058
1.32742
1.55623
0.411703
0
0.475841
0
1.07203
0.614816
0
0.798024
0.858682
0.12104
0.420097
0
0
0
0.530978
0.1614
0.484224
0.535144
0
0.536574
1.26877
0.560404
0.628376
1.11622
0.87959
0.33706
0.591084
0.892376
0.799146
0.897669
0.453359
0.0643648
0
0.544648
0
0.553359
0.496438
0.522677
1.31515
0.978254
0.676455
0.462007
1.63886
0.686586
0.156311
0.333453
0
0.543907
0.999997
0.490626
0
0
0.415882
1.30324
0
0.854385
0.502362
0.834778
0
0
0.364047
0
0
0.396897
0.293533
0.464911
0.335274
0
0.59145
0
0.656532
1.43949
0.505403
0
0.429211
0
0.538935
0.813373
0.602312
0.389631
0.317412
0.117931
0.543937
1.05806
0.878644
1.10758
0.810888
0
0.437319
0
0
0.390134
0.613317
0.5205
0
0.198046
0.517892
0.436705
0.412682
0
0
0
0.64563
0.425397
0.39749
0.446958
0.260357
0.528547
0.688856
0.484288
0.77124
0.265349
0
0.768137
0
0.733155
0
0.695211
0.537958
1.52762
0.523882
0.952679
0.716505
0
0.889866
0
0.618046
0
0
0
0.246801
0.315707
0
0.538657
0.811532
0.544133
0.357837
0.544997
0
1.87019
0.595832
0.650913
0.874248
0
0
0.512476
0
0.465254
0.101578
0
0.34744
0.82135
0
0.649411
0
0.73346
0.494928
0
0
0.335303
0.561477
0
0.626206
0
0.760772
0
0.402323
0.815208
0.748626
0.844689
0
0.244723
0.791812
1.00088
0.721017
0.278831
1.28297
0
0.550727
0.487363
1.09511
0.58853
0.388834
0.762149
0
0.484861
0
0
0.571025
0.413321
0.444493
0.542849
0
0.819569
0
0.552453
1.73329
0.448558
0.914987
0
0.929829
0
0.373886
0
0.704377
0
0.698616
0.713848
0.578129
0.387778
0.501574
0
0
0
0
0
0.379528
0
0.458306
0.567308
0.856264
0.151554
0.853937
0.667084
1.34903
0.386437
0.572789
0.502785
0.352015
0
1.26434
0.788368
0.653226
2.83717
1.17437
0
0.503396
0.60892
0.862914
0
1.00924
0.752168
0.581873
1.043
0
0.511257
0.663458
0.622127
0
0.260761
0.96073
0
0
0.641429
0.698819
0.740035
0.803529
0
0.227325
2.47015
1.68071
1.15164
0.729004
0.975415
0
0.801885
1.16698
0.760387
0
0
0.819851
0.922875
0.414825
0.451213
0.391795
0.6895
0.426723
1.05522
1.39138
0.354453
0.565659
0.36149
0.577204
0
0
0.36858
0.2738
0
0
0
0.353852
0.688025
0.501642
0
0.650086
0
1.03394
0
0.809844
0.488421
0.423858
0.493456
0
0.409028
0.289496
0.43862
0
0.161683
0.0492326
0.424899
0
0
0.739899
0.593707
0
0
1.2561
0
0.269591
0.844552
0.590804
0.374455
0
0.576731
0
0.47686
0.778209
0.541474
0
0
0.37718
0.536094
0
1.24941
1.56919
0.642114
0.695329
0.449182
0.785604
0
0
0.422145
0.357869
0
0.735822
0
2.44011
0.712972
0
0.670811
0
1.15118
0.288934
0.529382
0
0.390533
0.234872
0.863323
0.709425
1.23537
0.545008
0.597486
2.8794
1.01746
0.447373
0.553704
0
3.33871
1.6541
0.44099
0
0.928333
1.37214
0.59526
0.6336
0
1.06905
0.735096
0.891216
0.656345
0.315807
0.49748
0.706832
0.640793
0.948503
0.768315
0.315582
0
0.782409
0.801238
0
0
0.660134
0.410168
0.376459
0.573743
0
0.633044
0
0.271685
0
1.9117
0.996806
0.505134
1.62929
0.652221
0.466145
0.628052
1.14465
0.721936
0.575699
0
0.585883
0
0.635298
0
0.940067
0.625829
0.573336
0.705139
0.461062
0.686514
0.388483
0.709841
0.748899
0.551648
0.694881
0
0.674904
0.671344
1.14924
0.69646
0
0
1.06199
0.645192
2.00718
1.02719
0.39271
0.363178
0
0
0
0
1.07692
0.871999
0.785805
0.551928
0.658375
0.470942
0.397448
0
0.665965
0
2.22199
0.9033
0
0.769378
0
0.319465
0.844373
0.604832
0
0.710041
0.990531
0.992489
0.879342
0.64796
0
0.236336
0
0
2.07904
0.97595
0
1.24647
0.548577
0.55197
1.78172
0.698888
0.900102
0.498929
0
0
0.994916
1.55226
0.714174
0.444617
0.685041
1.65106
0.707367
0.562162
0.864772
0.909581
0.804895
0
0.570056
0
0
1.44878
0
1.2001
1.00457
1.11822
0.489981
0.885572
1.20082
0
0.792249
0.769635
0.825964
0.839694
0
0.889312
1.08672
1.27697
0.511877
0.743691
0
0.612559
0.51896
0.764134
1.09415
0.392432
0.21152
0.862273
1.31003
0.833755
0.848679
0.961772
0.713575
1.50329
0
0
0.93327
0.644925
0.808133
0.73154
1.18527
0.678134
0.795122
1.56644
0.35999
0.730112
0.632779
0.693936
0.943822
0
0.581812
1.17534
0.643008
1.84293
1.59266
0.527659
0.495703
0
0
0.393081
2.66429
0.544838
0
0.738642
1.07302
1.09737
0.599557
0.722301
1.30378
0.744542
1.0519
0
1.03538
2.12845
0
1.20237
1.13419
0
0.368548
0.772647
0.764863
0
0
0
0.641883
0.658568
1.66636
0.949822
0.666244
1.80277
1.53545
1.47304
0.955608
0
1.16949
0.401632
0.472599
1.29564
0.767597
0
0.853435
0.918911
0.769233
0.641484
1.09646
1.09771
1.93411
0
0
0.422162
0.154028
0.709723
1.74837
0.507687
0.7916
0
1.47656
1.11667
0.683564
1.72653
0
0.886453
0.843929
2.32784
0
0.67297
1.1722
1.52227
0.766405
2.44363
0.415116
0
0.870169
0
0
0
0
0
0
0
0
0
0
0
0
0
0
0
0
0
0
0
0
0
0
0
0
0
0
0
0
0
0
0
0
0
0
0
0
0
0
0
0
0
0
0
0
0
0
0
0
0
0
0
0
0
0
0
0
0
0
0
0
0
0
0
0
0.281051
0.456694
1.27496
0.612744
0.350709
0.573263
0.513821
1.05362
0.307613
0.534775
0
0.460846
0.396373
0
0.555033
1.03154
0.45551
0.428564
0.604024
0.280281
0.389821
0.689265
0.395584
1.13262
0.210483
0.705842
0
0.370346
0.500514
0
0.455475
0.93698
0.0997985
0.913353
0
0.455275
0.355454
0
0.193553
0
0.524515
0.599206
0
1.02352
0.412971
0
1.12893
0.519525
0.171679
0.944288
0.655064
0.61552
0.995735
0
0.123655
0
1.74089
0.485938
0
0.864215
0.234066
0.342269
0.805302
0.385416
0.172733
0.699309
0
0.484478
0.460812
0
0
0.775539
0.708235
0.696577
0.499441
0.996864
1.09973
0.512697
0.783789
0
0
1.28553
0.772804
0.363142
0.997672
0.817202
0.55872
1.29556
0.827237
0.531
0.0860921
0.668821
0.737684
0.535969
0.286034
0
0.853656
0.392553
0
0.299809
0.639463
0.387643
0.977129
1.0036
0.459014
0.652454
0.309346
0.518347
0
0
0.831424
0
0.56113
1.33902
2.00399
0.804234
0.669612
0.74576
1.11352
0.296924
1.14989
0.624409
0.457749
0.472819
0.529093
0.458976
0.80572
0.443035
0
0.337988
0
0.702765
0.492178
0
0.565793
0.807987
0.494748
0.666111
0
0
0.398754
0.512901
0.456423
0.737441
0
0.696843
0.421817
0.59162
0.444098
0.436944
0.698577
0.583808
0
0.67551
0
0
0
0.594861
0
0
0.631946
0.624749
0
0.298167
0.431297
0.989362
1.05626
0.428199
1.93364
0
0
0.533252
0.298792
0.469914
0.617981
1.7101
0.565767
0.294856
0
0.413083
0
0.445957
0.295583
0.417023
0
0.284377
0.573595
0.61647
0.415799
0.248025
0.373216
0.915854
0
0.973306
0
0.380057
0
0.167651
0
0.55908
0.764834
0.572311
0.183091
0.382494
0
0
0.415736
0
0.58029
0.448486
0.4914
0.446344
0.50671
1.01307
0.639388
0
0
0.506784
0.85612
0.545283
0.435653
0
0.650419
0.730387
0.526747
0.51179
0.373495
0
0.860368
0.336518
0.397566
0.728761
0.327543
0.810214
0.74425
0
0.636433
0.428079
1.4278
0.535237
0.405047
0
0
0.531967
0.632959
1.05608
0.611929
0
0.475303
0
0.787573
0
1.54553
1.07261
0.540617
0.517446
0.852436
0.635294
0
0
0.537427
0.356984
0.354852
0.674269
0.413037
0
0.576035
0.636897
1.73556
0.875309
0
0
0.702873
0.428376
0.678563
0.631493
0
0
0.893395
0
0.595983
0.224936
0
0.30608
1.25337
0.518566
0.548342
0
0.402777
0.518413
0
0
0
0.609511
0.311296
0.453894
0.354177
0.607555
0
0
0.345947
0
0.67368
1.25408
0
0
0
0.523738
0.659746
1.26368
0.769176
1.43677
0
1.04778
1.05447
0.399775
0.525546
0.8441
0
0.909469
0.241345
0.71429
0.297639
0.575724
0.480674
0.540699
0.537145
0.411191
0.742302
0.22239
0
0.823384
0.475533
0.542338
0.667
0.497151
0
0.61093
0.81468
0.683453
0.600553
0.84026
0.673577
1.0076
0.449782
0
0.531287
0.479852
1.51662
1.47679
0
0.425633
0
0
0.884556
0
0
0.88512
0.716074
0.575134
0.281687
0.731732
0.762019
0.846588
0
0
0.881239
0.877956
0
1.717
0.895081
0.511878
1.05088
0.773969
0.501986
0.655351
0.428796
0.349894
0.570257
0.385145
0.426705
0.313956
0
0.621634
0.263347
0.549736
0.809598
0
0.453986
0.360272
0.424951
0.623618
0.752372
0
0
0.40412
0.423541
0.78308
0.51111
0.440938
0
0.55819
0
0.898792
1.00472
0.206809
1.49187
0.752457
0.474407
0.0888848
0.682424
0.661886
0
0.597112
0
0.714667
0
0.458998
0
0.546459
0.865069
0
0.461556
0
0.602076
0
0
0.870561
1.5417
0
0.61913
0.307764
0.919599
0
0.851247
0.562099
0.335656
0.423597
0
0.684852
1.01799
0.813454
0
0.856796
0.589812
0.510001
0
0.882554
0.782211
0.366942
0.218029
0.910678
0.281414
0.538742
0
0.502318
0.718957
0.27214
0.466571
0.671227
1.20098
0.836226
0.875133
0.909251
0.786998
0.515917
1.04676
1.41122
0.304772
0.416068
0.580686
0.0403479
0.513604
0
0.659218
0.276947
0.708445
0.391098
0
0.681421
1.40184
0.702261
0.423598
0.321679
0.868097
0.213908
0.565043
0.806534
0.79374
0.957085
0.659421
0.646881
0
0.528461
0.569452
0
0.229624
0.570593
0.865599
0
0.753294
0.386527
0
1.40384
0.426185
0.785782
0.31093
0.612234
0.3987
0.426258
0
1.00399
1.73375
1.65469
0.159168
0.403689
0.46311
0
0.361665
0.452761
0.978313
1.46201
0.552207
0.557474
0.280616
0.683826
0
0
0.388099
0.753948
0
0.399033
0
0.636749
0
0.626245
0.227396
1.03867
0.911151
0.476284
0.218624
0.488473
0.698566
0.65256
0.854096
0.598072
0.554572
0.733922
0.77696
1.26371
0.694665
0.559218
0
0.621114
0
0
0.164132
0.494232
0
1.32194
1.67961
1.31037
0.455797
0
0
0.865027
0
0.597992
0.514567
0.859369
0.746347
1.13887
1.87547
0.810465
2.02925
0
0.754858
1.50344
0.998119
0.594083
0.607102
0.546856
0.591878
0.598414
0.495955
0.142833
0.229817
0.431651
0.833624
0
0.683887
0.344915
0.741973
0.596593
0.79785
1.40328
0.458095
0.915801
0.566614
0
0.909621
0.432089
0.885532
1.01926
0.386343
0.940453
0.532668
0.741182
0
1.08194
0.434046
1.37121
0.825962
0.778216
0.882369
0
0.588536
0.375607
0.607423
0.533821
0
0
0
0.456425
0.493646
0.0457827
0.641512
0.976658
0.690531
0.740936
0.7213
0
0.764807
0
0.501454
0
1.0814
1.20801
0
0.358629
0.538108
0.679861
0.482274
0.879946
1.30914
1.11583
0
0.60114
0
0.703773
0.492784
0.733767
0
1.14714
0.478232
0
0
1.01709
0
0.867146
0
0.681922
0.643284
1.14756
0
0.572855
0.227974
0.520482
0.597405
0.49756
0
0
0.524998
0.538347
0.336624
0
0.543208
0.137193
0.232781
0
0.441004
0
1.03122
0
0.855914
0.530433
0.739798
0
0.705424
0
0
1.10018
0.997809
0.935511
0.985113
0.658309
0.862678
0.951505
0.641481
0
0.644474
0
0.665045
0
0.740523
0.783723
0.920912
0
1.1548
0
0
0.761164
0.589736
0.558334
1.47413
0.469208
0.50514
0
0.590152
0.138982
0.862067
0
0
0.408725
0.449647
0.713167
1.3553
1.20671
0.289809
0.423292
0.631909
0.183758
0.721635
0.979507
1.12063
0.615849
0
0.926879
0
0.955797
0
0.417334
0
1.39886
0
0
0
0.615961
0.545097
0.769668
0.756943
0.418575
0.312249
0.898803
0
0
0.494835
0.0886662
0.532313
1.17671
0.71037
0.727743
0.459639
0.715722
0.548094
0.772056
0
0.999821
0
0
0.284511
0.363134
0.489998
0
0.694213
0.760323
0.551934
0
0
0.553671
0.602154
1.25847
0.614311
0
1.48951
0.654128
0
0.624604
0.458205
0
0
0.61853
0.84096
0.43832
0.797411
0.439779
1.27244
0.787946
0.383378
0
0.718162
0.678874
0
0.420657
0
1.14993
0
0.765288
1.13991
1.03806
2.07385
0.920721
0.758604
0.356413
0.321394
0
0.592491
0.633945
0.4604
0.99806
0
0
0.784093
0
0.310808
0.592391
0.49726
1.70557
0.900146
0.8314
0.556286
0.795318
1.1763
0
1.49163
0.597225
1.48456
0
0.175755
0
0.682278
0
0.516764
0
1.45125
1.34123
0.663659
0.436143
0.551496
0
0
0.967215
0.505324
0
0
1.24569
0.606949
0.585836
0.532137
0
1.49165
0.327173
1.10783
0.736434
0
0
0.445413
0.931015
1.26014
0
0.695791
1.24804
0.61549
0
1.05408
2.33829
0.657622
0.197894
0.943387
0.593128
1.10061
0.320658
0.148185
0
0.477643
0
0.426826
0.39053
0.48383
0.226933
0
1.03195
0.643947
1.00248
0.881661
0.637319
0
0
2.08313
1.03941
0.975405
0.345031
0.40189
0.811293
0
0.563315
0
0
0
0.361112
0.58072
1.79324
0
0.548084
1.78735
0.441027
1.31623
0.601315
0.696566
0.471991
0.978915
1.00765
0.114945
1.24309
1.47157
1.22378
1.23363
0.656286
0.773001
1.07458
0.78531
0.593774
0.456262
0.646281
0.858228
0.351257
0.759772
0.282456
0.591301
0.76253
0
0.648603
0
0.220242
1.28966
1.46369
0.513157
1.09275
1.21873
0
1.1669
0.905645
0.870619
0
1.0372
0.622355
0.896535
0.837374
0.754992
0.763452
0
0
0
0
0
0
0
0
0
0
0
0
0
0
0
0
0
0
0
0
0
0
0
0
0
0
0
0
0
0
0
0
0
0
0
0
0
0
0
0
0
0
0
0
0
0
0
0
0
0
0
0
0
0
0
0
0
0
0
0
0
0
0
0
0.218266
0.483435
0
0.369528
0.551031
0
0.659057
0.907983
0.363255
0.649876
0
0.33635
0.572936
0
0.422373
0.779103
0.449176
0.640198
1.20035
0.430072
0.648617
0
0.489631
1.52926
0.235303
0.336333
0.556141
0.609232
0.441221
0.422749
0.653299
0.953347
0.600155
0.37474
0
0
0.582477
0
0.46674
0.493371
0.194411
0.739178
0
0.470622
0.484434
0
0.30381
0.800002
0.619943
0.249032
0
0.77306
0.267134
0
1.96971
1.50689
0.410325
0.453362
0
0.260466
1.21842
0
0.222773
0.420739
0.452562
0.436808
0.812086
0.7838
0
0.227847
0.893469
0.306891
0.194264
0.494947
0
0.892787
0.345959
0
0.356454
0.642177
0.369434
0.645726
0.70969
1.16733
0.489923
0.39106
0.871198
0.128196
0.126611
0.725025
0.159848
0.280785
0.590195
0.533446
0.998729
0.401306
0.520968
0.620138
0.264813
1.24673
1.17242
0
0.710923
0.540305
0
0.300481
0
0.492657
0.479069
0.487353
0
0.394233
0
0.840327
0
0.611001
1.73978
0.429484
0.44216
0.37786
0.560747
0.172138
0.848901
0
0.329063
0
0
0.617707
0
0
0.554844
0.890545
0.737686
0.515729
0.352167
0
0
1.04329
0.21182
0.488957
0
0.450254
0
0.311837
0
0.836944
1.17931
0.939052
1.25746
0.59397
0
0.535102
0.78514
0
0.383171
0.300428
0.278688
0
0
0.741753
0
0.46873
0.410721
0.398978
0