<?xml version="1.0"?>
<VTKFile type="RectilinearGrid">
<RectilinearGrid WholeExtent="0 32 0 32 0 32" Origin="0 0 0" Spacing="1 1 1">
<Piece Extent="0 32 0 32 0 32">
<PointData>
</PointData>
<Coordinates>
<DataArray type="Float32" format="ascii">
0 0.524874 1.04975 1.57462 2.0995 2.62437 3.14924 3.67412 4.19899 4.72386 5.24874 5.77361 6.29849 6.82336 7.34823 7.87311 8.39798 8.92285 9.44773 9.9726 10.4975 11.0224 11.5472 12.0721 12.597 13.1218 13.6467 14.1716 14.6965 15.2213 15.7462 16.2711 16.796 
</DataArray>
<DataArray type="Float32" format="ascii">
-5.03879 -3.62163 -2.20447 -0.787311 0.629849 2.04701 3.46417 4.88133 6.29849 7.71565 9.1328 10.55 11.9671 13.3843 14.8014 16.2186 17.6358 19.0529 20.4701 21.8872 23.3044 24.7216 26.1387 27.5559 28.973 30.3902 31.8074 33.2245 34.6417 36.0588 37.476 38.8931 40.3103 
</DataArray>
<DataArray type="Float32" format="ascii">
0 0.524874 1.04975 1.57462 2.0995 2.62437 3.14924 3.67412 4.19899 4.72386 5.24874 5.77361 6.29849 6.82336 7.34823 7.87311 8.39798 8.92285 9.44773 9.9726 10.4975 11.0224 11.5472 12.0721 12.597 13.1218 13.6467 14.1716 14.6965 15.2213 15.7462 16.2711 16.796 
</DataArray>
</Coordinates>
<CellData>
<DataArray type="Float32" Name="Scalar" format="ascii">
0
0
0
0
0
0
0
0
0
0
0
0
0
0
0
0
0
0
0
0
0
0
0
0
0
0
0
0
0
0
0
0
0
0
0
0
0
0
0
0
0
0
0
0
0
0
0
0
0
0
0
0
0
0
0
0
0
0
0
0
0
0
0
0
0.153971
0.448079
0
0.273008
0.359097
0
0.331123
1.06567
0.210255
0.476921
0.414859
0.224325
0.326084
1.6594
0.296642
0.882521
0.187883
0.26157
1.39103
0.49325
0.168384
0.3225
0.321937
1.24688
0.241118
0.315437
0
0.229516
0.375902
0
0.322034
0.896148
0.116336
1.12081
0
0.240123
1.16603
0
0.448364
0
0
0.347051
0
0.77208
0.46408
1.13689
2.58321
0.0717795
0.00674939
0.963817
0
0.177711
0
0
0.190552
0
2.00318
0.298914
0
1.0183
0.241635
0
1.09888
0.375696
0.625245
0.631481
0
0.391846
0.578754
1.32654
1.07693
0.610995
0.99202
0.536166
0
0
1.55354
1.30149
1.05358
0.165248
0.344257
0.879368
0.699661
0
0.237865
0.714566
0.769362
0.877714
0.752264
0
0.479932
1.06784
0.957568
0.480235
0.873075
0.768915
0.699863
0.536797
0
0.349658
0
0
0.2542
0.430786
0
0
0.481826
0.301215
0.399947
1.06681
0
0.787365
0.770591
0
0.296911
0
0.483917
0.118297
0
0
0
0.678635
0.385414
0.465083
0
0
0.443037
0.760455
0
0.526961
0.66361
0
0.37879
0.327971
0.370513
0
1.04657
0
0
0.541626
0.394573
0.974392
0
1.35693
0.750132
0.655009
0
0.755071
0.836995
0.46479
0.389214
0.375995
0.476301
0.855301
0.530708
0.499336
1.2779
1.03586
0.883164
0.312958
1.11192
0
0.577543
0
0.529741
0.291633
0
0
1.20574
0
0.729294
0.806155
0.834056
1.29844
0
1.9346
0.557059
0.524662
0
0.509704
0.542306
0.731238
0.464392
0.209634
0
0
0.484604
0.704328
0.353616
0.196296
0
0.590885
0
0.435666
0
0.564932
0.704466
0.34648
0
1.1166
0
0.527672
0
0.419882
0.54633
0.367544
0.711586
0.449187
0.551709
0.730014
0.907184
0.555567
0
0
0.652459
0.586119
0.353483
0
0.394101
0.866549
0
0
0
0.543164
0
0.497368
0
0.418346
1.87379
1.08917
1.26782
0
0.768032
0.786243
0
0
0.862968
2.03854
0
0.550515
0.408945
0
0.816134
0.766661
0.407402
0.532854
0.706502
0.636576
0.308227
0.448782
0
0.665563
0.285911
0
0.503311
2.01188
0
0
0.632052
0
1.34316
0.731844
1.21247
1.05818
0.261582
0.209502
0.423807
0
0.375957
0.876436
0
0.301834
0
0.305365
0
0.391782
0.40626
0
0
0.615072
0.776184
0.612259
0.279308
0.909043
0.962926
1.76942
0.928522
0.636186
0.931523
0.439588
0.471239
0.961584
0.315811
0.282244
0.604242
1.07752
0
1.18803
0.724097
0.661922
0
0.626306
0.238359
0.254149
0
0.420395
0
0
0.261681
0.54606
1.58489
1.54178
0
0.767402
0
0
0.420624
0
0.720538
0.228022
0.658384
0.63776
0.818224
0.560792
0
0.943791
0.703341
0.228554
1.23893
1.01657
0.741251
0
0.719942
0.886645
1.25923
0.336707
0.874374
0.182088
0.2706
0.481736
0
0.6352
0.815608
0
0.962404
0.495257
0.444416
1.48761
0.680635
0.901052
0.465215
0.330267
0.841738
0.242906
0.340508
0.657004
1.44052
0.217021
1.33723
0.60518
0
0
0.744723
1.08764
0.589197
0.905849
0.554726
0.878083
1.16064
0.538035
0.320181
0.337671
0.638664
0
0
0.56292
0.647859
0.641245
0.457431
0
0.398593
0.250911
0.4269
1.1976
0.373126
0.364523
0
1.10428
0.594166
0
0.74376
0
1.16368
0.664918
0.515829
0.631701
0.62484
0
0
0.371042
0
0.934919
0
0.939025
1.38432
0.092423
0.428575
0
0.207815
1.13501
0.203293
0.370681
0
0
0.301362
0.301284
0.825757
0.0786309
0.61094
0
0.69782
0.669307
0.385717
0.517805
0.567395
0
0.92293
0
0
0.261616
0.703667
1.09142
0.716761
0.982509
0
0.877934
0.859777
0.386996
0.801567
1.12403
0
0.503058
0.740925
1.02384
0.568865
0
0.526914
0
0.892682
0.629799
0.788582
1.07579
1.6921
0
0.382024
0.722325
0.78977
0.943137
1.03783
1.05754
0.359977
0.545945
0.583135
0.472727
0
0.793901
0.397967
0.266186
0.539333
0.470475
0.430139
1.22941
0.878267
0.488767
0
0
0.694199
0.918034
0.613339
0.675117
0
0.875051
0.550802
0.851738
0.564713
0.691808
0.557769
0.85993
0.696009
0.781782
0
0.949465
0
0.705493
0.477898
0.366074
0
0
0.378405
0.638491
0.658717
1.76819
1.27681
0.718451
0
0.785776
0.642994
1.15428
1.54733
0
0.622758
0.561097
0.401131
0
0.347628
0
0.402418
0
0.61856
0.428916
0.80307
0
0.734572
0.71892
0.180682
0
0
0.427773
0
0.627665
0
0.570593
0.462288
0.629192
0
0.948413
0
0.197129
0.678547
0.459897
0
0
0.441966
0.882714
0.598296
0.678383
0.502251
0.692058
0
0.795657
1.26616
0.319682
0.304002
0
0.585156
0
1.00387
0.617613
0.934659
0
0
0.469486
0
0
0.739361
0.844811
0
0.434543
0
0
0.426962
0
1.13293
0.352544
1.08755
0
0.684481
0.343551
0
0
0.794225
0.242441
0.223815
0.391435
0.57436
0
0.329015
0
1.45781
0.363835
0
0.45709
0
0.41816
0
0
0.415144
0
0
0.928822
0.393847
0.865995
1.03481
0
0.360375
0.496483
0.45573
0.771757
0.734569
1.05902
0.976093
0.503091
0.711882
1.00856
0
0.707474
0
0
0.622628
0.482283
0.814643
0.790965
0.890728
1.19996
0.816808
0
0.41699
0.769626
0
0.633938
1.60137
0.7807
1.48598
1.3989
0.638
0.855826
0.882017
1.15152
0.310724
0.586116
0.580027
1.0723
0
0.537391
0
2.78585
0.477388
0.477152
2.21014
0.4495
0.17854
0.472728
0.148343
0.50731
1.26073
1.26907
1.33061
0
0.859324
0
0
0.669402
0
0.686345
0.856716
0.610919
0.498676
0.67512
1.27824
0.843957
0
0.43334
0.337629
0
0.612649
0
0.443154
0
0.706784
1.85772
0.674665
0.951182
0.170142
0.581164
0.247521
0.665677
0.444415
0
0.852914
0.204865
0.405444
0.532379
0.301219
0.512606
0.109807
0.681386
0
0.351661
0
0.813893
0.454077
0
0.970869
0.315925
0.497686
0.546377
0
0.46953
0.379519
0
0.854467
1.23501
0.942323
2.57626
0.641001
0.603921
0
0
0.724846
0.255513
0.549581
1.06432
0
0.50944
0.614666
0.579871
0.519245
0.421296
0.534718
0.725517
0.253297
0.589273
0.371607
0.596548
0.643025
0.630668
0
0.76992
0
0.299524
0.270505
0.63809
0.641987
0
0
0.326119
0.531307
0.495239
1.39165
0.491908
0.98443
0.462728
0.608305
0.781161
1.04225
0.443748
0.856682
0
0.664613
1.02898
0.505965
0.424045
0
0.492534
0.927172
0.663812
0
0.594299
1.15659
0.352752
0.250439
1.85128
0.473943
0
0.700553
0
0.138084
0.774853
1.13597
0.460293
0.630798
0.737384
0.507146
1.91604
0.566623
0
0.521024
0.249685
1.14899
0.588816
0.81301
0.791424
0.727662
0.346819
0.299615
0.938903
1.02539
1.29709
0.72852
0.581355
0.675508
0.644819
0.268092
0.320409
1.04215
0.87408
0.530483
0.736836
0.847051
0.56503
0.339393
0.41641
0
0.371713
0.380878
0
0
0.882715
0.442114
0.636461
0.775806
0
0
0
0.599316
0
0
0.43106
0.8325
0.842527
0
0.559261
0
0
0.598113
0.635722
1.19341
0.595374
0
0
0.56303
0
0.685824
0.452652
0.999485
0
0.874422
0.438793
0
0.560633
0.758894
0
1.56079
0
2.25696
0.977551
0
0.511432
0.875199
0.727855
0
0.562193
0.573594
0.465215
0
0
0.755869
0
0.726399
0
0
1.06265
0.573821
0.530625
0.352453
0.545579
1.03881
1.12225
1.20174
0.882409
0.646657
0.870028
0.545524
0
0.818855
1.26382
0.862902
0
0
0.587896
0
0
0
0.857691
0.606525
0
0.604315
0
0
0.301363
0.218084
1.1409
0.689212
0
0.965258
2.12554
2.17994
0.402087
0.794404
0
0.438094
0.767925
0.455802
0
0.646944
0.932014
1.00684
0.877396
0.906498
0.733718
0.613675
0.572955
2.16919
0
0.504952
0.867858
0
0
0.461442
0.650065
0.441394
0
0.980342
0
0.497531
0.529292
0.400015
0.710281
0.877994
1.23109
0.459537
0.474256
0.342863
0.829134
1.28893
0.950282
0.688293
0.11394
0.762939
0.876694
0.335711
0.681266
0.864364
0.486503
0.485686
0.835712
0.964111
0
1.18017
0
0
0
0
0
0
0
0
0
0
0
0
0
0
0
0
0
0
0
0
0
0
0
0
0
0
0
0
0
0
0
0
0
0
0
0
0
0
0
0
0
0
0
0
0
0
0
0
0
0
0
0
0
0
0
0
0
0
0
0
0
0
0
0
0
0.336387
0.542018
0.748358
0.482779
0.527779
0
0.415936
1.40303
0.269357
0.545235
0.674241
0.584434
0.628977
0.816113
0.522701
1.1625
0.402763
0.496921
0.397778
0.508028
0.674062
0
0.554469
0.949889
0.205299
0.545872
0.352438
0.675074
0.347055
0
0.452418
1.01863
1.23247
0.482186
0
0.794966
0.152281
0
0.773994
0.752893
0.254224
1.13415
0.259913
0.286936
0.597013
0
0.386597
0.388035
1.5495
0.316886
0
0.919855
0.43365
0
0
1.21356
0.33765
1.995
0
0.897444
0
0
0.0734513
1.32301
1.01042
0.741261
0.614356
1.15636
0
1.45114
1.48691
0.711065
0.851938
0
0.50737
0.573464
0.924935
0
0.989819
0.459633
0.328848
0.556058
0.30351
0.865299
0
1.55873
0.417432
0
0.7887
0.63831
0.275889
0
0.91783
0.380296
0
0.760338
0.91345
0
0.814804
0.568073
0.195789
0.287248
0
0
1.02042
0.510261
0.335866
0.548331
0.360621
2.02252
1.13078
0
0.593458
0.537884
1.67922
1.55487
0.833186
0.639012
0.416933
0.529463
0.711962
0.815513
0.59417
0.158374
0.391719
0.630131
1.05627
1.03972
0
0
1.56348
0.254005
0.550199
0
0.674738
0.666714
0.637398
0.924396
0.295509
0
0.463937
0.425553
0.412055
0.488935
0.40715
0
0.458436
1.18458
0
0.691181
0
0.424031
0.211113
0.218093
0
0.47555
0
0.534677
1.30794
0.629807
0.906242
0.732322
0
1.01872
1.32833
0.693343
0.485064
0.746602
0.762213
1.13733
1.46388
1.01192
2.65279
0.992169
0.915066
0
0
0.717542
0.805515
0
0
0.584686
0
0.209217
0
0.909008
0.728791
1.15346
0.711717
0.240989
0.508173
0
0.709849
0
0.756495
0
0.506514
0.416518
0
0.904253
0.678286
0.56816
0.572429
0.44894
0
0.516273
0.492439
0.308418
0
0.376435
0
0
0.300676
0.686435
0.945187
0
0.271984
0.706886
0.285038
0.31373
1.06155
0.504191
0.365874
0
0
0.630868
2.17078
0.774783
0.97769
0.389598
0.693004
0.54403
0.484241
1.0639
0.349069
0.47397
0
0.597755
0.282509
0.521362
0
1.10201
0.693868
0.683737
1.5959
0.543929
0.636521
1.27544
0.608797
0.761533
0.414187
0.668046
1.29659
0
0
0.684966
0.596417
1.19213
0.691689
0.710025
1.2153
1.48048
0
0
0.362999
0
0.160741
0.730485
0.779286
0.888473
0.245175
0.532956
0
0
0.464703
0.902201
0
0.183544
0
0.493556
0
0.686393
1.23711
1.05511
0.459785
1.27993
1.04942
0.975849
0.274084
0
0
0
0
0.466434
0.624005
0.918297
1.02373
0.286626
0.693179
0.651049
0
0.443669
0.425155
0.648839
0.56481
0.646233
0
0.336023
0.544196
0.567101
0.457283
1.16527
1.39916
0.741083
0.965984
0.465202
0.620625
0
0.345949
0
0
0.650539
0
0
0
0.35499
0.770647
0.426651
0.833137
0
1.02672
1.08319
0.693512
0
0.58438
0.776998
0.385314
0.364794
0
0
1.01122
0
0.881031
0.685989
0.612129
0
0.776564
0
0.803159
0
0
0.421868
0
0
0
0
0.471841
0.251727
0.834956
0.379174
0.374438
1.90179
1.11728
0
0.870845
0.50296
0
0.430759
0
0.534066
0.608168
1.20954
1.33984
0.62809
0.39445
0.357504
0.742811
0.581297
0
0.789749
0
0.530311
0.654712
0.549595
0.48961
0
0.490824
0
0
0
0
1.07983
0.374785
0
0
0.724752
0.889908
0.802998
0.474587
0.809876
0.782154
0.230599
0.723406
0.768148
0.384899
0
0
0.403764
0.718689
0
0
0
0.565018
0.739312
0
0
0.492523
0
0
0.650293
0.400566
0.193957
0.65189
0
0
0
0.497985
0.243699
0.537932
0
0.615909
0.691602
0.949409
0
0
0.992272
0
0.891174
0
0.628074
0.512481
0.510359
0.410105
0
0
0
0.564304
0
0
2.07747
0.387923
0.592037
0
0.988127
0.731501
2.401
0
0
0
0
0
0
0.62261
0.652514
0.388785
1.51568
0
0.773587
0.571703
0.632746
1.1988
1.82141
0.895104
0.622114
0.446561
0
0
0
0
0
0.572781
0
0.352036
0.602529
0
0.892634
0
0.320995
0
0.556356
0
0.317546
0
0.454249
0.592591
0.617391
0.736839
0.513614
0
0.463468
0.540121
1.18988
0
1.17323
1.27486
0.724044
0
0.696396
0.240604
0
0.394868
0.816496
0
0.456509
0.3107
0
0.644569
0.602654
0.963273
0.342514
0.84416
0.52928
0.38588
0.355672
0
0.411074
0
0.518405
0.580855
0.850204
0.472397
1.75735
0.553644
0
0.642568
0.438714
1.68045
0.529008
1.3678
0.796182
0.418797
0.380007
0
0.629279
0.865957
0
0.650068
0.393413
0.444622
0.141412
0.570172
0
0.258042
0.530572
0.712752
0.378793
0.471228
0
0.744364
0
0
0
0.27282
1.02246
0.539655
1.45902
0.790846
0
0.485211
0.526778
0
0.804111
0.519928
0.0962817
0
0.618914
0.24669
0.458081
0.463297
0.387745
0.387524
0.188605
0.254283
0.820679
0.372058
0
0.48025
0.20528
0.587125
0.80469
0
0.244483
0.554235
0
0.567094
0.778844
0
0.251933
0.632334
0.827946
0.985075
0.619694
0.303616
0.648023
0.377296
0.465177
0.568137
0
0
0.734805
0
0
0.361637
0.53831
0
0.382482
0.610261
0.713052
0.84234
0.625994
1.43072
1.30617
1.01542
0.739163
0
0
0.502123
0.975201
0
0.712317
0
0.99574
0.701109
0.416964
0
0.579319
0
0.194632
0.60659
1.0001
0.678293
0.543301
1.09436
0.379669
0.519647
1.20478
0.276043
0
0.538136
0.758561
0.750209
0.379791
0.57701
0.562418
1.80034
0.525918
1.53916
1.00938
0
0.512016
0.941292
0.698578
0.205469
0.184801
0.463974
0
0
0.959036
0.711399
0.439971
0.330219
0.127731
0.457819
0
0
0.627106
0.573847
1.64429
0.593559
0.290031
0.570947
0
0.508308
0.395124
0
0.215883
0.30963
0.50668
0.893484
0
0.642285
0.804417
0.748162
0
0.48333
0
0.705058
0
0.564104
0
0
0.79184
0.889312
0.792905
0.510831
0.800984
0.657489
0.728395
0.485112
0.512268
0.935171
1.06694
1.00731
0.514059
1.06842
0.753637
0.560262
0.490947
0
0.415754
0.80555
0.605228
0.837944
0.331089
0
0.524961
0.0827936
1.42373
0.670529
0.515282
0.673042
0.465409
0.751337
0.828796
0.474606
0.463182
1.23935
1.43927
0.362884
1.03644
0.527343
1.92729
0
0.51389
0
0
0.424449
0
0.430257
0.646067
1.14348
0
0
0.510791
0.268596
0.534465
0
0.403991
1.53266
0.968243
0.624563
1.01033
0.839937
0
0.79759
0
0.472727
0
1.30572
0
0
1.30015
0
0
0.41245
0
0.636423
0.236105
0.639906
0.276484
0
0.224503
0
0.268701
0.845943
0.794923
0.495287
0
0.613131
0.462996
0.479334
0
0.772621
0
0.917722
0.469115
0
0.77335
0
1.26525
0.718
0.545689
0.190295
0.581431
0.5115
0
0.405339
0.571693
0.982506
0.514345
0.702987
1.14128
0.48802
0
0
0.34827
0.272982
0
0
1.34239
0.742948
0.234791
0.97821
0
0.780424
0
0.572204
0
0.64128
1.1823
0.719454
0.673907
0.924296
0.740074
0.362734
0.226609
0
0.79619
0.347748
0.408628
0
0
0
1.21392
1.12458
0.781958
1.35793
0
0
0.579763
0
0.616859
1.60795
0.576656
0.212387
0.304205
1.26397
0.727229
1.13802
2.36713
1.44131
0.940695
0.57385
0.439877
0.540206
1.07729
0.676162
1.39945
0.345521
0
1.13427
1.16715
0
0
0.607606
0.26634
0
0.590317
1.56193
0.40145
0.783111
0.913244
0.851196
1.07391
0.215302
0
1.221
0.771359
0.460186
0.822669
0
0.551891
0.383831
0.41516
0
0.966132
0.398106
0.4185
0.626114
1.36194
0.589752
1.26825
0
0.355232
0.0586502
0
1.02797
0
0.553004
0.630905
0.395336
0
0
0.508859
0.874284
0.63623
0
1.46817
0.49424
0.440216
0.735421
0.67677
0.862882
0.739396
0.746651
1.15889
0.980745
0.935491
0.556368
0
0.700624
0.733294
1.21189
0.488361
0
0.424942
0.61784
0
0.897962
0.538005
0
0
0.46852
0.600872
0.659386
0
0.385181
0.581978
0
0.950923
0.79857
0
0.92513
0.689064
1.02269
1.31022
0.781177
0.705303
0.814651
1.30128
0
0
0
0
0
0
0
0
0
0
0
0
0
0
0
0
0
0
0
0
0
0
0
0
0
0
0
0
0
0
0
0
0
0
0
0
0
0
0
0
0
0
0
0
0
0
0
0
0
0
0
0
0
0
0
0
0
0
0
0
0
0
0
0
0.226247
0
0
0
0
0
0.96298
0
0
0.700059
0
1.09743
0
0
1.04994
0
0.37248
0
0
0.914085
0
0
0
0
0
0.81048
2.56228
0
0.574399
0
0
0
0
0
0
0
0
0
0
0
0
0
0
0
0
0
0
0
0
0
0
0
0
0
1.24954
0
0
0
0
0
0.23464
0
0
0.519449
0.297697
1.1335
1.16634
0.79258
0.920078
0.660758
1.30987
0
1.00855
0
1.09969
0.529404
1.1917
1.3306
0.947747
0
0.690447
1.05688
0.613973
0
0.62085
1.3973
0
2.06062
0.883215
0.981452
0.954451
0
0.535281
0
0.217513
0.30747
0.662516
1.0923
0
0
1.70657
0
1.04447
0.6259
0
0
0.465031
0.439975
0.897621
0
0.929595
0
0.5378
0.496827
2.29323
1.16742
1.4733
0.746408
0.804624
0
1.07344
0.93275
0
0
1.13151
0
0.922975
1.63123
0.605072
0.853467
0.911122
0.300402
0.460646
0.727353
0.390028
0.66196
0
0.110108
0
0.291219
0.498219
0.587996
0
0.7957
0.693151
1.16515
0.651604
0.932098
0.580994
0.746731
0
0.314714
0
0.737387
0.550167
0.727878
0.534782
0.776277
0
0.42569
0
0.44842
0.30414
0.315157
0.936864
0.550648
0.502035
0
1.43308
0
1.11768
0.609366
0.716619
0.699797
0
0.106963
0.324351
0.664528
0.561002
0.580765
0.50708
0.92904
0.17494
0.549947
0.374902
0.799525
0
0.460266
0.185909
0.704528
0.595119
0.98796
0.184965
0
0.298567
0
0.525141
0.676825
0.510193
0
0.590921
0.449953
0.734827
0
1.16568
1.3778
0.728539
0.613042
0
0.496115
0.730443
1.05471
0.494337
0
0.540272
0.626749
1.04146
0.635579
0.361646
0
0.51109
0
0
0
1.6227
0.604192
1.10312
0.867129
0.859868
0.579491
0.513949
0.368762
0.879526
0.428162
0
0.223386
0.839519
0.291233
0.818016
0
0.305733
0.955953
0.410343
0.622405
0.957677
0.919796
0.354069
0.993423
0.324833
0
0.383306
0
0.564083
0.642091
0.411281
1.25745
0.776055
0.557254
1.02591
0.673619
0.806723
0.239386
0.64996
0
0.695223
0.963633
0.652121
0
0.941058
1.14578
0.544016
0
0.474514
0.432578
0.623888
0.851552
0.285383
0
0
0.770502
0
0.587972
1.59631
0
0.603797
0.419655
0.631474
0
0.633547
0.987982
0.705484
0.530754
0.681048
0
0.74035
0.545274
0.589811
1.32353
0.333005
0.39431
0
0.559741
0.349788
0
0.308998
0
0.324707
0.241573
0.717085
0
1.0769
5.39948
1.69754
0
0.189061
0.563416
0
0.745918
1.216
0.801806
0.316122
0
0.481789
0.653405
0.276792
0.73428
0.166816
0.495595
1.90057
0.63521
0.706306
0
0.708191
0.48692
0.584732
0.304061
0.418501
0.30815
0.545889
0.288313
0.780126
0.278568
0.391259
0.436103
0.492373
0
0.817594
0
0
0.721838
0.65963
0.187223
0
0.318833
0
1.04999
0.562397
0
0.99613
0.766931
0.894786
0.272655
0.878553
0
0.346556
0.313037
0.718361
0.529461
0
0
0
0.394415
0
0.520198
0
0
0.556372
0.317581
0
0.540294
0
0.769396
0
0.403295
0.512126
0.543175
0.520019
0.544656
1.32045
0.778721
0.827304
0.456158
0
1.17895
0.498021
1.71542
1.22688
0.548769
0
0
0.404272
2.68532
0.679776
0
0.296339
0.33065
0
0.60897
0
0.514937
0.722175
0.441474
0
0.243376
0.901741
0.51827
0.145793
0
0.614493
0.0954009
0.412405
0.587358
0
0.323768
0.389831
0
1.06377
0.614191
0
0.71838
0.63753
1.21087
0.997397
0.558622
0.625526
0
0.768704
0
0
0
0
0.406306
0.517756
0.684452
1.07667
0.281299
0.189126
0.333189
1.51878
0.782698
0.780639
0.353905
0.527686
0
0
0.604549
0.749715
0.483492
0.165612
0.903637
1.13119
0.542573
0
0.298328
0.350214
0
1.53419
0.614594
1.24141
0.962346
0.487895
0
0.4422
0
1.24024
0
0.411528
0.313721
0.512776
0.368217
0
0.457382
0
1.4256
0.486502
0.419219
0.58184
0.843716
0.639454
0.485858
0
0.911338
0
0.282023
0
0.49343
1.14147
0
0.654331
0.613426
0.684208
0.218164
0.809543
0.883004
2.46682
0.395946
0.426693
0.41312
0
0
0.227436
0.481034
0.204553
0.206767
0.63888
0.373051
0
0.735837
0.200751
0.451643
0
0.472554
0.100891
0.614973
0.420273
0.452156
0.393002
0
0.388658
0
0.735403
1.13804
0.562273
0
0.477974
0.233459
0.156122
0.479334
1.63089
0.640744
0.489162
0
0.355986
0.342227
0
0.582907
0
0
0.512667
0.505685
0.182852
0.970606
0
0.31063
0
0.597908
0
0.89715
1.11824
0.655998
0.993566
0.41838
0.393368
0
0.695421
0.379036
0.52181
0.0970447
0.623904
0
0
0.450438
1.56735
0.63549
0.463707
0.844615
0.272524
0.610131
0
0.58181
0.987097
0.521348
0
0.458373
0
0.769023
0
0.7517
0.300707
0.538118
0
0.16989
0.40882
0.314402
0.450992
0.801958
0
1.12007
0
0.487299
0.542014
0
0.641702
0.305933
0.708635
0.351647
0.388355
0.600472
1.56591
0.443972
0.56848
1.31423
0.584156
1.41804
0.201411
0.340135
0
1.10722
0.690461
0.744174
0.483521
1.79427
0.433998
0.921962
0.765475
0.769194
0
0.346584
0.336864
0.415566
0
1.51661
0.702209
0
0.724534
0
0
0.520977
0
0.686354
0.453457
0
0.476808
0.505079
0.497238
0.180123
0.573321
0
0.50001
0
0
0.63667
0
0
0.89448
0.634085
0.926972
0.987538
0
0.640033
0
0.574903
0.516562
0.280604
0.658502
0.573966
1.2969
1.31676
1.01327
0
0.605463
0
0
0.599295
0.513316
0.72654
0.611237
0.402977
0
0.735466
0.886377
0
0.259182
0.473046
0.652335
0
0.916923
0
0.355574
0.371368
0.474527
0
0.811863
1.24037
0.46566
0.378563
0.233832
0.0813389
0
0.61989
0.644471
0.58642
0.666623
1.99672
0.691553
1.08034
0.537573
0
0.139184
0
1.62168
0.94232
0.577983
0.463188
0.872663
0.674255
0
0
0.321411
1.84468
1.38762
2.09032
0.541548
0
0.692978
0.469623
0.841887
0.763112
0.306455
0.607087
0.34636
1.48395
0.76493
0.801237
0.668916
0.31693
0
0.886862
0.507815
0.803394
0
1.10457
0.66006
0.427927
0.453225
0
0.520373
0.508923
0.56493
0
0.599273
0.350987
1.08849
0.621502
0.264768
0
0.772593
0
0
0.602739
0
1.0119
0
0.778281
0.887145
0
0.315281
0
0
0.555728
0.263025
0.790979
0.120374
0.502278
0
0.316909
0
0
0.449154
0.866591
0.223466
0.222257
0.578217
0
0.545611
0.644567
0.327762
0
0.54658
0
1.6252
0.563814
0.545493
0.525178
0
0.937208
0.922152
0.705541
0.57979
0
0.491845
0
0.217881
0
1.04077
0
0.44789
0
0.607102
0.607475
0.72996
0
0
0
0.405626
0
0.600976
0
1.02054
0.827467
0.773533
0.841573
2.38853
0.953986
0.669535
0.568305
0
0.777906
0
0.774127
0.333449
0.0804403
0.274925
0.43358
0.23853
0.897718
0.67825
0.610041
0
0.53784
0.995534
0.52016
0
0.738789
0.579893
0.581251
0.937429
0.622603
0.805281
1.22505
0.318595
0.594047
0
0.264949
0.489437
0.616259
1.16298
0.970054
1.16663
2.20144
0.76655
0.868159
0
0
1.51513
0
0
0
1.0811
1.36875
0.707534
1.11012
1.63197
0.468495
1.07422
0.450746
0.871092
0.910175
0.998344
0.448583
0
0.740303
0.280986
0.77685
0
0.509062
0.43486
0.417987
1.06153
0.48508
0.406494
0
0.654352
0.660818
0.56204
0.645378
0.947268
0
0.856193
0.803702
0.774752
0
0.14965
0.792581
0.642196
1.79117
0
1.20533
0.729435
0
0.406534
0.881697
0.410272
0
1.55782
0
1.05122
0.892434
0.780425
0.881322
0
0
0
0
0.565997
1.76036
0.677217
0.836571
1.27508
0.857001
0
0.385235
0
0.483586
0.188576
0.634439
0
0.641759
0.342928
0.512555
0.50494
0.442644
0
0
0.509762
0.738748
0
0.580135
0.797437
0.716278
0
0.928652
1.10433
0.492627
0.281111
0.773308
0.0805742
0.596429
0.613524
1.2436
0
0
0
0
0
0
0
0
0
0
0
0
0
0
0
0
0
0
0
0
0
0
0
0
0
0
0
0
0
0
0
0
0
0
0
0
0
0
0
0
0
0
0
0
0
0
0
0
0
0
0
0
0
0
0
0
0
0
0
0
0
0
0
0
0.455196
0.561163
2.19846
0.618236
0.4467
0
0.511534
0.966279
0.371582
0.694364
0
0.403089
0.587767
0
0.506631
0.970576
0.573312
0.407284
0
0.645227
0.421695
0
0.849158
1.26411
0.210869
0.525683
3.10724
0.366575
0.447027
0
0.340446
0.577572
0.286002
0.598345
0.779899
0.446978
0.370945
0
0.22553
1.07579
0.829143
0.286536
0
1.37551
0.267644
0
1.2912
0.793411
0.214196
0.832961
0
0.300664
1.13167
0
0.703915
1.49913
0.599955
0.471156
0
1.05548
0.552126
0.131644
0.297831
0.883694
0
0.842261
0.293369
0.125375
0.802167
1.02124
1.86677
0.915558
0.549721
1.41921
0.439008
0
1.17167
0.448201
0.843941
0.204619
1.08533
1.21955
1.20328
0.743397
1.44759
0
0.783441
1.20751
1.4461
1.03073
1.22117
0.475154
0.667673
0.540735
0.496617
1.08633
1.41009
2.09489
0.429338
1.19953
0.573015
0.735789
0
0
0.649323
0.62304
0.702569
0
0.460236
0
0.50572
0
0
0
0.784268
0.652111
1.25815
0.903163
1.25826
0.506235
0.445275
0.16405
0.350722
0
0.518319
0.717198
0.935455
0
0.339836
0.987596
0.558955
0.519096
0.381012
0.279028
0.491107
1.06065
0.772546
0.719116
0
0.279545
0.832
0.913712
0.96522
0.792718
1.50332
0
0
0.857567
0
1.30822
0
0.0961226
0.745688
0.4588
0
0
0.359765
0.412123
0.722376
0.535882
0.678994
0.806379
0.347287
0.646222
0.567515
0.977483
0.303507
0.763038
1.02997
0.59639
0.866173
0.974587
0.604878
0.197002
0.462892
1.99913
0.689752
1.15351
0.968669
0.536682
0.352587
0.561614
0.561705
0
1.28778
0.335077
0
0.629206
0
1.0135
0.972423
0.523217
0
0.555635
0.311367
0.468922
0
0.734132
0.680409
0.999132
0.428269
0
0.703062
0.563699
0
0
0.463594
0
0.531959
0
0.322434
0
0.474751
0.252172
0.389265
0
0
0.739882
0.685302
0.872993
0.665538
0
0.350527
0
0
0.600893
0.231509
0.148451
0.216192
0.58951
0.725737
1.40374
0.662585
0.4702
0.379295
0
1.56199
0.77132
0
0.659625
0.337103
1.85448
0.507648
0.17038
0.392962
0.685869
0.920757
0.729992
0.751447
1.04363
1.08919
1.27698
0.728808
0.185518
0.839958
0.350243
0.914093
0.871668
0.95742
0.632486
0.610886
0.505724
0
0
2.14185
1.16193
0.367496
0
0.791096
0.491076
0.78099
0.972231
0
0
0.622266
0.267484
0.669877
0.683001
0.558023
0.487628
0.15338
0.548805
0.604121
0.85052
0.127592
0
0
0.731551
0
0
2.06845
0.823607
0
0.690762
0.41683
0.688895
0.72252
0.244479
0.631199
0.547787
1.0551
0.940221
0.174517
0
0.861517
0.556318
0.688819
0
0.590554
0
0.287375
0.770257
0.787796
0.464457
0.470274
0.491356
0.485114
0.803788
0
0.128381
0
0.848363
0.18724
0.658842
0
0.826936
0.402478
2.03425
0
1.38084
0.997493
0.759231
0.838374
0
0
0.419766
0
0.345037
0
0
1.05931
0
0
0
0
0.196389
0.420407
0
0.534397
0
1.19192
0
0.496463
0.482093
0.290547
0
0.580669
0.994858
1.05828
0.832549
0.361356
1.08699
0.829446
0
0.836209
0.842762
0.819126
0.45129
0
0.356616
0
0.518418
0
0.351483
0.926574
0
0.87108
0.413713
0.894547
0
0.863952
0.37893
0.480286
0
1.27838
1.19856
0.490012
0.403861
0.869097
0.94795
0
0.421782
0.74422
0.319662
0
1.54366
0.75268
0
0.748073
0.978068
1.08335
1.06494
1.76883
0.513926
0.336955
0.563791
0.620966
0.53154
0.42611
0.50665
0
0
0.453306
0.49232
1.06518
0
0.429287
0
0.679197
0
0.677643
0.606707
0
0
0.467658
0.627767
0.725148
0.38467
0.574202
0.45479
0.61028
0.418876
0
1.41246
0.947286
0.326891
0.0709619
0.283922
0.309964
0.733673
0
0.65499
0.644707
0
0.831763
0.296828
0.472154
0.62779
0.645669
0.833804
0.906522
0
0.502673
0
0.362168
0
1.73093
0.750814
0.686856
1.58764
0
1.01949
0.73684
0.454046
0.746329
0.513309
1.15463
0.627681
0.459747
0.844348
0.645349
0.397117
0.486871
0.615585
0
0.358099
1.09812
0
0.593328
0
0
0.690315
0.667883
0.594192
0
0.716862
0.761866
0
0.40193
0
0.648811
1.53236
0
0.27524
0
0.744609
0
0.418052
0
0
0.783196
0.828215
0.281792
5.30771
4.40822
0
0
0.273072
0.559816
0.573268
0
0.280369
0
0.221745
1.35528
0.898915
0
1.11986
0.718452
1.13147
0.571808
0.766653
0.622467
0
0.390805
0.186495
0.406042
0
0.513383
0.239892
0.890202
0.344307
0.245238
0.253828
0.585597
0
0.678976
0.747258
0.680919
0
0.387842
0
0.323537
0
0.672265
0.285882
0.747818
0.87054
0.971781
0.516196
0.242039
0.535584
0.698094
0.870795
0.49131
0.423085
0.892966
0.626328
1.07212
0
0.337182
0
0.861565
0.35067
0
0
0.409205
0.664677
0.565791
0.359932
0.606782
0.494903
0.753697
1.10508
0.420765
0.282453
0.784639
0.218667
0.697093
0
0
0.209415
0.822413
1.21029
1.23974
0.320004
0.714997
1.63671
0.589161
1.14511
0.481529
0.756879
1.19355
1.17787
0
0.706919
0.556334
0
0.937768
0.539963
0
0.746769
0
0.294419
0
0.775468
0
0.432737
0.335445
0.672977
0
0.539043
0.929467
0.516639
0.42615
0.38804
0.431223
1.41145
0.928244
1.1888
1.19421
0.672649
0.223326
0.489843
0
0
0
0.776014
0
0.791356
0.556265
1.19196
0.804007
0.456527
2.25912
0.313055
0.569974
0.865857
0.540964
0.4329
0.369395
0.635828
1.27919
0.52183
0.18708
0
1.18829
0
0
0.274601
0.578505
0.646944
0
0.511373
0.581974
1.00815
0
0.280356
0.68834
0.788642
1.4385
0.975794
0
0.649925
0
1.18824
0.289709
0
0.624498
0.41897
1.00695
0
0.470397
1.48831
1.43786
0.459008
0
0.618544
0.802993
0.807952
1.00042
0.544862
0.229869
0
0
1.09426
0.743203
0.194939
0.648158
0.343885
0
0.782662
0
0.273221
0
0
0.318693
0
0.556351
0
0.88321
0
0.541377
0.581677
0
0
0.439987
0.234975
0.40802
0.333349
0
1.02813
0
0.549439
0
1.00551
0.842569
0.745222
0.454789
1.6353
0.584881
0.842206
0
0.480486
0.262798
0
0.451038
0
0.709142
0.464974
0
0.291256
0.47011
0.976614
0
0.29329
1.21337
0.742948
0.496381
0.345102
0.867021
0
0.975186
0
0.716634
0
0.59895
0.922148
0
0.641003
0
0
0.735212
0
0.251897
0
0.461736
0.569416
1.08101
0.404987
0
0.931644
1.07871
0.95757
0
0.449601
0.427948
0.651485
1.00657
0.285701
0
0.627523
1.22081
0.458443
0.25386
0.493491
0
0.376637
0
0.572184
0.971524
0.935359
0.442022
1.87491
0.779665
0
0.63552
1.13875
0
0.79055
0.889765
0
0
1.15678
0.445905
0
1.10759
0
0.764694
0.710469
0
0
0.436668
0.0945186
0.388518
0
0
0.556039
0.436039
1.36998
0
0
0.460538
0
0
0.577319
0.793791
1.02284
0
0.932496
0.291565
0
0.558836
0
0
0.668621
0.850321
1.2192
1.06844
0
0
0
0.942218
0.642287
0.979354
0.242506
0
0.704264
0.599122
3.38411
0.499521
0.687614
0.505498
0.59189
0.432378
0.400204
0
1.36144
0
0.200162
0
0
0.627135
0.192442
0
0.36815
1.09095
0.473426
0.671526
0.526195
0.768641
0.626513
0.732988
0
1.28664
1.2583
0.192047
0.701103
0.709085
1.64184
0
1.21673
0.194567
0.834155
1.21277
0.39025
0.93517
0
0
0.424565
0
0.273969
0.673808
0
0
0
0.535647
0.617751
0.490514
0
0.687369
0
0.791398
0
0
0.992286
1.37216
0
0.943071
0.74982
0.755624
1.07868
0.71923
1.42625
0.623112
0.832265
0.364367
0.817143
1.71612
0.63095
0.487396
0.238773
0
0.738025
0.660889
0.51875
0.263651
0
0.704742
0
0.797633
0.676259
0.809053
0.710647
0.598616
0.396763
0.516758
0.928857
1.07227
1.03295
0.492753
1.02374
0
0.554915
0
0.684571
1.01541
0
0.694126
0.100676
0
0.53533
0.611364
0.671973
0.515287
0.299007
0.78603
0
0.82066
0.751629
1.152
0
0.423617
0.433588
0
0
1.5971
0.636358
0
0.512875
0
0
0
0
0
0
0
0
0
0
0
0
0
0
0
0
0
0
0
0
0
0
0
0
0
0
0
0
0
0
0
0
0
0
0
0
0
0
0
0
0
0
0
0
0
0
0
0
0
0
0
0
0
0
0
0
0
0
0
0
0
0
0
0
0.277964
0.560248
0
0.516652
0.483448
0
0.529296
0.96452
0.433936
0.461937
0
0.676104
0.549976
0
0.747039
1.17985
0.291917
0.491992
0
0.42891
0.55417
0
0.431695
1.39397
0.449124
0.553732
0
0.453839
0.467128
0
0.413024
0.774796
1.65409
0.713285
0
1.35099
0.534555
0
1.66176
0.470652
0.10856
1.13913
0
0.576054
0.794388
0
0.29942
1.13851
0.326473
0.551368
0
0.785132
0.308361
0
1.01259
0.46937
0.156255
0.199143
0
0.382757
0.892928
0.561217
0.327313
0
1.3871
0.6897
1.34131
0.733704
0.801839
0
0.681643
0.945797
1.90257
0.909869
0
0.711292
0.707706
1.12834
0.959324
0.686995
1.08179
0.545443
0.259434
1.1618
1.11853
0.50418
0.855892
0.868192
0.525819
0.55533
0.460342
0.382961
0.491694
0
0
0
1.42977
0.658505
1.03694
0
0.280881
0
0.607242
0.438512
0.550383
1.46239
0.665037
0.107931
0.887403
0.813113
0.761073
0
0.60638
0.523873
0.346616
0.631639
0.48889
0
0.654855
0
0.420047
0.405867
0
0.268709
0.828434
0
0
0.994701
0.834817
1.02065
0.513621
1.02564
0.618332
0
0.452375
0.4546
0.689297
0
0.457749
0
0.560295
0
0.230687
0.507964
0
0.540731
0.664299
0.455303
0
0.717491
0
0.456763
0
0.342995
0
0.646252
0
0.411174
0
0
0
0.938678
0.41541
1.18279
0.608986
0.670079
0.541477
0
0
0
0.516156
0.635765
0.838213
0.549902
0
0.660479
0.591398
0.659685
0.403108
0.765141
0.501191
1.05611
1.46545
0.854387
0.556887
0
0.858737
0.225145