<?xml version="1.0"?>
<VTKFile type="RectilinearGrid">
<RectilinearGrid WholeExtent="0 32 0 32 0 32" Origin="0 0 0" Spacing="1 1 1">
<Piece Extent="0 32 0 32 0 32">
<PointData>
</PointData>
<Coordinates>
<DataArray type="Float32" format="ascii">
0 0.524874 1.04975 1.57462 2.0995 2.62437 3.14924 3.67412 4.19899 4.72386 5.24874 5.77361 6.29849 6.82336 7.34823 7.87311 8.39798 8.92285 9.44773 9.9726 10.4975 11.0224 11.5472 12.0721 12.597 13.1218 13.6467 14.1716 14.6965 15.2213 15.7462 16.2711 16.796 
</DataArray>
<DataArray type="Float32" format="ascii">
-5.03879 -3.62163 -2.20447 -0.787311 0.629849 2.04701 3.46417 4.88133 6.29849 7.71565 9.1328 10.55 11.9671 13.3843 14.8014 16.2186 17.6358 19.0529 20.4701 21.8872 23.3044 24.7216 26.1387 27.5559 28.973 30.3902 31.8074 33.2245 34.6417 36.0588 37.476 38.8931 40.3103 
</DataArray>
<DataArray type="Float32" format="ascii">
0 0.524874 1.04975 1.57462 2.0995 2.62437 3.14924 3.67412 4.19899 4.72386 5.24874 5.77361 6.29849 6.82336 7.34823 7.87311 8.39798 8.92285 9.44773 9.9726 10.4975 11.0224 11.5472 12.0721 12.597 13.1218 13.6467 14.1716 14.6965 15.2213 15.7462 16.2711 16.796 
</DataArray>
</Coordinates>
<CellData>
<DataArray type="Float32" Name="Scalar" format="ascii">
0
0
0
0
0
0
0
0
0
0
0
0
0
0
0
0
0
0
0
0
0
0
0
0
0
0
0
0
0
0
0
0
0
0
0
0
0
0
0
0
0
0
0
0
0
0
0
0
0
0
0
0
0
0
0
0
0
0
0
0
0
0
0
0
0.168692
0.48795
0
0.335983
0.211995
0
0.412048
1.33826
0.266429
0.496044
0
0.494248
0.560974
1.693
0.324854
0.556385
0.0582373
0.342438
0.259897
0.329394
0.236919
0
0.435103
1.51328
0.237809
0.273881
0.296777
0.323166
0.409363
1.62348
0.295742
1.4871
0.118541
1.61208
0
0.13001
0.965715
0.794291
0.370715
0
0
0.180236
0
0.837395
0.253378
0
2.46036
0.561079
0.058278
0.451191
0
0.26779
0.403815
0
0.0469595
0
1.17525
0.111764
0
1.55482
0.160962
0
0.801318
0.634802
0.144336
1.54567
0
0
0.852281
0.37431
0
0.257804
1.94999
0.256857
0.564091
0
0.463258
0.299177
0.505736
0
0.93221
0.706469
0.651785
0.331501
0.663958
0
0.246291
0
0.497974
1.41596
2.65246
1.02537
1.14061
0.546193
0.787194
0.661451
1.16827
0.354074
0.211485
1.05296
1.14848
0
0.551199
0.338022
0
0.911297
0
0
0.526056
1.93631
0
0.508316
0.130829
0
0
0.464065
0.617248
0.354652
0
0.708784
0
0.841367
0
0.380605
0.689154
0
0
0.613344
0
0.745351
0.634156
0.593235
0
0.735247
0.299825
0
0
0
0.594102
0.757827
1.13443
0.803336
0.989373
0
0.812057
1.22303
1.33284
1.77514
1.38153
0
0.29024
0.662346
0
0.842498
0.506177
0.700279
0
0
0.761358
1.12681
0
0.870973
0.294704
0
0.818721
0.621844
0
0.625219
0.985718
0.505263
0.38943
0.610957
1.2117
0
0.197003
0
0.590703
0
0.499707
0.303051
0.569096
0.528139
0.378135
1.04151
0
0.662788
1.35594
0.448562
0
0.442035
0
1.33285
0
0.398355
0
0.716812
0
0.888993
0
0.705008
0
0.393396
0
0
0.7682
0.383077
0.565903
0.775971
0
0
0.522358
0.739073
0.651173
0.621143
0.509642
0.657515
0.945153
0
0.673633
0
0
0.795194
0.535857
0.569099
1.07137
0.686281
1.18017
2.24347
0.480253
1.06019
0.886628
0.629158
1.58627
1.491
0.419059
1.08578
0.877924
0.610862
0
0.159062
0.699077
0
1.22937
0.727517
0.535228
0
0.758089
0
0.857957
0.356932
0
0.855874
0.668735
0.543121
0.680094
1.49958
0
1.65036
0
0.35962
0.392549
0.563615
0.399863
0.660579
1.32758
0
1.09579
0.579358
0.545459
0.747986
0
0.54344
0
0.529396
0
0.561438
0.350752
1.53217
0.853816
0
0.343747
0.262785
0.873816
0.869855
0.210439
0.712735
0.457736
0.812445
0.785601
1.01072
0
0.705102
0
1.16849
0
0.573468
0.577138
0.712387
1.61857
2.59533
0
0.677339
0.55619
0
0.757396
1.63894
0
0.798798
1.01448
0.600068
0.474705
0.486459
0
0.816852
0
0
0
0.992236
0.520866
1.02995
0.242331
1.54443
0.581785
0.786782
0
0.409503
0.466945
0
0.820043
0.757859
0.704135
1.12624
0.154238
0.426483
0
0.888686
0.376899
0
0.360218
0.16489
0.957182
0
0.328429
0
0.858436
0
0.409836
0.783259
0.630136
0.443446
0.634831
0.824895
0.929751
0.873575
0.471669
0
0.381981
0
0.567197
0.625006
0.828846
0
1.22818
0.414337
0.860174
0.750099
1.26881
0.337281
0.803094
1.04899
0.339975
0.667006
0.450571
0.115542
0
0.421013
0
0.213877
0.485713
0.395755
0.55256
0
0.268946
0
0.429925
0.534551
0.633485
1.18409
0.365525
0
0.269888
0.883
0.707051
0
0.749796
0.45484
0
0.897631
0.909143
0.822827
0.803514
0.401146
0.534686
0
0.998027
0
0.86183
0.265222
0.735986
0.651681
0.408579
0.390143
0
0.582974
0
1.09228
1.48871
1.13086
0.947965
0
0.792052
0.544599
0.520199
0
0.605955
0.939354
0.350481
0.575112
1.26393
0.845799
0.300951
0.868705
1.77715
0.554608
0
0.427748
0.758235
0.515258
0.445082
0.559018
0.43436
0.45356
0.158565
0.672597
0.271562
0.640321
0.949711
0
0.559645
0
1.18045
0
0.496499
0
0.38757
0
0.941817
0.210216
0.403266
1.08766
0.449331
0
0.385682
0.905591
0.756158
0.518974
0.499051
0.277502
0.665994
0.714097
0.318456
0
0.92144
0.862594
0
0
0.865197
0
1.05215
0
0.994439
0.137218
0.334377
0
0.886795
0.638336
2.75004
0
0.438984
0.569345
0
0.7097
1.28683
0.246882
0.424324
0.594572
0.715335
0.624271
0
0.324786
0.662344
0.738248
0.187904
0.760019
0
1.07412
0
0.428674
0.547779
0
0.418658
1.24952
0.485229
0.204043
0
0.596165
0.205195
0
0.455971
1.27901
1.50588
1.35451
0.716185
1.15484
1.20565
0.868808
0.385587
0.435193
0.70564
0.930251
0.294796
1.48427
0.556863
0.646751
0
0.753398
0
0.625026
0.834227
0.448229
0
0
0.568278
0.688504
0.344772
0
0.218758
0.936436
0.613039
1.15605
0.893805
0.799075
0.94614
1.4161
0.331545
0.190332
0.383693
0.483914
0
0
1.86679
0.444677
0.456134
0
0.652872
0.714286
0.692213
0.738916
1.19203
0.634596
0.489182
0.131559
0
2.16416
0.644191
0.0871919
0.761074
0
0
0.746193
0.687376
0.651924
0.809982
0.416089
0.875041
0
0.75635
0
0.22342
0.390558
0.537024
0
1.15394
0.571884
0
0.274576
0.554471
0.968845
0
0.271851
1.28964
0.915933
1.26188
0.419526
0.304065
0
0.444974
0.405234
1.08042
1.42137
0.701547
0.307293
0
0.6737
0
0.680435
0
0
0.597464
0.491077
0
1.34866
0.387423
0.1535
0.408413
0.93853
0.323706
0.333184
0
0.558347
1.63339
0.834391
0.505849
0
0.35825
0.737812
0.755004
0.303535
0.528912
0
0
0.668606
0
0.487278
0
1.24617
0.655871
0.537472
0.481689
0.402472
0.591269
0.572616
1.95546
0.542405
0.337628
0.434386
0
0.526703
0.813436
0.540611
1.1197
0
1.51176
2.3282
0.382205
0.658263
0.378891
0.123992
0.459109
0.186458
0.534738
1.36314
0
0.667624
0.671414
0
0.706176
0.78474
0.459548
0.271848
0.680226
0.666387
1.11934
0.358366
0.381775
0.891551
1.00855
0.603641
0
0.735193
0.624645
1.21199
0.888313
0.380602
0.443946
0.393045
0.615798
0.41512
0
0.567747
0
0.729399
1.26977
0.666552
0.974463
0.846725
0.309309
2.53733
0
1.42148
1.20989
0.39337
0.56939
1.00935
1.07329
0.624487
0
0.296055
0
0.0566103
0.665058
0.988504
0
0.501536
0
0.737388
0.896154
0
0.577123
0.194751
0.701371
0.501468
0.751395
0.661041
0.649708
0.899584
0
0.601511
0.517364
0.304341
0
1.03489
0.718446
0.290151
0.918356
0
0
0.501356
0.768724
0
0.471016
0.738791
0
0
0.983542
0.353823
0
0
0.0761486
0.853164
0.669966
0
0
0.99345
0
0.713095
0
0.9009
0
0.893542
0
0.546497
0.547933
0.271059
0.454858
0.501819
0.730615
0.659242
0
1.13809
0.815489
0.568664
1.1066
0
0.70416
0
1.20272
0.674169
0
0.962561
0
0.732261
0.138747
0.453513
0.250224
0
0.859471
0
0.989915
0.31048
1.06564
0.461989
0.481985
0.579869
0
0.906484
0.796715
0.462207
0.894133
0.270132
0
0.546846
0.685918
0.4129
1.51264
0
0.870729
0.862323
0.860414
0.394334
0.901126
0
2.3172
0
0.761947
1.16231
0
0.534761
2.80007
0.408832
0
0.258388
0
0.813506
0
0.467555
0
0.64646
0
1.32156
0.51816
0.107081
0.411765
0.195296
0.779739
0.192152
0.330223
0.512615
0.589116
1.05098
0.492335
0.513569
0.280593
0
1.57735
0.254746
0.785843
0.880329
0.799925
0.700281
1.0718
0.456624
1.93941
0
0
0.990601
1.52202
0
0.912742
1.11059
1.35535
0
0.760069
0.881567
0.728809
1.44279
0.4446
0.640041
0.861441
1.18173
1.29911
0.795435
0
0
0.499999
0.593154
0.627632
1.67144
1.03134
0.522385
0.685985
0
0
0
1.02574
0
0
0.423599
0
0.430038
0.192572
0
0.472738
0.245817
0.680032
0.849045
0
0.194435
0.614531
0.478347
0.64065
0
0.417758
0
1.58739
0.305674
1.22445
0.676158
0.620809
0.692803
0.970245
0
0.629761
0
0.93081
0.0714324
0
2.15851
0.694869
0.884889
1.01876
0.669519
0.60242
0
0.269597
0
0.583845
0.48326
1.55731
0
0.377206
0.299912
0.84472
1.03351
0.598741
1.06068
0
0.110554
0.34519
0.347718
1.18348
0.938908
0.876968
1.19192
0
0
0.333277
0.99423
0.949873
1.23474
0
0
0
0
0
0
0
0
0
0
0
0
0
0
0
0
0
0
0
0
0
0
0
0
0
0
0
0
0
0
0
0
0
0
0
0
0
0
0
0
0
0
0
0
0
0
0
0
0
0
0
0
0
0
0
0
0
0
0
0
0
0
0
0
0.242436
0.515617
0.549901
0.546052
0.561282
0
0.365871
1.79564
0.640477
0.424575
0
0.461716
0.607002
0
0.476668
1.53404
0.636409
0.599145
0
0.364511
0.522004
0
0.398589
0.945717
0.340981
0.332058
0.324797
0.639819
0.479211
0
0.544685
0.902832
0.408888
0.381407
0
0.477538
0.414905
0
1.02932
0.73447
0.25649
0.746331
0
0.310977
1.28419
0
0.305322
0.826417
0.901198
0.476379
0
0.674679
0.507768
0
0.637135
1.42509
0.440401
1.44706
0
0.306129
0.618026
0
0.169339
0.989362
0.386083
0.717085
0
0.431657
0
0.390592
0.897421
0.790073
1.47246
1.20784
0.33162
0.886282
1.8346
1.15157
0
1.02796
0.860103
1.13464
0.403605
0.53129
0
0.425327
0.829136
0.573379
0.541356
0.930066
0.536919
1.10329
0.807863
1.57916
1.55337
0.560984
0
0.699393
1.27793
0.256876
0.752026
0.723512
0.45142
0
0.416477
0.784583
0.707058
0.628172
0
0.545801
0
0.594383
0.887013
1.11968
0.579749
0.385546
0.894323
0.463832
0.75705
0.504088
0
0.494174
1.00148
0.534832
0
1.10802
1.03839
0.744675
0.19706
0.89617
0
0.763233
1.0196
0.778639
1.00416
0.477679
0.554526
0.827236
0.767664
1.14306
1.27948
1.00823
0.988907
0.895108
0
0
1.1411
0.796391
1.5831
1.04174
3.20159
0.434626
0.161952
0.786193
0
1.05076
0
0.47709
0.586508
0.912338
0.549221
0.489255
0
0.843035
0.480393
0.449953
0
0.993612
0.467329
1.28745
0
0.803235
0.544179
0
0.413116
0
0.423779
0.271452
0
0.759936
0
0.686475
0.120566
0.517403
0.49495
0.633445
0.686517
0.813451
0
0.371343
0.238464
0
0.59283
0.437467
0.366788
0
0.712707
0
0.327803
0.963827
0.766938
0.168582
0.345419
0.723882
0.976175
0.565921
0.870658
0.581204
0.879823
0.410129
1.41995
0.640562
1.45175
1.14644
0.835589
0.37968
0.360152
0
0
0.0817713
0.0892397
0.336973
0.604235
0.447388
1.02058
1.0999
1.01387
0.62182
0.740949
0.431372
0
0.255663
0.242319
0
0.564865
0.453412
0.751345
0
0.364661
0.461208
1.81044
0.524832
0.845778
0.958935
1.29199
0.570219
0.929418
0.610279
0
0.575337
0
0.710425
0
0
0.334489
0
1.21281
0.664078
1.57605
0.589437
0
0.839938
0.781657
0
1.30182
0.675161
0.430905
0
1.1559
2.19562
0
0.509042
0
0.141648
0.522077
0.389142
0.606155
1.0028
0
0.342539
0
0.676887
0
0
0.732452
0.980884
0
0.525805
0.589705
0
0
1.10288
0.538405
3.53895
0.854945
0
0.81583
0.829845
0.577577
0.519786
0
0
0.572767
0
1.1964
0.511075
0.561647
1.27643
0.915213
0.442418
0.471324
0
0.935925
0.520294
1.86651
0
0.36851
0
0
0.935325
0
0.71169
0.358815
0
0.38541
0.498301
0
0.446779
0.554196
0
0.88204
0.463678
0.601276
0
0.932652
0.666929
0
1.00809
0
0.525416
1.04336
1.25923
0
0
2.13458
1.00035
0.74359
0.570762
0.677631
0.524236
0.411922
0.724019
0
0
0.246686
0
1.49535
0.603668
0
0.533239
0.487121
0
1.37036
0
0.294933
0.817275
0.917487
0.579593
0.423474
1.25563
0.421961
1.07282
0
0.681345
0.460268
0.421924
0.616379
0.739203
0.538604
0.404652
0.409545
0.710302
0
0.699629
0.494767
0.0667192
0.507552
0.323978
0.301447
0.696553
0.586997
1.32094
1.08032
1.19823
0.89595
0
0.428686
1.03249
0.703982
0
0.350917
0.583055
2.50863
0.981712
1.21648
0.775061
0.515526
0.369788
0.841331
0
0.83301
0
0
0.960673
0
0
0.939502
0.284448
1.17441
0
0.702446
0
0
0
0.748897
0
0.329919
0
0.609929
0
0.886152
0
0.364938
0
0
1.32391
0
0.162224
0.84096
0.419511
0.736604
0
0.318327
0
0.580926
0.392251
0.378972
0.734
0
0.615804
0
0
0.506257
2.83875
0.57299
0
0
0
0.509289
0
0.395388
0
0.235612
0
0.341575
0.749296
0.556784
0.682438
0.503608
1.21053
0.259342
0.354774
1.03644
0.843229
0
0
0.372156
0
0.832065
0.625503
0
0.533767
1.07888
0.988353
0
0
0.866361
1.42097
1.68339
0.797862
0.729557
0.489331
0.624584
0.599916
2.15019
0.427588
0.693867
0.441391
0.337022
0.663541
0
0.699595
0
0.672318
0
0.693194
0.977416
0.755561
0.473688
0.37136
0
0.262971
0
0.460521
0.259506
0.725569
0.247795
0.491534
0
0.897861
0
0.327967
0
0
0.474158
0.471097
0.699096
0.833678
0.537413
0
0.374462
0.451034
0
0.426779
0
0.548058
0
0.610366
0.546043
1.1009
0
0.503135
0.6012
0
0
0.468571
0.734201
1.15894
0.511688
0.738575
0.924941
0.2447
0
0.71201
0
0.949303
0
0.419408
0
0.611318
0.296946
0
0.574687
0.391476
0.957682
0
0.483685
0
0.341687
0.767811
0
0.246677
0.193831
0.532311
0.12806
0.385846
0.56102
0.456571
0
0.580563
0.630199
1.17819
0.77067
1.12193
0.564792
1.9596
0.510974
0.239429
0.82661
1.42988
1.77524
0.424043
0.693581
0
0.435395
0.651817
0
0.611769
0
0.511507
1.18099
1.43216
0.862023
0.294145
0
0
0.467569
0.698109
0.539931
0.882688
0
0
0.710318
0.659384
0.674781
0.597019
0.84553
1.81469
0.667269
0.553881
0.411514
0.667652
0
0
0
0.423955
0.80703
0.214524
0
0
0
1.10892
0
0.930357
0
1.16179
1.34511
0
0.459796
0
0.498634
0.367889
0.561985
0.489268
0
0.632076
0
1.70789
0
1.89495
0.505614
0
0.739696
0.543466
1.35193
0.343693
0.29307
0.273502
1.04553
1.09155
1.36162
0.68566
1.17151
0
0.507206
2.43471
1.49084
0.57864
0.413789
1.60362
1.51533
0.564586
0.316002
0.769418
0
0.927983
0.594406
0.416322
0.421672
0
0.508419
0
0.341442
0
0.701669
0
0
0.313855
0.766246
0
0
0.606282
0.922279
0.366609
0.835631
0
0.520654
0
0.59759
0
0.634656
1.27529
1.25853
0.3994
0.218349
0.420112
0
0.612827
0
0.392562
0
0.509204
0
0.297275
0.54662
0.470867
0.318446
1.15586
0.908031
0.519717
0
0.607479
0.267766
0.562052
0
0
0
0.471636
0
1.13203
0.740717
1.22559
0.938517
0.730279
0.845172
0.428776
0.815159
0.934143
0
1.01941
0.356175
0
1.68105
0.558587
0
0.223205
0.764795
0
0
0.307395
0.636509
0
0.408798
0.400719
0
0.713803
0.498216
0
0.809383
0.292988
0.572177
0.538537
0.777462
0
0.275487
1.07553
0
0
0.495307
0
0
0.588558
0
0.469877
0.700923
1.01514
0.352177
0.291824
0.970332
1.24478
0
0
0.839013
0.19524
0.42724
0.341211
0.95919
0.620095
0.84859
0.566451
0
0.992632
0.926047
1.66664
0
0.441278
0
0.30941
0
1.84724
0.530491
0.523904
0
1.28286
0.950804
0
0
0
0
0.423467
0.495455
0
1.02053
0.374785
0.680881
0.662852
0
0
0.988096
0.712947
0
0.407031
2.01602
0.583197
0
0.990676
0.310571
0.672156
0
0.760587
0.4811
0.623899
0
0.727593
0
0.402116
0.928194
0.795171
0.385656
0.449714
0.9949
0.496122
0
0.304823
0.963875
0
0.763642
1.64132
0.196717
0
0
0
0.309091
0.936437
0
0.581681
0.912125
0.419285
0.670372
0.856657
0
0
0
0.607705
0.577873
0
0.520988
1.04686
1.0013
0
0.777129
0.751237
0.765207
0.344952
0
1.55556
0.499203
0.786036
0.41753
0.693036
0
0.484255
0.687942
1.04097
1.39929
0
0
0.837797
0
0.478104
0.293655
1.06145
1.52972
0
0.744832
0.13338
0
0.993806
0.541488
0.357569
0
0.334642
0
0.650738
0
0.55049
0
0.290962
0.266667
0.448537
1.46039
0
0
0.594668
2.07095
0.653241
2.19697
0
0
0
0.830563
0
0.732122
0
0
1.84009
1.02188
1.18102
1.36419
0.67839
0
0.257109
0.394034
0.559294
0.509529
0.485812
0.621168
0.795806
0.563281
0
0
0
0.744366
0.654203
0
0.942939
0.568398
1.4886
0
0.267178
0
0.370962
0.888636
1.52634
0.829238
0.855571
0.62018
0
0.593395
0.693227
0
0
0
0
0
0
0
0
0
0
0
0
0
0
0
0
0
0
0
0
0
0
0
0
0
0
0
0
0
0
0
0
0
0
0
0
0
0
0
0
0
0
0
0
0
0
0
0
0
0
0
0
0
0
0
0
0
0
0
0
0
0
0
0
1.41244
0.21199
0
0.482903
0
0
0
1.49844
1.37383
0
0
0
1.76802
0
2.00782
0
0
0
0
0
0.685986
0
0.954115
0
0
0
3.62035
3.84402
1.55791
0
0
0.142697
0
0
0
0
0
0
0.44654
0
0
0
0
0
0
0
0
0
0
0
0
0.185833
0
0
0
0
0
0
0
0
1.10553
0
0
0
0
0.706222
0.63483
0.496505
2.60172
2.21679
0.392331
0.8266
0.677452
1.05668
1.48519
0.33229
1.22954
0
1.12341
0.525678
0
0.400628
0.556729
0.440489
0.735418
1.66943
0
1.05929
0
1.30384
0
0.751757
0.737553
0.770786
0.629321
0.551996
1.73888
0.904535
0.774909
0.649161
0.834029
0.340787
0.238696
0
0.54609
0
0.358657
0.561351
0
1.63075
0.695105
0.614027
0.914703
0
1.46653
1.07763
0.719365
1.15548
1.60652
0
0.936083
0.688819
1.20571
2.07443
0.941605
0
0
0.348054
0
0.923944
0.680486
1.24091
0.805602
0
0.406056
0
0.42637
0.631859
0
0.885215
1.12501
0.912111
0.325638
0.487976
0.505794
0.557457
0
0.764679
0.639437
2.36246
0.723174
0
0
0.483522
0.550327
0.734397
1.07236
0.650347
0.415521
0
0.365144
1.08888
0.0975814
0.439597
0
0.370383
0
0.688924
1.03094
0.523709
0
0.712396
1.53986
0.230327
0.51753
0
0.457302
0
0.779093
0.582799
0
0.566919
0.213106
0.832997
1.08165
0.983615
1.01898
0
0.773623
1.07178
0.726612
0
0.312843
1.03454
0.461973
0.774765
0.640283
0.581221
0.973207
0.431712
0
0.935308
0
0
0
0.527854
0.830677
0.369323
0
0
0
0.66827
0.621487
3.15498
0.667936
0.305347
0.79321
0
0.59584
0.873884
1.41863
0.485047
0.646663
0
0.452276
0.788613
0.182943
0
0
0.436549
0.571055
0.532248
0.498403
0.978525
0.40161
1.18519
1.30641
0.749311
0
0
0.547138
0
0.585248
0.338469
0.88015
1.77152
1.03847
0.821301
0.635945
0.427842
0.339739
0.459091
0
0.732037
0.160274
0.644881
1.10869
0.830789
0.331834
0
0.637219
0.730801
1.79445
2.07056
1.42067
0.648176
1.13346
0.499945
0.523284
1.65206
1.02641
0
0.413826
0
1.12915
1.01211
0.294314
0.845526
0
0
0.592305
0.407065
0.731894
0
0
0.441615
0.728571
0.625264
0
0.739217
0.452065
0.627374
0.377525
0
0.518449
0
0.718987
0
0.98101
0.781414
0.391975
0.629863
0.7741
0.858383
0.815684
0.584984
0.563514
0.519204
0.875272
0.445126
1.19628
0.752403
0.61689
0.632664
0.613249
0.320096
0
1.18733
1.02566
0.714265
0.289344
0
0.84677
0.698978
0.359381
0.527704
0.804439
0.752711
0.986744
0.570063
1.02036
0
0
0.631714
0.709855
0.502381
0
0.924939
0.407085
0.561961
0
0
0.453922
0.343942
0
1.092
0.690945
1.04296
1.15791
1.44552
2.18865
0.303618
0.509557
0.92736
0.527733
0.722492
0
0
0.448028
0
0.72968
0.590471
0.478466
0
0.296918
1.5102
0.891004
1.20152
0
0
0
0.890797
0.558505
0.208703
0.478369
0.227969
1.28344
0
0.421414
0.493938
0
0.758469
0
0.448657
0
0.849938
0.541111
0.982257
0
0.484592
0.192442
0.793072
0.544879
1.2814
0.701957
0.632893
0
0.553491
0
0
0.241431
0.244908
0.540179
0
0
0.501931
0
0.728065
0
0.53133
1.53036
0.691251
0.412877
0
0.619463
0.742647
0
1.07633
1.25777
0.539501
0.357767
0.444955
0.452039
0.426769
0.566778
1.07738
0.483602
0
0.306269
0
0.412465
0.364561
0.693785
1.22136
0.771262
0.309126
0.532048
0.886298
0.725558
0
0.66865
0.630315
0
0.639831
0.497345
0.343962
0.549721
0
0
0.352194
0.418291
0.721367
0.128398
0
0.131027
0.202407
0.726388
0.589172
0.408664
0.783102
0.363953
0.379661
0.264366
0.329605
0.403727
0
0.639682
0.412499
0.646259
1.91341
0.510143
1.4072
0.342709
0.322285
0.530629
0.839683
0
0.394906
0
0.513588
0
0.453725
0.621712
1.01811
0.464136
0.294577
0.559641
0.597026
0.623851
1.06683
0.403669
0.531593
0.869954
1.80238
0.455371
0.588362
0.411051
0
0.269623
0
1.11807
0.746743
0.893196
0
1.75026
0.544773
0.31464
0.409904
0.926901
0.786973
0.454803
0.568477
0.526498
0
0.625086
0
0.0904714
0
0
0.356491
0
0.185732
0.935129
0.466507
0.687913
0
0.597972
0
0.352144
0.802911
1.47153
0.48451
0.322944
0.491508
0.50693
0
0
0.53615
0.962763
0
0.4505
0
0.915161
0.490575
0.663857
1.03552
0
1.41437
0.814651
0
1.49746
0.431419
0.687789
0.720979
0
0.484678
1.21609
0.736181
0.508868
0
0.408495
0.737778
0
1.20162
0.42321
0
0.586396
0.730384
0.99407
0.386337
0.250512
0.238067
0.183526
0.528064
0.483819
0.255849
0.721295
0
0
0.349289
0
0.844689
0.827092
0.812378
1.2148
1.04498
0.487811
0.71366
0.558654
1.8644
1.77989
0.773598
0.950213
1.11849
0
0
0.214393
0
0.0384576
0.919337
1.11222
0
1.11089
0.734578
0.725606
0.489637
0.894271
0.608417
0.437677
1.15427
0.969581
0
0.4712
0.477753
0.544377
0
0.478059
1.78778
0.594949
0.332953
0.399301
0.507032
0.652227
0.307916
1.01245
0.648306
0
0.891989
0.61951
0.856067
0.317833
0
0.68649
0.540926
0.316118
1.05673
1.62662
0.721585
1.06915
0.498264
0.2862
0.225872
0.439994
0.428435
0.626905
0.263954
0
0.675037
0.199345
0.507357
0.709719
1.33015
0.79313
0.435157
1.02933
0.562837
1.14435
0.85097
0
0.460096
1.26936
0
0.48664
0.697284
0
0.487656
0.729497
0
1.17345
0.868098
0
0
0
0.727457
0.395519
0.432519
0.311693
0.270437
0
0.446501
2.01155
2.4204
0.865932
0.262971
0.511829
0.392546
0.405966
0.384663
0.967658
0.164177
0.534124
0.627916
0.777409
0.411677
0.513946
0.622431
0.499215
0
0.960853
0.246932
0
0
0.776713
0.964326
0.259213
0.360365
0.359932
0.629391
0
0
0
0.631247
0.449217
0.475526
0.42859
0.867612
0.445498
0.868256
0.441102
0.469241
0.125485
0.170436
0.787236
1.30249
1.01913
0.829303
0.57228
0.652212
0.388582
1.03393
0.786201
0.554333
0.845269
0.461263
1.02394
0.582157
0.611534
1.03282
0.476425
0
0.940122
0.491639
0.9238
0
0.562622
0
0.867679
0.335885
0.550071
0
0.601792
0.287337
0
0
0.54104
0
0.622135
0
0
0.324042
0.612937
0
0
0.535339
0.498901
0
0.813173
0
0.837903
1.36194
0.466314
0
0
0.474279
0
0.755427
0
0
0.421041
1.15315
0.515009
0.458981
0.997001
1.54384
2.10378
0.27909
0.606735
0.218534
0.770154
0.383321
0
1.16048
0
0
0
0.706054
0
0.272323
0.650732
1.56221
1.8222
0
0.320072
0.65899
0.525659
0.74817
0.44999
0.354504
1.02168
0.498752
0
0.677889
0.736321
0
0.622811
1.77684
1.11036
0
0.918977
0
0.432286
0.907497
0.510496
1.26013
1.0504
0.684561
1.31684
0
0.823345
0
0
0
0
0.39507
0.272459
0.236243
0.844115
0.630645
0.825125
0.465295
0.166893
0.676247
1.02199
0.923826
0.63514
0.793795
0.525725
0.971821
0.876569
0.565376
0.636922
0.508762
0.510753
0
0.753887
0.625665
0.74864
1.49251
0.954514
0.406833
0.977404
1.0053
1.59905
0
0
0
0.0781221
0
0
1.44679
0.629015
0
0
0.481736
0.322815
0.676254
0
0.680626
1.08935
0.280386
0.740427
0
0.706151
0.759206
0.832819
0.475156
0.562064
1.11234
0.641337
0.922583
0.268538
0
0.476698
0
0.559209
0.850739
0.508974
0.59259
0.306169
1.74443
0
0
0
0.439918
0.164013
0.533271
0
0.905378
0.340619
0
0.691897
0
0.561847
0
0.758257
0
0
0.279782
0
0.78233
2.03286
0.776433
0.709512
0.717768
0.629907
1.28466
0.621947
0.68791
1.09731
0.705216
0.465429
0.594854
0.216706
0.50902
0
0
1.42591
0.973306
0.79193
0.662922
0.456697
0.431946
1.06172
1.05778
0.49358
1.53688
1.26505
0.859924
0.481296
3.14563
0
1.2596
0
0.725389
0.954521
0.937931
0
0.524784
1.02129
0.485055
0
0
0
0
0
0
0
0
0
0
0
0
0
0
0
0
0
0
0
0
0
0
0
0
0
0
0
0
0
0
0
0
0
0
0
0
0
0
0
0
0
0
0
0
0
0
0
0
0
0
0
0
0
0
0
0
0
0
0
0
0
0
0
0
0.458018
0.522351
0
0.438201
0.532047
0
0.546982
1.11763
0.548026
0.307048
0.560192
0.489536
0.60549
0.96132
0.692389
0.87803
0.225725
0.532412
0
0.314095
0.568599
0
0.470997
0.979752
0.363837
0.356762
0
0.535999
0.592716
1.03891
0.421131
1.48532
0.233059
1.84822
0.0428214
0.268557
0.652519
0
0.357447
0
0.568248
0.148642
0
1.47461
0.51898
0
0.948587
0.640148
0.192961
0.810944
0
0.324018
1.17919
0
0.283668
2.35929
0.883792
0.940358
0
0.977681
0.813482
0
0.623882
0.860851
0.644476
0.420882
0.27388
0.912562
1.84556
0.711244
0.716414
0.569711
0.765492
1.06734
0.994181
0.890694
0.571948
0
1.65768
0.727895
0.583315
0.687758
0.382925
0.73737
0.97855
1.11067
0.646923
1.22658
1.19894
0.583687
0
0.229493
1.50797
0.634187
0.960637
1.02442
0.964007
0.483104
0.172274
0.939836
0
0
0.933864
0.7296
0.492916
0
0.646564
0.360133
0.766583
0
0
1.21095
1.89213
0.56264
0.45009
0.307842
0.542622
0
0.535289
0.8351
0.64846
0.309735
0.923244
0
0
0.556367
0.978044
0.894041
0
0.552567
0.296914
0.662544
0.943474
0.639551
0.529098
1.28135
0.682055
0.54923
0
0.428509
1.36612
1.05274
0.342553
0
0.947398
0.739826
0
0.456697
1.19197
0.814624
0.772929
0.505763
0
0.373525
0
0.617297
0
0.503866
0
0.80027
1.05805
0.487205
0.694189
1.26645
0
0
0.592008
1.02787
0.808133
0
2.52566
0.81019
0
0.199515
0.35987
0.879553
0.398648
1.56496
0.528133
0.285428
0.336227
0
0
3.19769
0
0.528557
1.38358
0.657137
0.771542
0
0.939551
0.593131
0
0.264028
0.395959
0
0.579681
0.137905
0
0.51323
0.758473
0.526832
0.605817
0.744196
0
0
0.328096
0.685341
0.531875
1.08281
0.297404
0
0
0.597148
0.815941
0
0.304485
0.617775
0
0
1.14364
0
0.872311
0.774857
0.826459
1.12103
0
0.587275
0
0
0
0.497155
0.840224
0.51213
0.906456
1.87776
1.30173
0.587451
1.42199
0.584786
0.281378
0.54109
0.528844
0
0.582221
1.12136
0.39276
0
1.04362
0.236942
0.460086
0.720367
0.541381
0.252328
0.602906
0.338155
1.26053
0.353032
0.74297
0.98167
1.05494
0.296369
0
1.61135
1.29886
0.886418
0
0.621056
0
0.389228
0.614577
0
0.397911
0.484782
0.821101
0.632068
0
0
0.43036
0.768609
0.805994
0.590113
0
0.450838
1.1061
0
1.03605
2.09778
0
0
0.807123
0.441198
0
0.472477
0.368955
1.01459
0.442959
0.544819
0.755567
0.534305
0
0.312812
0.729949
0
0
1.03352
1.21025
0
0.815506
0.71297
0.388058
0
0.920068
0.933254
0.654803
1.03361
0.968309
1.39855
0
1.12828
0.405965
0.430572
0.443879
0.476654
0.689066
1.04213
0.337743
0.735539
2.03522
0.461851
0.56795
0.417966
0.715334
0
0
0.401437
0.433599
0.758461
0.606781
0.656092
1.19825
0.982031
0.158875
0
1.22877
0.80786
0.917445
0.27595
0.836831
0
0.980706
0.196704
0.525374
0.954979
0.334453
1.21887
0.657385
0.461134
0
0
0.512248
0
0.728341
0
0.86303
0.55527
0.649551
1.48205
0
0.425475
0
0.952001
0.938936
0.413115
0.498357
0
1.45895
0.243151
0
0.431922
0
0
1.09402
0.775794
0.796699
0.974075
0
0.788327
0.599048
0.251462
0.506452
0
0
0.516628
0.788477
0.826938
0.584641
0.797648
0.766554
0.927324
0.712399
0.692797
0.764206
0.650825
0.550099
0.877949
0
0.576284
0
2.1973
2.32576
0.557977
0
0.465576
0
1.40013
0.453568
0.635952
0
0
0.598926
0.688277
0.751066
0
1.37824
0.951527
0.827426
0.362165
1.28997
0.602567
1.28409
0.484767
0.388302
0.557614
0
0.622104
0.548518
0.394804
0.877828
0.362972
0.309749
0.5129
0.917751
0.691797
0
0.145295
0.480753
0.355917
0
0.404183
0.59312
0.750357
0.612405
0
0.595247
0
0
0.995882
0
0.612057
0.613865
0.664974
0
0.441567
0
0.583361
0.711382
0.51011
0
0
0.338618
0
0.390985
0.55336
0.126543
0
0
0
0
0.134137
0.679098
1.17794
1.22863
0.636597
0
0
0.758039
0
0.723409
1.31742
0.249613
0.69288
0
0.550054
0.422313
1.14574
1.06696
0.543717
0.562608
0
0.381997
0
0.366406
0.99994
1.13252
0
0.946043
1.72746
0.41495
0.62598
0
0.60714
0
0.57756
0.115413
0.70979
0.796067
0.14726
0.414036
1.14818
0
0.639145
1.08153
1.17717
1.1925
0.149848
0.44815
0
0.570865
1.13682
0.779141
0
1.32796
0.377556
0.340541
1.04586
0.454244
0.139396
0.637024
0.863567
0
0.425271
0.362501
0.653016
0.582409
0.305554
0.836389
0
0
0
0.875957
0.844449
0.743008
0
0.591204
1.87118
0.610113
0.415568
0.466214
0.0599438
0.740999
0.313445
0.677316
0.686338
0
0.647541
0.125894
0.562744
1.62229
0.65703
0.274277
0.221319
0.814386
0.489726
0.675715
0.408122
0.285641
0.655845
0.256386
0
0
0.693047
2.07223
0.669838
0.518684
0.513865
1.09381
0.632817
0.139511
0.903576
1.64504
1.24714
0.801757
1.13341
0.440531
0.483548
0.607477
0.721611
0.767757
0.457309
0.723367
1.00919
0.297567
0.789497
0.285517
0.470904
0.631093
0
0
0
0.425435
0.771605
0.776147
0.424013
0.314087
0.42922
0.407154
0
1.18123
2.03216
0.753788
0.81665
0
0.755569
0
1.16303
0.537682
0.877355
0
0
0
0
0.891457
0.485888
0
0.590793
0.608634
0.457456
0.0702007
0
0.479083
0.850707
0.314718
0.499142
1.35367
0.705016
0.611103
0
1.03546
0.778249
0.478985
1.07147
0.777906
0.685589
0.643834
1.23486
1.00916
0.754976
0.374769
0.395772
0
0.62834
0
0.563753
0.810584
0.907559
0.63327
0
0.641927
1.18914
0.724603
1.17477
0.850059
1.24256
0.577567
0.241542
0.494401
0.547094
0
0.80962
0
0.375631
0
0.839867
0.612257
0
0
0
1.05182
0
0.742462
0.336045
0
0.657312
0.805404
0
0.445761
0.495219
0.661175
1.22786
1.72951
0
0.634615
0.516671
0
0
0.150929
0.644305
0.258496
0.3508
0.658449
0.831957
0
0
0.953041
0.560254
1.21265
0.411945
0.269592
0
0.945366
0
1.16669
0.979022
0.722222
0
0
0.958319
0.589352
0.281243
0
0.624049
0
0.460002
0.561637
0.624261
2.87891
0.772718
0.51661
0.552429
0.683817
1.11438
0.601102
0
0.641225
0.747143
0.695434
0.963442
0.974804
0
0.65949
0
0.41811
0.166942
0.457954
0.795815
0.353403
0.846398
0.772263
0.601221
0.737568
0
0.380816
0.827334
0
0.914302
1.5245
0.833061
1.47812
0.657404
1.53176
0
0.54186
0.624431
0
0.482564
0
0.692059
0.637709
0.570843
0
0.578332
0
0
0.567225
0.661403
0.731645
0.270608
0
0.81663
0.590982
0.453585
0.445406
0.567488
0.725539
1.44583
0.537951
1.46679
1.12944
0.440537
0.603026
0.340616
0.712554
0.49459
0
0
0
0.803875
0
0.353168
0
0.341915
0.490776
0.360324
0.635857
0.430008
0.90304
0.518498
0
0.687899
0.526483
0
0.467519
0.68173
0
0
1.81998
0
0.588448
1.21744
0.807033
0
1.43015
0.730175
0.798794
0.424946
0
0.974689
0.62863
1.37651
0.377453
1.3987
0.37257
0.397935
0.228466
0.585737
0.587505
0.913967
0
0.657815
0.747741
0
0.421328
0
0.610554
0.82351
0.853574
0.573058
1.00762
0.426925
1.1129
0.819818
0.424226
1.21633
1.2587
0.501474
0.849689
1.03291
0.253071
0
0.981899
0
0.775277
0
0
0.702524
0.864106
0.686893
0
0
1.25612
0.571207
0.321398
0.721747
0
0.253713
0.724082
0.395924
0.11045
1.24998
0.672289
0.449261
0.165304
0
0
0.968683
0.525164
0
0.877638
1.35228
0.765466
0.205788
0.674672
0.810499
0
0.81724
0
0.549198
0.638938
0.889958
1.37308
0
0.60732
0
1.28258
0.206917
0.638043
0
1.52128
0.506505
0.754923
0.636461
0.484175
0
0.856001
0.526211
0.606732
1.56844
0.517108
1.28033
0.170818
1.89698
0
0.512416
0.953675
1.14274
0
0
1.05751
0.911195
0.486758
0.832118
0.36101
0.51196
0.687445
0.680789
0.723365
1.79278
0.831561
1.29816
0.365337
0.388977
0.707602
0.727608
0
0.694949
0
0.670365
0
1.2213
0
0
0
0
0
0
0
0
0
0
0
0
0
0
0
0
0
0
0
0
0
0
0
0
0
0
0
0
0
0
0
0
0
0
0
0
0
0
0
0
0
0
0
0
0
0
0
0
0
0
0
0
0
0
0
0
0
0
0
0
0
0
0
0
0.249714
0.410052
0
0.60617
0.461739
0
0.416301
1.20568
0.430248
0.408167
0
0.466635
0.547418
0
0.83938
0.9628
0.430886
0.582303
0.983051
0.491853
0.546418
0
0.350398
1.27035
0.431922
0.577482
0.746949
0.862954
0.337004
0
0.567629
0.863107
0
0.879169
0
1.18698
0.641674
0.894903
0.65271
0.411301
0.148751
0.732554
0
0.419294
1.05644
0
0.231187
0.561083
1.02871
0.431928
0
0.552084
0.408232
0
1.11119
0.474888
0.146303
0.931939
0
0.768798
0.653738
0
0.214577
0
1.10017
0.660861
0.877675
0.545
0.337139
3.30228
0.785848
0.585578
0.84089
0.986659
1.00698
0.624222
1.18143
0.375487
0.443516
1.23184
0.470803
0.364959
0.802456
0.917936
0.787289
0.879272
0.489239
1.02081
0.44799
0
0.829701
1.19288
0.446166
0
0
1.33562
1.67664
0.723201
0.928568
1.23577
0.595258
0
0.440488
0
0.662442
0
0.537314
0.327303
0.39509
0.190741
0.350522
0.568993
0.520272
0.943954
0.662023
0.384615
0.644553
0
0.708557
0
0
0.769285
0.527615
1.06895
0.955517
0.567125
0
0
0.506785
0.564413
1.40916
0.450177
0
0
0.438149
0.0109393
0.348781
0.315348
0.371303
0
0.64718
0.227284
0.995875
0.706084
0.72388