<?xml version="1.0"?>
<VTKFile type="RectilinearGrid">
<RectilinearGrid WholeExtent="0 32 0 32 0 32" Origin="0 0 0" Spacing="1 1 1">
<Piece Extent="0 32 0 32 0 32">
<PointData>
</PointData>
<Coordinates>
<DataArray type="Float32" format="ascii">
0 0.524874 1.04975 1.57462 2.0995 2.62437 3.14924 3.67412 4.19899 4.72386 5.24874 5.77361 6.29849 6.82336 7.34823 7.87311 8.39798 8.92285 9.44773 9.9726 10.4975 11.0224 11.5472 12.0721 12.597 13.1218 13.6467 14.1716 14.6965 15.2213 15.7462 16.2711 16.796 
</DataArray>
<DataArray type="Float32" format="ascii">
-5.03879 -3.62163 -2.20447 -0.787311 0.629849 2.04701 3.46417 4.88133 6.29849 7.71565 9.1328 10.55 11.9671 13.3843 14.8014 16.2186 17.6358 19.0529 20.4701 21.8872 23.3044 24.7216 26.1387 27.5559 28.973 30.3902 31.8074 33.2245 34.6417 36.0588 37.476 38.8931 40.3103 
</DataArray>
<DataArray type="Float32" format="ascii">
0 0.524874 1.04975 1.57462 2.0995 2.62437 3.14924 3.67412 4.19899 4.72386 5.24874 5.77361 6.29849 6.82336 7.34823 7.87311 8.39798 8.92285 9.44773 9.9726 10.4975 11.0224 11.5472 12.0721 12.597 13.1218 13.6467 14.1716 14.6965 15.2213 15.7462 16.2711 16.796 
</DataArray>
</Coordinates>
<CellData>
<DataArray type="Float32" Name="Scalar" format="ascii">
0
0
0
0
0
0
0
0
0
0
0
0
0
0
0
0
0
0
0
0
0
0
0
0
0
0
0
0
0
0
0
0
0
0
0
0
0
0
0
0
0
0
0
0
0
0
0
0
0
0
0
0
0
0
0
0
0
0
0
0
0
0
0
0
0.210171
0.236302
0
0.33484
0.285335
0
0.278591
0.819726
0.110061
0.367081
0
0.339744
0.33209
0
0.34678
2.06245
0.233204
0.405258
0
0.207583
0.226378
0
0.268377
1.05319
0.231196
0.407529
0
0.274254
0.501045
2.05905
0.173971
1.2516
0.286195
1.55552
0
0.234535
1.30421
0
0.286528
0
0
0.723305
0
1.49876
0.52554
0
1.40619
1.53346
0.49011
1.70001
0
0.17529
0.753763
0.849541
0.167163
3.31872
0.787918
0.27381
0
0.956461
0.857775
1.02797
1.29197
1.88956
1.91357
0.62304
0
1.41935
1.08864
0.826954
1.26693
0.44588
1.66519
0.711918
0.910326
0.77365
0
0.514507
1.48724
0.187426
1.15321
0
1.59628
1.0355
2.09307
0.60988
1.004
1.05008
1.08464
0
0.343676
0.455388
0.771825
0.932405
1.04467
0
0.667698
0.556602
0
0.708075
0
0.676449
1.55667
0.927797
0
0.81847
0
1.10052
0.392758
0.942931
0
0.619668
0.281858
0.531914
0
0.533521
0.447244
0
0.423245
1.19626
1.15901
0.955072
1.02298
1.79432
1.96532
0.523977
0.66124
0.988303
0
0
1.14804
1.0101
0.519028
1.15959
0.578842
0.488434
0
0
0
0.1013
0.213895
1.06647
1.18246
0.655442
0.35505
0.549431
0.467551
0
0.883024
1.01098
0.794951
0.872741
0.808536
0
0
0.345939
1.01985
1.52739
0.644959
1.20006
1.26447
2.11122
0.920056
1.02578
0.419638
0.599105
0.862
0.669446
0.729689
0
0.860107
1.1042
1.42912
0.837801
0.710939
0
0.170571
0
0
1.13044
1.15726
0
0.503151
0.66371
0.228624
0
1.21218
0.810465
0
0
0.776651
0.866221
0.914647
1.09188
0.430085
0.632999
0.898258
0
0
1.15747
0.516159
1.70097
1.7918
0
1.67274
0.456683
0
0.545938
0.782614
0.671448
0.250454
0.500092
0.538363
0.524296
0.5305
0
0.619638
0.232378
0
0.914782
1.69512
0.724482
0.249138
0.617942
0.494197
0
0
0.537056
0.690937
1.42039
0.845241
0
0
0.744484
1.02949
0.825852
0
0.633006
0
1.19295
0.493604
0.731794
0.475695
0.313191
0
0.771744
2.20299
0.477546
0.529824
0
0
0.783529
0.745206
0
0.427449
0
0.519474
0.371863
0.579803
0
0.381227
1.02892
0.708734
0.612266
0
0.479427
0.569301
0
1.16872
1.09656
0.361355
0.774945
0.841471
0
0.679205
1.17822
0.690376
0.728245
0
0.342145
0.495577
0.579734
0.613035
0.580549
1.03354
0.405387
2.54371
1.59942
0.369854
0.210183
0
0
0
0.977084
0
0.555025
0.626604
0
0
0.403914
0
0.747901
0.900416
0.648907
1.02999
0.661051
0.761845
0.849514
1.14837
1.35085
1.15611
0.729063
0.901762
0.485952
0
0.324103
0.611975
0.793327
1.16316
0
1.01483
0.234585
0.336164
0
0
0.29977
0
0
1.55181
1.56122
1.22065
1.26746
0.9797
0.816882
0.745441
0
0.455872
0.432657
1.52363
1.02928
0.347423
0.885916
0.705703
0
0.80424
0.328075
0.473576
0
0.344269
0
0.889302
0
0.471053
0
0.766499
0.237825
0
0.712584
1.60618
0.566035
0
0.628142
0.973777
0.647995
0
0.820828
0.576914
0.294752
0.244054
0.69221
0
0.652833
0
0.560611
0.386387
0.545069
0
0.68062
1.09376
0
1.10532
0.67967
0.295354
0.852703
0.700563
0.515442
0.82214
0.511799
0.68724
0.173629
1.38498
0.497796
1.13453
0
1.67507
2.06867
1.25203
0
0.427456
0
0.801345
0.662157
0.445357
0
0
0.940745
0
0.671555
1.07409
0
0.518647
0
0.631866
0.599127
0.70508
0.55578
0
0
0.414118
0.709132
0.800322
0.421296
0
2.01868
0
0.575922
0
1.11092
0.55085
0.304819
0.466199
0.624147
0.574593
0.73436
0
0.620983
0.564897
0.682956
0
0.62576
0
0.764836
0
0.59384
0
1.25209
0.681517
0.701403
0.649942
0.442169
0
0
0.292983
0
0.714044
0.504567
0
0.26026
0.41954
0.644873
0
0.48499
0.755977
0.838437
1.10228
0.25205
0.133229
0.68197
0.39383
0
0.693562
0
0.740465
0
0
0.662698
0.567734
0
0.601559
0
0
0.546374
0.528872
0.768556
0
0.575861
0
0.260105
0
0.265399
0.437921
0
1.12586
0.547267
0.646416
0.530101
0
0
0
0
1.29925
0
0.451453
0.587439
0
0.701457
0
0.831578
0.771177
0
0.181999
0.507702
0
1.22985
1.07342
1.09489
0.314922
0.738143
0.720524
1.04019
0.179061
0
0.452128
0
0.81706
0.386284
1.51052
0.999645
0.495595
0.382186
0
0.417229
2.21834
0.787438
0.940482
0.869818
0
0
0.154867
0.634514
0.52412
0
0.4792
0.359779
0.586177
0.917166
0.397467
0.405197
0.469928
1.01948
0
0.482779
0.21675
0.51865
0.320932
0
0.259091
0
0.793874
0.459851
0.129404
0.523335
0.96798
1.25163
0.408867
0
0.335896
0.35786
1.4361
0.560659
0.820204
0.424193
0.20335
0.780336
0.966703
0.28688
0
0
0.535587
0.606851
0.752733
1.48089
1.10157
0.759971
1.13483
0
0.582649
0.777912
0.285791
0.669826
1.24598
0.285501
0
0.532438
0.218125
1.07405
0
0.740185
0.462681
0.307176
2.4395
1.07708
0.536481
0.441372
0
0.943266
0
0.329999
0.643948
0.617766
0.551564
0
0.670023
0.17742
0.649611
0.588208
0.801442
0.461485
0
0
0.733845
0.706969
1.53714
0.154893
0.421283
0
1.07977
0
0
0.292741
0
0.903293
0
1.16154
0.970428
0.712319
0.715668
1.19571
0.505815
0.324653
0.675519
0
0.495461
0.373016
0.19245
0
0
0.910956
0.504411
0.42301
0
0.317677
0.444133
0.581314
0
0
1.35665
0.285025
0.584143
0
0.450095
0.49033
0.592044
0.329167
0.332763
0.634029
1.02575
0.420063
0.97188
0.434542
0
0.604208
0
0.692713
1.31614
0.347122
0.522961
0.492546
2.29614
0
0.652906
0.983914
0.551176
1.32478
0.865429
0.795159
0.687845
0
0.719645
0
0.476373
0.384369
0.776949
0.824199
0.885906
0.475912
0.732532
1.21524
0.805501
0
1.05444
0.679112
0.539327
0.356954
0.298619
0
0
1.05375
0.52503
0.635827
0.750146
0
0.315364
0.308533
0.730419
0.531174
0
0.984797
0.524415
1.04205
0.642119
0
0.229414
0
1.72712
1.28651
0.778367
0.630113
0.458511
0.933214
0.79377
0.918983
0.397874
0.0976826
0.854051
0.825544
0.378118
0
0.737268
0.538517
0.43044
0
0
0.881148
0.766411
0
0.525952
0
0.534472
1.18931
0.639889
0
0
0.471439
1.2245
0.559754
1.40249
0.90735
0.659496
0.787418
0.522075
0
0.552765
0
0.612956
0
0.54986
0.402451
0.376073
0.691039
0.541462
0.803033
0.685128
0
0.92399
1.49663
0.497552
0
2.9741
0.317742
0
0.735896
0
0.807974
0.789584
0.769538
0.961261
0.785111
0.180926
0.619721
0
0.759275
0.438885
0.524025
0.275059
0
0.519812
0
0
0
0
0.593337
0
0
0.786668
0
0.601937
0.389823
0.285733
0.563795
0
0
0
0
1.16421
0
0.55115
0.40191
0.620095
0.294488
0.556754
0.405607
0.300466
0.513355
0.608653
0
0.995826
0.577833
0
0.576245
1.41612
0.788218
1.13619
0
0.192808
0.3493
0.875441
0
0.523525
0.330388
0
0
0.0384128
0.428905
0.214351
0.540368
0.264623
0.569838
0
0
1.3896
0.523843
0.369889
0.431684
0.303543
0.882397
0.5204
0.296442
0.674586
0.834349
0.71429
0.369851
1.30128
0.241866
0.93405
0.477887
1.22768
0.942407
0.422588
0.644846
0
0.828323
0
0.622248
1.41447
0.674898
0.131157
0.819116
0.71502
0.471473
0
0.500241
0
0.897122
0.634545
0.244518
0.632858
0.109903
0.858758
0.655986
0
1.36505
0.556258
0
0.458705
0
0.946062
1.2688
0.612032
0.268518
0
0
0.628172
0.624489
0
0.451421
0.381044
0.506832
0.15168
0.74943
0.452125
0.259147
0.662177
0.567569
0.344008
0
0.212143
0.543061
0.621643
0.518063
0.781282
1.168
0
0.483671
0.718417
0.20905
0.287064
0.405744
1.03133
0.43556
0.421693
0
0.845775
0
0.538818
0.419587
0.597548
0.619987
0.473918
0.256914
0.584256
0
0.550407
1.32181
1.03513
0.460233
2.50905
0
0.398568
0.500669
0.389156
0.144768
0.75903
0
0.190871
0.390105
0.263315
0.368884
0.211163
0.388135
0
0
0
0
0
0
0
0
0
0
0
0
0
0
0
0
0
0
0
0
0
0
0
0
0
0
0
0
0
0
0
0
0
0
0
0
0
0
0
0
0
0
0
0
0
0
0
0
0
0
0
0
0
0
0
0
0
0
0
0
0
0
0
0
0.376757
0.472597
0
0.508588
0.400446
0
0.592638
0.854735
0.250143
0.621563
0
0.454117
0.510505
0
0.526186
1.35921
0.54423
0.30489
0.115446
0.513897
0.461413
0.377923
0.607581
1.33106
0.474465
0.54577
0.418138
0.497122
0.290156
0
0.462682
1.14129
1.26879
0.482548
0
1.05914
0.227626
0
1.87023
0.621693
0.1638
0.899264
0
0.452652
0.864928
0
0.45691
1.39165
1.48691
0.547147
0
0
0.284324
0
0.59929
0.553752
0.208001
0.762663
0
0.171027
0.985854
0
0.61916
0.721896
0.493018
0.686046
1.39231
0.870304
2.67937
0.266782
0.380941
0.582351
0.977597
1.15843
1.20119
0
0.636296
0.60398
0.615949
0.543419
0
1.16011
0.856683
1.31262
0
1.66029
0.899983
0.594538
1.18518
0.727275
0.461522
0.494506
0.940211
0.489478
0
0.949608
1.08184
0.765636
0.623071
0.566931
0.951062
0
0.721553
0.586208
0.47903
0
0.783224
0.751913
0.883049
0.915765
0.395376
0
0.635463
0.317086
0
0.877824
0.848342
0.475606
1.26689
0.934245
0.747355
0.526657
0.413111
1.09508
0.826901
0
0
1.13873
1.52717
0.337647
0.541531
0
0
0.511533
0.742587
0.514428
0.453167
0.912072
0.566166
0.914249
0
0.715878
1.03147
0.792736
0.590229
1.02099
0.309344
0.985811
0
0.94253
0
0
0.501985
1.91856
0.736275
0.872012
1.6467
1.12579
0.75374
0
0.768688
0.711173
0
0
0.73525
0.709251
1.55399
0.395459
0
0.687742
0
1.10078
1.37468
0
0.6824
0.461494
0
0
0.38399
0
0.491101
0
0.57773
0
0
0.945263
0.0918843
0.952247
0.257949
0.583869
0.605301
0.462093
0.58881
0.760405
0.399029
0
0.725535
0.0212478
0.877246
0.359565
0
0.616931
0
1.87087
1.68571
0.927355
0.382172
0
0.620425
0
0.993038
0.386979
0.799927
0
0.540267
0.540449
1.25623
0.603093
1.43543
0
0.351874
0.373972
0.681335
0.496877
0
1.1269
0.780725
0.948591
0.169107
0.790566
0.18304
0
0.515269
0.987897
0.458104
0
0.735603
0.522697
0.559737
0
0.612243
0
0.758473
0.58899
0.79
1.08248
0.526611
0.220182
0
0.894124
0
0.488052
0
0.51517
0.0711597
0
0.24046
0.599861
1.23296
0
0
0.680179
0.511453
0
0
0.341779
0.718741
0.593309
0.900009
0.363622
0.52729
0
0
1.0756
0
0
0.388798
0.292569
0.780529
0
0.632
0.488619
0.340802
0
0.714136
1.02433
0.978065
0
1.08445
0
0.574916
0
0.376734
0.529965
0.646988
0.465005
0
0.423089
0.382445
0.908296
0.738037
0.236037
1.07352
0
0.622165
0.968893
1.37431
0.769133
0.922868
2.36011
1.98361
0.691268
0.872855
0.599299
0.691645
0.686408
0
1.32228
0.779941
0.169517
1.01178
0.762978
0.323967
0.483631
0.289231
0
0.504292
0
0.457538
0.662339
0.794033
0.404606
0
0
0
0.234827
0.801548
0
0
1.26813
0.83679
0.76081
1.77633
1.0399
3.00555
0
0
0
0.275752
0.34939
0
0.434965
0
0.605667
0
0.523951
0.374927
0.442248
0.67099
0.667996
0
0.0715414
0
0
1.16949
1.22497
0
0.311746
0.560563
0
0.383769
0
0
0
0
0.366884
0.77598
0.599746
0
0.678026
0.559399
0.768724
0
0.992301
0
0.594366
1.49673
0.978864
0.176095
1.04613
0
0.606326
0.602665
0.499355
0.454669
1.92195
1.30112
2.09812
0.589701
0.657975
0.574734
0
0.729395
0
0.646001
0
1.32779
0
0
0.604751
0.699774
1.09801
0.629736
0
0.704238
0
0.654356
0
0.525224
0.631265
0.678955
0.453337
0.929381
0.493765
0.751477
0
0.615577
0.214177
0.722695
0.240659
0
0.524926
0
0.7208
0.596241
0.256344
0
0.724589
0.719083
0.357882
0.378139
0
0
1.24444
0.894868
0.482679
1.28309
0
0.384848
0.493395
0.2642
0.741342
0.886255
0.856889
0.313612
0
0.353691
0.314594
0.679894
0.282787
0.0767089
0.515318
0
1.29691
1.19271
1.21041
0.539612
0
0
0.743407
0
0.582656
0.602879
0.469121
0.690577
0.512428
0.385126
0
1.66399
1.0213
0.992197
0.511724
1.21839
0.982652
0.837976
0
0.534359
0.807026
0.420942
0.324914
0
0.765939
0.410619
0.412711
0.525265
0.368362
1.00992
0.528577
0.703664
0.372896
0.951247
0.601966
0.753458
0.536071
0
0.367447
0.648566
0.352981
0.759723
0.137898
0.862162
0.627513
1.08286
0.338685
0
0.729269
0.910894
0.118247
0.59898
0.611413
0.660565
0.317521
0.490319
1.33807
0.5679
0.794251
0.523184
1.42223
0.574331
0
0
0.652153
0
0.574436
0.764192
0.142007
0.523118
0.639885
0.526306
0.921738
0.502763
0.373895
0
0.478159
0.224449
0.620332
1.19257
0.277476
0.350697
0.323587
0
0.704587
0.525427
0.57051
0
0.708843
0
0.445038
0.3804
0.330096
0.530276
0.295175
0.799532
1.05015
0.972596
0.43864
0.681988
0.969132
0.675849
0
0
0
0.625466
0
0.306639
0.393284
0
0.363395
0.533187
0
0.4653
0
0
0.615883
1.41784
0.659054
0.867028
0.719127
0.403559
0.687453
0
0.714764
0
0.448955
0
0.714118
0
0.445571
0
1.48743
0.897948
0.418973
0
0.47548
0
0
0
1.55048
0.4849
0.24151
0.455851
0
0.308694
0
0.583864
0.4276
1.02241
0.844619
0.281701
0.86591
0.521648
1.10508
0.900424
0.256014
0.373483
0.478581
0.510065
0.320966
0.475276
0
0
0.305977
0.491849
0.510158
2.43462
0.592115
1.06523
0.521101
1.76679
0.709032
0
1.82896
0.459233
0
0.315032
0.299538
0.243684
0
1.11773
0
0.423874
0
0
0
1.40178
1.16522
0.641472
0.538093
1.33638
0.321109
0.97355
0.746461
0
0.5617
0.679045
0
2.23675
1.2484
0
0
0.198539
0.386297
0.603162
0.492452
0
0.92469
0.839797
0.811951
0.421586
0.343949
0.599719
0
0
0.652882
0
0
0.53608
0
0.763601
0
0
0.727147
0.652689
0
0
0
0
0
0.493559
1.36355
0.915129
0
0.723707
0
0.982192
0.612532
0.612732
1.05068
0.633376
0
0.624527
0.293864
1.01049
0.699315
0.216845
0
0.447186
0
0.708262
0
1.28331
0
0.546504
0.757238
1.06895
0.506819
0
0.639685
0.475332
0.675341
1.04928
1.04147
1.17697
0.242909
0.607119
0.627884
0
0
0
0.603779
0
0.376451
0.572798
0.46142
0.554125
0.166838
0.11952
0.755252
0
0
0.721247
0
0
0.850244
0.792561
0.473976
0.643715
0
0.810674
0.633552
0
0.650219
0.590291
0.482554
0.539999
0.427221
0
0
0.518522
0.311653
0.67104
0.403826
1.12209
0.916359
1.13504
0
0.200756
0.55321
0.404607
0.632686
0.56285
1.31345
1.15786
0.737365
0.18979
0.373213
0.342159
0.297704
0.394981
0
0.709021
0
0.4772
0.379553
0
0.744051
0.509625
0.663174
0.891276
0
0.284814
0.794338
0.456222
0
1.13125
0.947246
0.932431
1.42103
0.590667
0.629954
0.670647
0.786147
0.781093
0.716096
0.528476
0.454948
0.596532
0
0.661443
0.622444
0.315772
0.444456
0.707662
0.46518
0.35761
0.372319
0.535475
0.584563
0.63542
0.668948
0.454652
0.986175
0.636003
1.01749
0.642933
0.623898
1.09172
0.919308
0
0.605634
0.49236
0.733518
0.583988
0.409921
0.14656
0.322121
0
0
0.417269
0.820143
0.873872
0.679473
0.524077
0.551268
0
0.578546
2.27938
0.629997
0.0614649
0
0.759251
0.635081
0.345057
0.454679
1.32397
0.5306
0
0.744252
0
0.536775
1.28484
0.802627
0
0.513399
0.889982
0
0.460175
0.643275
0
0
0.515357
0.0825047
0
0.53854
0.711485
1.22398
0
0.553124
0.90418
2.18339
0.574602
0.860304
0
0.487725
0
0.639595
0.181453
0
0.676889
0.991551
0.697959
0.246845
0.765726
0
0.427056
0.260761
0.95246
0.465123
0.216338
0
0.51098
0.733805
0.930648
0.284869
0
0.107404
0.557109
0
0
1.45966
0
0.383775
0.323788
1.95357
0.16756
0
0.500523
0
1.08102
0.885927
0
0.71706
0
0.435787
0
0.284009
0.897406
0.243771
0.372366
0.440793
0.957958
0.517389
0.377306
0.498545
0.623285
0.231621
0.18592
0.517802
0.731136
0
0.415589
0
0.476383
0.663746
0.524996
0.183327
0.265414
0.551074
0.792704
0.920862
0
0
0
0
0
0
0
0
0
0
0
0
0
0
0
0
0
0
0
0
0
0
0
0
0
0
0
0
0
0
0
0
0
0
0
0
0
0
0
0
0
0
0
0
0
0
0
0
0
0
0
0
0
0
0
0
0
0
0
0
0
0
0
0
0
0
0
0
1.65344
0
0.78533
0.863209
1.11012
3.54223
0
0.988867
0
0
0
0.555425
0
0
0
0
0
0
0
0.795252
0.431811
0
0
2.7796
0
0
0.836626
0
0
0
0
0.728681
0.882272
0
0.563983
0
2.24105
0
0
0
1.00705
0
0
0
0
0
0
0
0
0
0
0
0
0
0
1.63357
0
0
0
0
0
1.031
1.34894
1.25663
1.0097
0.756422
0.780335
0
0
1.01636
0.817033
0.974129
0.198994
0.479763
0.818629
0.991394
0.899409
1.25987
0.786865
1.65154
0
0.413731
0.617423
0.306569
0.331251
0
0
0.858516
0.472622
0
1.0119
0
0.6022
1.34618
0
0.613987
0
0.358211
0.663807
0
0.444786
1.05926
0.847103
0
0.609435
0
0.675155
1.92033
0.466582
0
0.44995
0
0.244456
0
0
0.59329
1.6049
0
1.1464
1.03513
1.04975
0.551401
0.589658
0.61287
1.02548
0.674506
0
0.770079
1.22537
0.99561
0.689254
1.02055
0.378571
0.458233
0.511943
0
0.909113
0.485478
0.583052
1.23917
0.552278
1.2357
1.74295
1.13546
1.9251
1.17883
0.483182
0.635914
0.681535
0
0
0
0
0.684983
2.58695
0.634079
1.00743
1.04444
0
0.517043
0
0.814632
0.338575
0.740625
0.501776
1.24479
0.550068
0.775936
0.649935
0.64515
0
0
0.661065
0.688986
0
1.20996
0.813109
0
0.538353
0.614292
0
0.674421
0.650569
0.918746
0.76299
2.09767
0
0.853792
0.577175
0.270898
0.668094
0.894735
0.546901
0
0
0.698547
0.375972
0.418984
0
0.500531
0
1.51831
0
0.594607
0
0.620431
0.738924
0.114775
0.545282
0.324361
0.781606
0.98139
0.83376
0.889357
1.12542
1.64797
0.555276
0
0.450206
0
0.848863
0.70572
0
0.59653
0.337255
1.08426
0
0
0
0
0.50021
0
0.757168
0.857244
0
0.353155
0.827929
0
0.653146
0.283114
0.615627
0
0.383668
0.291276
1.72482
0.839479
0
0.366019
0.500779
0.67086
0.865129
0.648479
0.41908
0.865315
0.585006
0
1.00086
0.47054
0.504249
0.751505
0.828334
0.912841
0
0
0.273624
0.738579
0.508043
0.459377
0.570729
0.813587
0.417381
0.30346
0.579378
1.01473
0
0
0.630181
0.426854
0.794092
0.641961
0.608236
0.657176
0.429774
0.85836
0.873752
0.823838
1.05453
0.863114
0
0.507346
0
0.390404
0.0968054
0.540435
0
0.426018
0.81901
0.356971
0.443613
0.478672
0.10259
0.546075
0
0
2.52387
1.21091
0.788012
0.774857
1.55361
0.730185
0.888168
0.590706
0
0.562846
0.582582
0.639533
0
0.560891
0.527641
0
0
0.763189
1.334
0.769996
0
0.58172
0.504654
0
0.71648
0.191955
0.583841
0
0.696582
0.658423
0.422838
1.05631
0
0.233007
0
0.222014
1.00978
0.797539
0.505275
0.697591
0.948383
1.11839
0.603711
0.974717
0.430006
1.23469
0.36299
0
0.846502
0
0.548088
0.344116
0.340859
0
0.645238
1.11043
0.886093
0.869607
0.696136
0.488206
0.429255
0.961398
0.63564
0.918029
0.399922
0.207271
0.410759
0
1.61841
0
0.786329
1.47022
0
0.419777
0
1.187
1.31861
0.764944
0.352491
0.531772
0
0.666265
1.22804
0.701094
0.590742
0
0
0
0
0
0.479683
0.560574
0
0.460979
0.266271
0.917041
0.651006
2.5667
1.27631
0.282891
0.460718
0.159586
0
1.59325
1.26745
0.70388
0.805886
0.622096
0.806943
0.406742
0.840291
0.50506
0.287865
0.179751
0.519372
0.463832
0.944792
0.585558
0.384421
0.576551
2.66979
1.34
1.68351
0.690278
0
0.803383
0.256239
1.49601
0.60521
0.927085
1.38235
1.11682
0.524269
0.465856
0.407414
0.524849
0.540314
0
0.79236
0.258173
0.624349
0
0.221851
0.74349
0.894003
0.722662
0.872863
0.522091
0
0
0.289536
0.240572
0.330447
0
0.784373
1.24248
0
0.452728
0.615746
0.65666
0
0.465926
0
0.730944
1.52109
1.20648
0
0.319291
0
0.551103
0.251619
0
0
0.647828
0.191987
0.4689
1.07266
0.528595
0.779673
0.526571
0.690362
0.654939
0.788765
0.586124
0
0
0.539661
0
0.549506
0
0
1.00778
0
0.67273
0
0.4832
0
0.665054
0.411054
0.694354
0
0.607768
0.6454
0
0.397196
0
0.494896
0.505473
0
0.239845
0
0
0.98079
0.497871
0.228147
0.440573
0
0
0.127566
0
1.00989
0.928342
0.479014
0.669494
0.671385
1.17163
0.455361
0.706543
1.35007
0.845338
0.346149
0
0.388899
0.716009
0
0.268632
1.29269
1.2994
0.997059
0
0.733748
0.696049
1.62605
1.11302
0.82659
0.509321
0.506015
0.394777
0
0
0.662208
0.108413
0.547909
0.609935
0.953937
0
1.19409
0
0.489624
0.385979
0.566365
0.553219
0.0976099
0.278754
0
0.527058
0.0576577
1.1384
0.296842
0.331203
0.737472
0.848387
0.514276
0.548348
0.393643
0.611192
0.444574
1.12571
0.894931
0
0.233589
0
0.416829
0.646671
0.845441
0.462322
0.390831
0
0.348988
0.369576
0.125987
1.03923
0.832626
0
0
0.238553
0.892645
0.783803
0
0.724078
0.126127
0.457731
0.369018
0
0.623337
0
0.773442
0.585041
0
0
0.386046
0.341854
0.176485
0.233269
0.719888
0.324821
0.822755
0.642773
0
0
0.438163
0
0.796186
1.45156
0
0.835604
0.56127
0
0
0
0.646098
0.313721
0.623695
0.900988
0.372682
0.332865
0.481496
0
0
0.485354
0.543537
0
0
0.288543
1.10341
0.348432
0.912196
1.17302
0
0
0.75576
0
1.05517
0.209332
0.424229
0.521351
0
0.542794
0
0
0.544477
0.452095
0.414386
0.750411
0.652194
0.800839
0.858804
0.871899
0.688068
0.96853
0.458399
0.422745
0
0.652498
0.923825
0
0.273208
1.06333
0.522088
0
0.741099
0.309055
0.452461
0.579113
0.764751
0.947165
0.465021
0.219674
0.290368
0.811634
0.766087
0
0.48481
0
0.898346
0.51456
1.11515
0
0
0
0.275119
0.368418
0
1.16875
0.969858
0
0.414791
0.204132
0.762392
0.800542
0.447689
0.705289
1.4172
0.799232
0
0.388048
0.877361
0
0.580762
0.62117
0
0.662676
0.665843
0.547203
0.842706
0.66626
0
0.580997
0.638888
0.585945
0.331121
0.489292
0.641331
0.373258
0.547357
0.389473
0
0.565506
0
0.626614
0
0.179176
0.567672
0.716345
0.597296
0.220709
0.795754
0.4753
0.607812
1.22052
0.294687
0.393162
0.897878
0.161034
0
0
0
0.694097
0
0.596189
0.620924
0.083042
0
0.450298
0.839248
0.814153
0
0.256972
0.195295
0.281408
0.127916
0
0.583134
0
1.66071
0
0.409986
0
0.318429
0
0.371202
0
0.505037
0
0.689266
0.803267
0.409683
0.285625
0.353368
0.463175
0
0
0
0
0
0.0713016
0.781397
0.507844
0
0.833389
0.619693
0.431233
0
0
0.435064
0
0.185705
0.403919
0
0.554044
0.277728
0.999922
0
0.527631
0.436887
0.527984
0.918275
0
0.358675
0
0
0.359584
0.377837
0.675729
1.04066
0
0.394177
0
0.41907
0.308358
0.596171
0.600825
0
0
0.582278
1.54226
0
0.0898391
0.284696
0
0.261247
0
0.599822
0
0.885126
0
0
0.662502
1.03604
0.673195
0.873058
0.333884
0
0.258365
0.627403
0.524785
0
0
0
0.359362
0.38589
0
0.216826
0.242213
0.494277
0
0.841921
0.60501
1.28104
0.0677243
0.58475
0.755625
0.618252
0.403723
0.381478
0
0.893565
0.699994
0.688338
0.700459
0
0.585837
0
0
0.333899
0
0.495539
0.518647
0.315898
0.946412
0.695977
0.606392
0.891565
0
0.580229
1.63858
0.819253
0.693975
0.348475
0
0.431273
0.919953
0.38204
0.499821
0.521825
0.390167
0.576356
0.40311
0.492293
0.562451
0.554948
1.04701
0.271625
0.323635
0
0
0.308636
0
0.567783
0.607788
1.1678
0
0.570749
0
0.369714
0.213965
0.410657
0.938224
0.387558
0.393895
0.48592
0.360703
0.843816
1.45573
0.55877
1.02832
0.204536
0.283937
0.41984
0.841398
0
0.487512
0
0.371903
0.839824
0.853617
0.501818
0.610729
0.125156
0.218246
0.955772
0.788164
0
0
0
0
0
0
0
0
0
0
0
0
0
0
0
0
0
0
0
0
0
0
0
0
0
0
0
0
0
0
0
0
0
0
0
0
0
0
0
0
0
0
0
0
0
0
0
0
0
0
0
0
0
0
0
0
0
0
0
0
0
0
0
0
0.231337
0.473363
1.19714
0.520069
0.457288
0
0.476005
0.932288
0.208546
0.65729
0
0.515874
0.683395
0
0.41986
2.14745
0.370904
0.336964
1.91832
0.83832
0.456948
1.35972
0.409187
1.93179
0.255198
0.559875
0
0.523319
0.504273
0.254705
0.662123
0.794306
0.0880561
0.702392
0
0.572158
1.04921
0
0.657959
0
1.29359
0.618357
0
0.796353
0.443873
0
0.717507
0.471105
0.149805
1.16834
0.769598
0.614774
1.23213
1.56683
0.289163
1.44571
2.97637
0.493181
0
1.61665
0.147361
0
0.80913
0.315841
1.41996
0.922903
1.06093
1.34916
0
0.335491
0.643949
1.59648
0.866801
1.88961
0.784812
0.465424
0.510835
0.973966
1.12635
0.54363
0.573928
0.869969
0.771137
0.82565
1.05299
1.57372
0
1.29762
0.973952
1.39934
0.437525
0.575306
0.690135
0.315055
0.936992
1.13146
0.683211
3.03245
1.24783
1.03098
0
0.689884
0
1.14255
1.19918
0
0.335897
0.859548
0.382311
0.609503
0.704107
0.722784
1.07273
0
0.40131
0.727146
1.04222
0
0.588438
0
0.734352
0.343251
0.693841
2.304
2.61868
0
0.870746
0.645585
0
0.942737
0.834362
0
2.13741
1.51477
0
0.815994
2.6752
0
0.461331
0.527377
0.693021
0
0.962203
1.05599
0
0.925636
2.16302
0.462833
0.693677
0.455962
2.00366
0
0
0.440729
0
0.561314
0
0.984943
0.382761
1.39459
0.93232
0.831149
0
1.28491
1.03045
0.44973
1.43487
0
1.05671
0.893818
0.472762
0.874177
0
1.19435
0.843953
0.503742
0
0.875599
0.831701
0.592486
0
0.214047
0.607176
0.615052
0.831528
0.850947
0.743523
1.08284
1.45214
1.07228
2.26932
0.793527
0.882888
0
0.270803
0
0.475892
1.46048
0.494962
1.10366
0.72303
0
0.640456
0.428547
0
0.456203
0.373675
0
0.283853
1.04178
0
0.618482
1.57843
0.737241
0
1.1602
0.448881
1.02233
0.865398
0
0.751485
0
0.556422
0.47233
0.67682
0.506623
0.129812
0.49426
0.18318
0.246973
0.345805
0.592787
1.00005
0.594098
0
0
0.968732
1.13211
0.446185
1.00106
1.52185
1.59221
0.403918
0.774268
0.587359
0.420194
0
0.944436
1.0147
0.205659
0.914436
0
0.586249
0
0.681126
0
0.711927
0.751888
0
0.461927
0.758048
0.191117
0
0
0.185491
0.189291
1.03133
0
0
0.777807
0.853603
0.709181
0
0.717336
0
0
1.48876
0.80963
0.459548
0.271685
0
0.86941
0.351555
0
0.312064
0.943818
1.33375
0
0.816618
1.19433
0
0.255858
0.745396
0.865057
0.482718
0.583038
0.397117
0.451628
0.531441
0.813254
0
0.582379
0.696949
0.599475
0.52758
0.402251
0
0.541275
0
0
0
0.719162
0.22955
0
0
0.753196
0.356654
0
0.657655
0.717633
0
0.473439
0.582608
0.674085
0
0.435385
0.632174
0.718206
0.523684
0.607133
0
0.884578
1.56766
2.41008
0.658744
0.641499
1.28288
0.65643
0.556966
0.887804
0.781499
1.33076
1.01968
0
1.72705
0
0
0
0
0.91397
0
0.940123
0.756471
0
0.339825
0
0.326174
0.268271
0.544396
0
0
0
0
1.22558
1.05026
0.746059
0.686278
0.422019
0
0.400742
0.715937
0
0
0
0
0.822789
0
0.444333
0.963705
0
0.845508
0
0.726097
1.42606
0.850642
1.07469
0.62459
0.647202
0.913093
0.324896
0.541932
0.746586
0.782359
0.209201
1.22336
0
0.664083
2.00345
0.249078
0.443046
0.518935
0.265164
0.848904
0
0.730141
0.249446
1.04021
0
0.31625
0.389719
0.513918
0.915597
0.343661
0
0
0.656845
0.605966
1.01882
0.57876
1.10556
0.760936
0.520016
0.305357
0.470258
0.622742
0.300327
0
0.616642
0
0.598275
0.638463
0
0.428208
0
0.597474
0
0.607246
0.486004
0.623557
0.507614
0
0
0
0
0
0.737902
0.643822
0.5038
0
0.780349
0.607492
0
0
0.316911
0
0.203984
0
0.65874
0.660529
0.70603
0.796829
0.292797
0.514758
0
0
1.34916
0.880716
0
1.42045
0.929106
0.603095
0.611264
0.72776
0
0.373596
0
0.399024
1.0252
0.671277
0
0.430843
0.304218
0.391875
0.44448
0.529
0.586198
0.477715
0.482675
0
0.842309
0.435788
0
0.757062
0.546963
0.600383
0.935603
0.646557
1.2496
0
0.750571
0.420888
1.14793
0.750713
0
0
0.533394
0.690372
0.869709
0.363803
0.143395
0
0.444633
0.516782
0.533887
0.324589
0.308396
0
0.299672
0
0.201434
0.703425
0.691555
0
0.0672241
0.595283
0.527126
1.20061
1.65309
1.24019
0
0.293987
0
0.708886
1.43383
2.42215
1.3416
0.577131
0.602908
0.829954
0
0
0.362748
0.361446
0
0.696638
1.01909
0.947089
0.900514
0.480328
0.960699
0.942635
1.2868
0.606297
0
0.388107
0.365761
0.477883
0
0.521022
0
0
0
0.455695
0.868877
0.59304
0.808679
0
0.248876
0
0.161769
1.15021
0.175309
0
0.354586
1.65404
0.885053
0
0.5717
0
1.66268
1.14374
1.19345
1.29129
0.789982
0
0.820097
0
0.759443
0.882618
0.542817
0
0
0.713892
0
0
0
0
0.277683
0.4561
0.225473
0.269261
0
0.472887
0.480825
1.11639
1.00906
1.06791
1.33173
0.353147
0
0.465816
0.51589
0.809987
0.934564
0.513116
0
0.665843
0.359005
0.535382
0.942661
0.752986
0
0
0.397384
0.480147
0.996793
0.806324
0.823866
0
0.382351
0
0.738886
0.496491
0.792616
1.06176
1.02885
0.894222
1.0216
0.430168
0.378418
0.292082
0
0.720844
0.337519
0
0.508646
0.383468
0
0.446011
0
0.361118
0.0907681
0
0.469448
1.20107
0.990869
0
0.426448
0.992028
0.655766
1.28499
0.387562
0.593513
0.705773
0.561491
0
0
0.656565
0
1.16941
0
0
0.246061
0
1.27097
0.249173
0.543284
0.965568
0
0.778535
0.731202
0
0
0.6147
0.75476
0.857647
1.19295
0
0.300487
0
0.681693
0.626256
0
0.564173
0.748385
0
0.577328
0
0
0.516622
0.68204
0.269421
0.565574
1.09738
0
0.418089
0
0.728007
0
0.521076
0
1.00181
1.06237
0.429019
0.646462
0.869896
0.709741
0.746889
0.488519
0
0
0.49214
2.62
1.05612
0.756544
0.740263
0
0
0.579242
0.49923
0.476097
0.815964
0.317106
0.230655
0.360113
0.681139
0
0
0.735755
1.37583
0.455921
0
0.416039
0.596738
0.625776
0
0.883908
0.722961
0.724512
0.394277
0.848491
0
0
0.77512
0
0.957214
0.626933
0
0.517769
0.263829
1.53784
0.849388
0
0.689882
0.7036
0.297196
0
0.415701
1.06722
0
0
0.636135
0
0.518237
0.285448
0
0.444014
0.464066
0.384862
0.665704
0.526087
0
0.569863
0.197427
0.478433
0.191536
0.35572
0
0.41984
1.90451
0
0
0.652676
1.48412
0.839437
1.13747
0
0.455743
0.390059
0.345969
0.679138
0.369641
2.33882
0.58465
0.641189
0.957344
0.52251
0.681773
0.778198
0
0
0.521214
1.27733
0.550483
1.43876
0.53179
0.63289
0
0.180626
0.15661
0.234945
0.957743
0
0
0.692738
0.720606
0.557625
0
0.221214
0
0.555201
0
0.117993
0.564331
0.644435
0.584883
0
0.966286
0.3695
0.315553
0
0.235782
0.418841
0.301899
0.541785
0.50087
0.729286
0
0.0339487
0.412947
0.383732
0.733255
0.697363
0.917279
0.94655
0.575064
1.43816
0
0
0
0
0.533317
0
0.617171
0.719235
0.847871
0.611869
0.531804
0.417306
0.286074
0.614402
0
0.314295
0
0.434506
0
0.66203
0.51919
0.407788
0
0.326447
0
0
0.615976
0.839883
0.655236
0.348593
1.5351
0.479548
0
0.318633
0
0.452497
0.362958
1.00993
0.469401
0
0.220147
0.63679
1.0772
0
0.883802
0.578786
0.371062
0.638494
0
0.253087
0
0.766386
0
0.459754
0.542293
0.523891
0.424055
0
0.782712
0
0.402342
0.537141
0.738477
1.01103
0.52029
0
0.618214
0
0.734752
0.689598
0
0.602502
0.0987747
0
0.58073
0.815603
1.35627
0.46607
0.855901
0
1.07815
0.831051
0.411443
0.301431
0.643857
0.385965
0.365779
0.617612
0
0.49268
0.813168
0.415582
0
0.414483
0
0.20263
1.63369
1.40143
0.881641
0.566489
0.587042
1.04779
0
0
0
0
0
0
0
0
0
0
0
0
0
0
0
0
0
0
0
0
0
0
0
0
0
0
0
0
0
0
0
0
0
0
0
0
0
0
0
0
0
0
0
0
0
0
0
0
0
0
0
0
0
0
0
0
0
0
0
0
0
0
0
0
0
0.222325
0.559101
0
0.318119
0.452839
1.20841
0.750121
0.913869
0.315182
0.502865
0
0.680212
0.531198
0
0.611726
1.12054
0.425073
0.371938
0
0.448454
0.610053
2.25545
0.573803
1.56355
0.33677
0.582963
1.14723
0.55105
0.38079
0
0.381538
1.26506
1.35056
0.449364
0
0.946253
0.376492
0
1.26335
1.16774
0.207252
0.384916
1.32488
0.742286
1.42651
0.220337
0.283148
1.03814
0.481427
0.444206
0
0.680236
1.05945
1.31527
1.38358
0.785301
0.312261
1.45138
0
0.346205
0.826348
0
0.37091
1.1622
1.28282
1.07879
0.365181
1.14937
0.956241
0.649092
0
2.27708
0.0944899
0.381547
0.494217
0.949454
1.75629
1.25086
0.223277
0.824767
0.495821
1.18521
0.703567
0.917336
0
3.5168
0.825463
0
0
0.621733
0.640478
0
0.744423
0
0
1.97468
2.25054
1.90783
1.29529
1.40571
0.746591
0
1.80018
0.349336
0
0.981529
0
0.908539
0.59369
0.713865
0
0
0.405525
0
0.536362
0
0.958232
1.54316
0.828676
0.34004
0.792149
1.23795
0.31645
0.984705
1.29466
1.06677
0
0.826331
1.04961
0
0
0.534037
0.369889
0.579793
0.70989
0.674346
0.611384
0.651048
0
0
0.407528
0.733629
0
0.576341
0.905193
0
0.624954
0.387584
1.69048
1.12
1.71578
1.36716
1.89072
0
0.0779493
0.150932
0
0.529917
0.751458
1.45112
0.78141
0.615036
0
0.755335
0
0
1.39062
0.597552
0
1.39675
0.505118
0.547928
0.885444