<?xml version="1.0"?>
<VTKFile type="RectilinearGrid">
<RectilinearGrid WholeExtent="0 32 0 32 0 32" Origin="0 0 0" Spacing="1 1 1">
<Piece Extent="0 32 0 32 0 32">
<PointData>
</PointData>
<Coordinates>
<DataArray type="Float32" format="ascii">
0 0.524874 1.04975 1.57462 2.0995 2.62437 3.14924 3.67412 4.19899 4.72386 5.24874 5.77361 6.29849 6.82336 7.34823 7.87311 8.39798 8.92285 9.44773 9.9726 10.4975 11.0224 11.5472 12.0721 12.597 13.1218 13.6467 14.1716 14.6965 15.2213 15.7462 16.2711 16.796 
</DataArray>
<DataArray type="Float32" format="ascii">
-5.03879 -3.62163 -2.20447 -0.787311 0.629849 2.04701 3.46417 4.88133 6.29849 7.71565 9.1328 10.55 11.9671 13.3843 14.8014 16.2186 17.6358 19.0529 20.4701 21.8872 23.3044 24.7216 26.1387 27.5559 28.973 30.3902 31.8074 33.2245 34.6417 36.0588 37.476 38.8931 40.3103 
</DataArray>
<DataArray type="Float32" format="ascii">
0 0.524874 1.04975 1.57462 2.0995 2.62437 3.14924 3.67412 4.19899 4.72386 5.24874 5.77361 6.29849 6.82336 7.34823 7.87311 8.39798 8.92285 9.44773 9.9726 10.4975 11.0224 11.5472 12.0721 12.597 13.1218 13.6467 14.1716 14.6965 15.2213 15.7462 16.2711 16.796 
</DataArray>
</Coordinates>
<CellData>
<DataArray type="Float32" Name="Scalar" format="ascii">
0
0
0
0
0
0
0
0
0
0
0
0
0
0
0
0
0
0
0
0
0
0
0
0
0
0
0
0
0
0
0
0
0
0
0
0
0
0
0
0
0
0
0
0
0
0
0
0
0
0
0
0
0
0
0
0
0
0
0
0
0
0
0
0
0.30707
0.207829
0
0.172641
0.354956
0
0.344699
0.550112
0.209676
0.488606
0
0.224263
0.254986
0.489438
0.631643
1.20403
0.170625
0.258902
0
0.362376
0.463924
2.2849
0.364697
1.37835
0.114424
0.447394
1.58611
0.311822
0.131122
1.75548
0.118514
2.41328
0.196309
0.959002
0
0.21821
1.39654
0
0.545017
0.217882
0.875153
0.414568
0
0
0.152778
0
0.987009
0.546191
0.157703
1.30668
0
0.309838
1.70415
1.62618
0.419305
0.751411
0.802702
0.20692
0
0.935121
0.246263
0
0.562607
0.715055
0
0.625825
0.448797
0.434704
0
0.404221
0.860123
0
0.313345
1.1628
0
0.39334
0.621309
0
0.990169
0.575009
0.247468
0.990266
0
0.385427
0.56018
0
0.427319
0.861776
0.891986
0.683073
2.96559
0.64784
0
0.197181
0.663003
1.49285
0
0.974533
0.811478
0
0.657212
0
0.851438
0.385694
1.31945
0
0.39043
0.298797
0.559642
0.7196
1.73601
0
0.369681
0.504091
0.717707
0.515077
0.367696
1.05928
0
0.742133
0.688918
0.457367
0.436631
0
0.76779
0.903092
0
0.912913
0
0
0.823339
0
0
0.460084
1.59622
1.01342
0
0.418984
0
1.09544
0
1.01923
0.654922
0
0
0.868269
1.19184
0
0.757708
0.546847
0
0.655777
0
0.214515
0.627552
0.505309
0.814752
0.794662
0.442904
0.774126
0.443006
0.859533
0
0.780884
0
0.68004
0.519453
0.575953
0
1.16449
2.85463
1.39744
0
0.244932
0.398761
0
0.587101
0.762475
0.178497
0.479911
0.908126
0.096247
0
0.387284
0
0.522293
0.654034
0.365853
0
0.370789
0.449364
0.718021
0
1.51612
0
0.620634
0
0.256935
0
0.803023
0.523217
0.553445
0.541836
0.510372
0.0449396
0.430898
0.439363
0.71161
0.5694
0
0
0.449476
0.988302
1.46671
0
0.571986
0.548101
0
0.385471
1.42365
0
0.625892
0
0.445313
0.790336
1.00247
1.50372
1.14887
0.122768
0.370664
0.821509
0.86477
0.413968
0.63293
0
0.362266
0
0
0
0.308535
0.927841
1.00313
0.91548
0.627687
0.693005
0.399659
0.406339
1.34887
1.10777
0.699957
0.465203
0.220263
0.713873
0
0.664575
0.707514
0.867614
0.982672
0.831717
1.10276
0.695098
1.11363
0.554615
0.816989
0.430683
0.603325
0
1.01673
0.443603
0.187164
0.466923
1.04018
0.86621
0.229933
0.566361
0
1.10459
0
0.531293
0.507999
0
0.998553
0.942979
0.736622
0.490398
0
1.10508
1.1457
1.01027
0.599989
0.330122
0.369757
1.05
1.54386
0.442663
0.736574
0.496589
0.469301
0.857677
0
0.358792
0.570878
0.874981
0.7944
0.0702189
0.262273
0.783902
0.826866
0.441814
0.748296
0
0.384574
0.551795
0.760948
0.302624
0
0.532499
0.551671
1.97405
0.833937
0
0
0.770987
0
0.995411
1.38931
0.765535
0
0.392435
0
1.35265
0
0.541765
0.940289
0.452109
0.994626
0.260018
0.323715
0.570138
0.212504
0.491794
0
0.584287
0
0
0.183863
0.737111
0.870458
0.628488
0
0
0
0.431193
0.466759
0
0.264493
0.895677
0.851967
0.680421
0.929116
0.663177
1.06677
0.520791
0.753668
1.81636
0.922488
0
0.525986
0
0.371439
0
2.75343
0
0.318845
0
0
0
1.07982
1.65175
0.862046
0
0.29538
0
0.389392
0
0.400999
0.75685
0.418458
0.462568
0
0.573089
0
0.405178
0
0.912587
0.179508
0.450997
1.64463
0.750387
0.590581
1.1555
0.153383
1.03688
1.14759
0.973412
0.862594
0
0.340488
0
0
0.456724
0.533318
0
0.716016
0.666887
0
0.554643
1.75974
0.85171
0.322413
0.477884
1.03566
0.546957
0
0.394532
0.574115
0
0.694101
0.736976
0
0.352943
0
0.474837
0.819988
1.01885
0.981635
0.621778
0
1.06607
0.995355
0.519037
0.628072
0.144819
0.475684
0
0.692777
0.38411
0
0
0.54055
0.897705
0.560205
0
0.333216
0
0.295174
0
0
0.688409
0.469839
0.759994
1.07297
2.25479
1.08195
1.07231
0
0
0.624419
0.774126
0.644021
0
0.585945
0.332836
0.68307
1.98453
1.27395
0
0.538845
0.616941
0
1.13152
0.75033
0.718035
1.15192
0.238071
0.503951
0
0.780845
0.562059
0
0.369886
0
0.335563
0.503428
1.64683
1.35703
0.757197
0.378101
0.243309
0
0.447321
0.257972
0.560929
1.05076
0.575683
0
0.396523
1.72879
1.32741
0.351803
0.486654
1.0681
0.474621
0
0.557986
0.50913
0.940163
0.422779
0
0.471089
0
0.683429
0
0.531539
1.00879
0
0.873114
0.444902
0.505741
0.413834
0
0.924631
0
1.1085
0.883494
0
0.667226
0.697724
0.473802
0.169252
0.662423
0.530095
0
0.351487
0.506349
0.432587
0
0.613783
0.22188
0.526072
0.529706
0.516637
0.0460942
0.519612
0.59191
0.557233
0.581633
0.935777
0.49027
0.65634
1.10568
0.575684
0.360005
0.234479
0
0
0
0.921457
1.24548
0
0.704291
0.298712
0.447207
0
0.31264
1.38966
0.603163
0.518121
0.305538
0.257877
0
0.773804
0.973506
0.597141
0.641922
0.357882
0.473356
0
0.397322
0
0.809268
0
0.472064
0.817364
0.755611
0
0.587825
0
0.399825
2.00726
0
0.690568
0
0.486984
0
0.853344
0.486066
0.574456
0.145644
0.433947
0
0
0.515296
0
0.598338
0
0.578143
0
0.916405
0.964546
0
0.336287
0.736394
1.97631
0.967811
0.891387
0.825259
0.797604
0
0
0.349124
0.652084
0.498568
0.687177
0.752555
0.300637
0.590297
0
0.388759
0.443181
0.528872
0.547302
0.612773
0.567561
0.931503
0
1.25964
0.63405
0.669401
0.574822
2.25231
1.47459
2.03982
0
0.373787
1.39703
1.12197
0.460168
0.736552
0
0
0.457475
0.563455
0.771628
0
0.487649
0
0
0.394945
0.456435
0.775723
0
0.282495
1.43435
0
0.740404
0
0.618846
0.862104
0.432593
0.620681
0
0.302229
1.0159
0.759382
0.49881
0.377623
0.660594
0.59905
1.38107
0.768441
0
0.447536
0.582417
0.506754
0.254241
0.759264
0.374301
0.471404
0.613452
0.673869
0.29698
0.783906
0.834948
0.522143
0
1.4378
0.662725
0.285196
0.348457
0.303425
0.308226
0.966442
0.46452
0.760565
0.390101
0.698082
0.30338
0.62308
0
1.30619
0.530792
0.595492
0
0.739025
0
0.428838
0
0.364667
1.10081
0.640422
0.195744
0
0
0.338687
0.688546
1.19922
0
0
0.580234
0
0.328481
0
0.160748
0.579587
0.746307
1.21853
0
0.506667
0.107114
1.0408
1.128
0
0.480849
0.815355
0
0.70412
0.485121
0.909276
0.956637
0.92054
1.35384
0.494539
0.59508
0.818598
0
0.144161
1.23051
1.18489
0.66668
0.451399
0.499455
0.503519
0.874842
0.909027
0.913103
1.38218
0
0.619909
0
0.630291
0.517915
0
0.786389
1.39379
0.966874
0
0.691434
0.637063
0.630925
0.808059
1.57571
0.702374
0.480783
1.48758
0.424014
0.413142
0.266115
0.342266
0.774657
0.761486
0.375488
0.386492
0
0.182729
0.321959
0.383348
0
0
0.396316
0.920885
0
0
0.385276
0
0.495303
0
0.505163
0.668823
1.0173
0.364516
0.536063
1.02522
1.33622
0.463299
1.76676
0.755338
0
0
0
0.529422
0
0.201686
0.319116
0.802107
1.15416
0
0.539496
0
0.181441
0.250685
0
0.815164
0
0
0.537143
1.04745
0.489212
0.581377
0.490319
0.622764
1.46936
2.03847
0.504249
0.691925
0.853244
0.727459
0.569673
0.47147
0.369103
0.448779
0.379356
0.582144
0
0.672535
0.590669
0
0.50973
0
0.32034
0.527912
0.705828
0
0.0988979
0.595335
0.38799
0.57014
0.367315
0.593857
0.405757
0.928053
0
0.712749
0.403547
0.543363
0
0
0.634943
0.985195
0
0.530611
0
0.399735
0.652048
1.21261
0.930672
0.50695
0.592671
0
0.904619
0.371663
0.663767
0.506638
0.395336
0
0.799242
0
0.488687
0.628355
0.71432
0.567795
0
0.622075
0.401479
1.09101
0
0.796824
0.655874
0
0
0
0
0
0.559683
1.14937
0.829669
0.401898
0.498019
0.589778
1.17028
0.814391
0.847921
0.186811
0.0834497
0
0.442327
0
0
0.679584
0
0.513145
0
0.233578
0.598236
1.00232
0.723065
1.28217
0.891824
0.821328
0.489985
0.565261
0.397434
0.467769
1.04592
1.02138
0.525762
0
0.518525
0
0.237919
0
0
0
0
0
0
0
0
0
0
0
0
0
0
0
0
0
0
0
0
0
0
0
0
0
0
0
0
0
0
0
0
0
0
0
0
0
0
0
0
0
0
0
0
0
0
0
0
0
0
0
0
0
0
0
0
0
0
0
0
0
0
0
0
0.207145
0.533313
0
0.500951
0.536012
0
0.524494
1.4395
0.338764
0.38428
0.984204
0.486039
0.518464
0
0.354876
0.707676
0.36975
0.48258
1.42572
0.545017
0.538013
0
0.344294
0.830171
0.428519
0.470924
0
1.00534
0.555198
0
0.415329
0.999336
0.611831
0.61706
0
0.871118
0.75869
0.793475
1.92933
0.138552
0.0522272
0.973064
0
0.153018
1.99212
0
0.36873
0.625741
0
0.210023
0
2.95189
0.502692
0
1.09703
0.601899
0.239736
0.918946
0
0.742027
1.36376
0
0.145873
0.86752
0.52411
0.671029
0.25043
0.719545
0.509926
0.448606
0.767329
0.607728
0
0.331011
0
0.342554
0.646154
0.83649
0.525815
1.0202
0
0.742762
0.942671
0.76147
0.482968
0.718912
0.539584
0
0
0.974058
1.15087
0.904447
0.995227
0.888503
0.642286
0.866829
0.703605
0.862938
0.802373
1.16254
0.562804
0.338626
1.00712
0.869621
0
1.20459
0.453879
0.423638
0.963673
0
0.921167
0
0
0
0.467805
0.312263
0.620961
1.59473
1.21397
0.891469
1.8497
0.754665
0
0.635987
1.24183
0.800476
0.424058
1.1335
0.839181
1.52032
0.523831
1.02057
0
0.633097
0.974006
0.808853
0
0.690895
0.092609
0.347389
0.441273
0.346517
0.14889
0.830226
0.556942
0.304241
0
0.489618
0
0.67171
0.890689
0
0
0.360551
0.680685
0.533296
0.619821
0
0.616493
0
2.00007
1.18693
0.313226
0
0.965731
0.780391
0.800062
0.529811
0.785784
0.650391
0.425883
0.719904
2.46119
0.828074
0.539445
1.14463
0
0.540413
0.28342
0.497384
0
0.517785
0.349176
0
0.797671
0.892082
0.875645
0.994791
0
0.643965
0
0.780899
0.340288
2.34271
0
0.271143
0.614709
0.537285
0
0.854513
0
1.12114
0.97687
0
0.733498
0.70222
0.645626
0
0.70587
0
0.701178
0
0.684512
0.215961
0.688156
0
1.27161
0.388589
0.729295
0.727043
0.479138
1.30169
0
0
0
0
0.953641
0.477127
0.468709
1.15287
0
0
0.219908
0
0.625672
0.722577
0.514777
0.834896
0.600513
0.224309
0.383904
1.19538
1.03039
1.03949
0.279597
0.447779
0.636629
0
0.626055
0.938182
0.424948
1.08585
0
1.03072
0.682138
0
0.825237
0.444622
0.557196
0.152667
0.756428
0.922717
0.907771
0.391674
0
0
0.424331
0.683104
0.50354
0.428203
0.567286
1.77288
0.529006
0
0.82488
0.365418
0.925295
0.778354
0.876991
0.82267
0.500447
0.325467
0
1.51917
0
0
0.644614
0.390478
0.647169
0.414239
0
0
0.573942
0
0.551466
0.481593
0
0.67181
1.07317
0.753295
0
0.689955
0
1.67013
0.533931
0
0.301536
0
0
0.927894
0
0.6953
0.372873
0.840762
0.519284
0.347437
0.343952
0
0.37929
0.693776
0.676748
0
0.420219
0.267745
0.662674
0
0.21423
1.77222
0
0
1.18368
1.39993
0
0
0.215262
1.70586
0.721776
0
0.653341
0.831689
1.19459
0.448527
0.375348
0
0.663378
0.127731
0
0.524358
0
0.784828
0.691309
0.595742
1.03127
0.908373
0.58101
0
0
1.00759
0.281285
1.21988
0
0.730892
1.13731
0
0.769479
0
0.791288
0.915687
0.364492
0.616187
0.734281
0.872281
0.990026
0.463725
0
0.949883
0.826938
0.792356
0
0
0.877252
0.920524
0.438581
0.669465
0.427981
0.296139
0.956773
0.793928
0.497984
0.85228
0.54449
0
0.995152
0.297007
0.61032
0
0.465214
0.785903
0
0.329624
0.31826
0.664977
1.04319
0
0
0
0.866894
0.874991
0.334679
0.667244
0.305383
0.401831
0
0.817312
0
0.422681
0.593793
0.578543
0
0
0.288745
0.623311
0.575291
0.596177
0.257214
0.747677
0.664
0.684554
0.62026
0.623763
0.382305
0.75242
0.5865
0.245405
0.980227
0.686596
0
0
0.760517
0.569727
0.386104
0.74782
0.311428
0.780494
0.748178
0.549983
0.539501
0.937282
0.607787
0.399568
0.414816
0
0.352121
0
0
0.453444
1.27224
0.950117
0.890964
0.641633
1.29837
1.64718
0.441911
1.25281
0
0.532184
0.626407
0.53806
2.06729
0
0.247406
0.354668
0.227689
0.560025
0.820343
0.424777
0
0.137232
0.68748
0.749888
0.501982
0.657826
0.643991
0
0.814198
0.21712
0.567074
0.551276
0.73007
0.564894
0.255557
0
0.1787
0
0.655316
0
0.57496
0
0.574965
0.300238
0.927745
0
1.11655
1.13209
0.525097
0.864597
0.645588
0.401416
0.727779
0.115151
0
0.827025
0
0.639449
0.349724
0.480896
0.542032
0.675717
0.327097
0.638668
2.94678
1.03325
0.524109
0.902964
0.4045
0.439806
0.921808
0.923202
0
0.578222
0.345344
0.43471
0.284164
0.190682
0.658854
0.427642
0.420889
0.143835
0
0.888961
1.24817
0
0
0
0.493583
0
0.549664
0.389936
0.356264
0
1.21721
0
0.956249
0
0.72191
0.821661
0
0
0.687542
0.781275
0
0.653398
0
0.473203
0.521479
0.805084
0.750876
0.563261
0
0.734347
1.20783
0.371548
0.203623
0
0.621472
1.23122
0
0.626472
0
0.437098
0.488201
0.787783
2.52071
1.04661
0.684733
0
1.7358
0.334392
1.19625
0.777646
0.497435
0
0.323198
0.374274
0
0.523659
1.08688
0.641686
0.99774
0.711145
0.885997
0
0.313773
0
0.684028
0.383243
0
0
0.312381
0.113262
0.490699
0
0.229554
0
0.375956
1.32516
0.71252
0.885721
2.15269
0.425056
0.500993
0.793818
1.13507
0.818584
0.610845
0.530487
0.532338
0.784489
0.728717
0.595896
0.716358
0.395111
0.74335
0.820892
0.618637
0.568713
0
0.686611
0
0.562191
0
0
0.63372
0
0.560755
0
0.772218
0.412186
0
0
0.556159
0.687276
0.818522
0.521495
0.43604
1.03106
0.876975
0
0.655228
0.774033
0.409428
0.469402
0.342652
1.21373
0.326576
0
0.693454
0.412927
0.563446
0
0
0.622419
0
0.566901
0
0
0.936961
0.578124
0.682791
0.111747
0.158978
0
0.192301
0
0.156761
0.532728
0.621612
0.338204
0.898996
0
0.553007
0.633769
0.501469
1.58268
0.335801
0.764628
0.777354
0.379282
0.235284
0
1.13209
0.688403
0.694295
0.654102
0.885331
0.572999
0.4931
1.13646
0.827837
0.841708
0.347588
0.259737
0.674759
0.506115
0.340209
0.628272
1.09203
0.481402
0.480611
1.05373
0.980016
0
0.832563
0.77231
0.386494
0
0.346073
0.677754
1.02385
0.491036
0
0.631393
0
0.263723
0
0.271239
0.419077
0.542909
0.709595
1.33284
0.596569
0.258112
0.661621
0.574741
0
0.438667
0
0
0.975215
0
1.04319
1.4443
0.66497
0
0.37835
0.592286
0.65288
0
0.449941
1.47214
0
0
0.792267
0.428675
0.814556
0.390835
0.561666
0
1.30476
0
0.586194
0.489209
1.27855
0.60327
0.459952
0.943264
1.00051
0
0.840113
0.49375
1.17022
1.08583
0.682985
1.23071
1.25917
0
0.707804
0.25657
1.21766
0
1.14678
0.48163
0.543192
1.30788
0
0.598692
0.33633
0.34624
0
1.06858
0.501914
0.776277
0.918202
0.786593
1.27933
0.355282
0.374187
0
0.355968
0
0
0.553701
0.506517
0.404869
0.922495
0.51652
1.88347
0
0.514128
0.210453
0.387375
0.460465
0.404668
0.340478
0
0.4298
0.139777
0.626704
0.903887
0.446756
0.767838
0
0.492021
0
0.473299
0
0.644234
0.610389
0.839254
0.589423
0.48251
0.508853
0
0.715412
0.533951
0
0.899657
0.685439
0.783617
0
0.266521
0.915567
0.694174
0.536228
0.658224
1.44342
0.369815
0.64643
1.43611
0.623573
0.562768
0
0.74978
0.818875
0
2.08246
0.434764
0.340369
0.47286
0.739384
0
0.581757
0
0.394078
0
0
1.4669
0.300492
0.371478
1.1321
0.93031
0.41517
0.751004
0
0.641769
0.874219
0.813533
0
0.431474
0
0.471397
0.431481
0.704694
0
0.275521
0
0
1.18541
0.443975
0.978285
0
0.916152
0
0.841366
0
1.10168
0
0.520914
0.356719
0.209459
0.679206
0.49482
0.452234
0
1.00975
0.222527
0.619715
1.11844
0.236782
0.402239
0.399654
0
0.384724
0.410459
2.71709
1.54729
0.199951
0.745477
1.05436
0.778446
0
1.78193
0.634991
0.550439
0.699853
0.713422
0.249433
0.390161
0.426719
0.395827
0.398758
0.394315
0.804711
0
0.431574
0.0628365
0.867708
0
0.336712
0
0.235671
0.358295
0.434443
0.518312
0.662894
0.24714
1.1098
0.627505
0.563361
0.556289
0
0
0
0
0
0
0
0
0
0
0
0
0
0
0
0
0
0
0
0
0
0
0
0
0
0
0
0
0
0
0
0
0
0
0
0
0
0
0
0
0
0
0
0
0
0
0
0
0
0
0
0
0
0
0
0
0
0
0
0
0
0
0
0
2.12346
0
0
0
0
0
0
0
1.15819
2.2316
0
0
0.937623
0
0
0
0
0.695211
0
1.62855
0
0
0.442166
0
0
0.564129
0
0.864379
0
0
0.776627
1.62276
0
0
0
0.779652
0
0
0
0
0
0
0
0
0
0
0
0.193453
0
0
0
0
0
0
0
0
0
0
0
0
0
0
0
0
0.415748
0.534432
0.473632
0.502605
0.792952
1.23893
0
0.828956
0
0.518374
0.850106
0.641337
0.437587
0.616684
0.688734
1.86414
0.322124
0.507152
0.772333
0
0.448881
0
0
1.06249
0.879424
0
1.43816
1.20653
1.85134
0
1.67885
0
1.19111
0.524578
0.53902
1.07676
0.661416
0.613845
0.518872
0.53468
0
0.224549
0.728723
0.88928
0.598229
0.546006
0.678056
1.25299
0.748161
2.2626
0.486163
0.390022
0.806127
0.962212
0.73012
0.951579
0.883634
0.668244
0
1.68664
0
0.683402
0.558694
1.04336
0.729739
0
0.381672
0.591708
0
0.707086
0.806611
0.307076
1.5073
0.391804
0.728537
0.664416
0.25717
0
0.635487
0
0.499577
0.567725
0.849454
0
0.741883
0.308654
0.654762
0
0.708473
0.451027
0.808799
0.228196
0
0.657512
0.406401
0.963261
0.667579
0.952493
0
0.89898
0.636013
0
0.898111
0
1.02099
1.88217
0.891013
1.35885
1.18394
0.343763
0.532919
0.850255
0.468333
0.529132
0.532195
0.334223
0.944394
0.302771
0
0.885287
0
0
1.08183
0
0
0.0985167
0
1.11628
0.648545
0.50317
0
0.643809
0
0.479511
0.569648
0
0.362275
1.03074
0.633058
0.559351
0.557725
0.59096
0.390978
0
0.686438
0
0.615776
0.695935
0.292655
0
0.881644
0.228334
1.34917
0.709559
0.446733
0.473152
0.92747
1.43385
0.364478
0.538013
0.102164
0.791382
0
0.355546
0.584268
0.398719
0.788409
0.477557
0.324177
1.23692
1.50903
1.67229
0
0.445671
0.775908
0.717014
0.473407
0.996728
0.719861
0
0.73598
0.335132
0.553456
1.02348
0
1.23065
0
0.450271
0
0.357395
0
0.727294
0.924052
0.86369
0.620124
0.627198
1.2611
1.0369
0.532206
0
0.455346
0.951876
0
1.45007
0.615083
0.640429
0.486907
0
0
0
0.247421
0.673654
0.690127
0.464156
0
0.658675
0.34071
0.732675
0.306258
0.35074
0.458408
0.573225
0.410713
0.433452
0.685653
0.669771
1.10706
0.413178
0.366601
0.59295
0.396145
1.32808
0.531571
0.977593
2.02634
1.2143
1.52116
0.875459
0.633597
0.94435
0
0.477347
0.382988
0.42221
0.333674
0.88974
0.806172
0
0.319256
0.553396
0.399835
0.538927
0.664225
0
0.777545
0.861926
0.845712
0.376215
0.557
0
0.450784
0
0
1.9654
0.375562
0.644153
0
0
0.592132
0.37934
0
0.688706
0.879924
0.444792
0
0.526053
0.423823
0.874012
0.251913
1.23613
0.588298
0.394036
0.752261
1.02092
1.17771
0
0
0.570091
1.12844
0
2.0601
0.773385
0.888984
1.78253
0
0.431171
1.23322
2.04006
1.40385
0.48826
1.64159
0.618389
0.381375
0.684797
0.870775
0
0
1.14226
0.668722
0.813413
0
0
0.481635
0
0.963117
0.760568
1.00758
1.02759
0.737153
0.973475
0
0.19378
0.34202
0
0.608174
0.395393
0
0.615957
0.260205
0.639668
0.840211
0.691292
0.563597
0
0.609855
0
0.435455
0.267648
0
0.847232
0.47756
0.595038
0
0.447831
0.836245
0.541721
0
0.543204
0.445164
0.465027
0.641415
0.116607
0
0.688748
1.25297
0.324851
0
0.711877
0.607039
0
0.694462
1.35025
0.745402
0.0981373
0
0.43688
0
0.756624
0.45879
0
0
0.710605
0.92743
0.437127
0
0
1.4579
0
1.49431
0.704252
4.11712
0.460775
1.02983
0
0.486387
0
0.420306
0
0.622144
0.533575
0.722184
0
0.572697
0.994953
0
0.655819
0.550208
0.909707
0.1496
0.572151
0.508754
0
0.392245
0
0.993072
0.893274
0.66151
0.309986
0.255038
0
0.588948
0
0.720086
0
0
0
0
0.403358
0
0.595834
0
1.00887
0
0.547104
0.595936
0
0.954072
0.320871
0.813367
0
0.583936
0.58049
0.797437
0.184241
0.298555
0
1.10067
0.488742
1.66977
0.894611
0.621932
0
0
0
0
0.254834
0.847221
0.447125
0
0.412004
0
0.417525
0.428675
0
0.546979
1.04707
0
0.892493
0.562714
0.698089
0.565678
0.596632
0
0
0.473724
0
0.683236
0
0.212082
0.625719
0.890889
0.193767
0.651163
1.26577
1.04195
0.526569
0.343306
1.52695
0.662157
0
0.461268
0.81756
0.548509
0
0
0
0.608902
0
3.45233
0.323752
0.951615
0.684924
1.07732
0.418375
0
0.775438
0.511101
1.4385
0.944029
0
0
0
0.291723
0
0.623097
0.276362
0.808185
0
0.357805
1.44297
1.18377
0.988796
0.413725
0.570005
0.641617
0
1.56477
0
0
0.67829
0.590037
0.692685
0.299783
0.420952
0
0.281281
0.366166
0.623521
0.439877
0.629977
0.807144
0.710383
0.925278
1.32127
0.853623
1.40499
0.626416
0
0.757991
0
0.371519
1.60444
1.45413
0.35941
0.176555
0.0174077
0.508293
0.528874
1.18891
0
1.57194
0.677432
0
0.73986
0.516706
0.677862
0.824754
1.22012
0.583236
0.696998
0.825385
0.791965
0.394323
0.928934
1.20237
0.843608
0.81148
1.04717
0.972126
0.564039
0
0.487012
0.451175
0
0.735456
0.580231
0.425897
0.549009
0.836982
0.406709
0.607725
1.57521
1.19987
0.319609
0
0.232423
0
0.341325
0
0.891268
0.736
0.589922
0.803977
1.01199
0.750918
1.30057
0.684087
0.270682
0.24934
0
1.27741
0
0
0
0.678736
0.658039
0.659239
0.599249
0.470834
0.500273
0.139771
0.642109
0
0
0.391243
0.758062
1.04808
0.27543
0.649379
0.563875
0
1.00604
0
0.361037
0
0.595403
0.637205
0.996192
0
0.665159
1.11085
0
0.548836
0
0
0.537139
0.390936
0.443644
0.392811
0.452787
0
0.319395
0.649342
0
0.297525
0.485329
1.17416
0.873056
0
0.419565
0.688289
0
0.125828
0.525689
0.58278
0
0.430098
1.23011
0.489533
0.449201
1.07882
0.777311
0
0.93138
0.944576
0.721028
0.61532
0
1.23668
0
0
0.41511
0.571034
0
0
0.374439
0
0.450462
0.302927
0.509591
0.41035
0.585895
0.537743
0.464771
0.824196
1.20838
0.347629
0.464556
0.763468
0.709753
0.967309
0
0.438705
0.460728
0.753511
0.850096
0.932475
0.636288
1.26411
0.195979
0.346278
0
0.497426
0
0.797395
1.36829
0
0.365278
0.346474
0.401465
0.239285
0
0.653933
0.446108
0.784565
0.665546
0.611769
0.709259
0
0
0.953198
1.13703
0.577844
0
0.472146
0.744972
0
0
0.931277
2.02758
0.449011
0.379185
0.735398
0.702591
0
0.999979
0.608516
0.1599
0
0.686062
0
0.556452
0
0.232769
0.887958
0.585642
0.411584
0.403175
0
0
0
1.28088
1.05031
1.1868
0.768969
0
0.398532
0.802669
0.606574
0.687419
0
1.22028
0.247758
0.991258
0
1.26418
0.545291
1.28968
0
0.392063
0
0
0.673164
0
1.34593
0.350859
1.34433
0.851372
0.506588
0
0.454201
0.688391
0.680519
0.4262
0.655775
0.419535
0
1.03348
0.811381
0.65732
0.599342
0
0.51616
0
0.498049
0
0.808287
0
0
0
0.402205
0.590459
0.559562
0.837223
0.238871
0.271893
0.376882
0.599034
0.189701
0
0.767671
0.999982
0.698024
0
0.326451
0
0
0.430975
0.413234
0.779164
0
0.625876
0.376972
0.239968
0.894999
0
0.675792
0.484095
0.551823
0.790185
0.89685
0.090958
0.542591
1.90322
0.574649
0.56846
0
0.865965
0.500082
0.320099
0
0.556483
0.588656
0.952807
0.818347
0
0.936384
1.05452
0
0.362045
0.247074
1.01974
0.475148
0
0
0.229406
0
0
0
0
1.01011
0.950739
2.09703
0
0.89045
0.788976
0.788259
0.628873
0.524013
0
0
0.263536
0
0.675953
0.875101
0.904947
1.29584
0.995711
0
0.59494
0.245242
0.324573
0.169196
0.390288
0.341195
0.67936
0.630034
0.585094
0.961382
0.817601
0
0.47765
0.684631
0.908799
0.471341
0
0
0
0
0
0
0
0
0
0
0
0
0
0
0
0
0
0
0
0
0
0
0
0
0
0
0
0
0
0
0
0
0
0
0
0
0
0
0
0
0
0
0
0
0
0
0
0
0
0
0
0
0
0
0
0
0
0
0
0
0
0
0
0
0
0.544695
0.617567
0
0.532846
0.49463
0
0.414557
2.00907
0.293111
0.474957
0
0.316171
0.550142
0
0.588348
0.87616
0.257702
0.428503
0
0.513006
0.38969
0
0.527645
0.72121
0.176827
0.586389
0
0.568793
0.314623
0.754636
0.529257
0.915129
0.294364
1.1804
0
0.400763
0.507418
0
0.609828
1.43104
1.40596
0.336813
0
0.345776
0.554519
0
2.22162
0.698436
0.264987
1.77272
0
0.233177
2.00655
0
0.271713
0.211234
1.06758
0.249519
0
0.583317
0.207637
0
1.92648
0.696307
0.753342
1.02503
0.673473
0.40523
1.01577
0.968309
1.05035
0.863392
0.705047
0.245006
1.64416
0.790246
0
0.482545
1.0515
0.352525
0.581521
0.863188
0
0.352707
0.890962
0.958246
1.02457
0.946704
0.619265
0.408193
0.95457
1.35091
0.833482
0
1.10389
0.661918
1.06955
0
0.954628
0.342962
0.682017
0.678441
0.591912
0.497462
0.704474
0.593822
0.110658
0
0
0.513934
0
0.660353
0
0.942978
0
0.628987
0.368696
0.820826
0
0.497867
0
1.11437
0.771692
1.03572
1.21986
0.851026
0
0.885954
0
0.429983
0
2.48882
0.867279
0
0.985572
0
0.283334
0.818488
0.447836
0
0.671032
0.170969
1.69919
0
0.889015
0
0.908414
0.735138
0.226039
0.498186
0
0
0.626898
0.211171
0.784017
0
0.548416
0
0
0.397439
0.884231
0.896218
0.494974
0
0.408215
0.765141
0.431635
0
0
0.337588
0
0.771738
0
0.516222
0
0.734877
0.707336
0
0.890093
0
1.18851
0.750616
1.19856
0
0.480093
0.188826
0.547167
0
1.21958
0
1.26434
0.549369
0
0.832288
1.08022
1.91318
0.469983
0.920107
0.887028
0.72564
0.555475
0.517377
0.419376
0
0.624148
0.532737
1.25136
0.47198
0.727137
1.36679
0.641194
0
0.644331
0
0.996659
0
1.17629
0.810131
0.523832
0.778322
0.383896
0.257022
0
0
0
0.347585
0
0.406456
0.848964
0.911718
0
1.62211
0.575434
0.0647707
0.803936
0.420044
0.824337
0.980089
1.07679
0.864389
1.11719
0.346374
0
0.712365
0
0
0
0.468491
0.453318
0.684257
0.963226
0.0952532
0.670664
0.835828
0
0
0
0.460522
0.80644
0.408867
0.389782
1.067
1.27673
0.423648
0.940466
0.220111
0.488798
0.262684
0.680879
0
0.637936
0
0.352828
0
0.923075
0.951886
0
0.51461
0.222103
0.503318
0.410394
0.689827
0
0.444761
0.483884
0
0
0.529906
0.513324
0.394383
1.25129
0.176741
0.777372
1.30246
0
0.480059
0.485088
0.585114
0.758971
0.649702
0.615379
0.562283
0.187583
0.90489
1.8124
0.400342
0.567478
0
0
0.744234
0
0.34587
0
0
0.560202
0.589335
0
0.535856
0.754887
0.754179
0.597838
0.523667
0.271959
0
0
0.35329
0.339718
0.877252
0.693379
1.1284
1.77117
0
0.681099
0
0
0.818402
0.600851
1.02433
1.05923
0.240533
0.93242
0.683548
0.570106
0.622194
0.963103
1.49225
3.09668
0
0.601506
0.481295
0.674744
0.448363
1.12544
0.772511
0.923727
1.50402
0.565172
0
0.610444
1.20788
1.40009
1.57311
0.537057
0.177989
0
0.523229
0
0.580089
0
1.35429
0.454652
1.33172
0.798678
0.722269
0.623745
0.544932
0.634409
0
0
0.743369
0.986181
0.877383
1.35812
0.857568
1.02859
0.774559
0.941552
0
0.512521
0.517655
0.863211
0.727904
0.619988
0.880873
0
0
1.54533
0.544565
0.296475
0.638536
0.971819
0.670097
0.504311
0
0
0.824057
1.02526
1.07997
1.10497
0.430382
0.843727
1.08871
0
0.464267
1.27978
1.36608
0.677451
0.387814
0
0
0.58935
0.587092
0
0.894367
0.662387
0.390508
0
0.338706
0.100936
1.94008
1.04148
0.879802
0.668721
1.02907
0.447762
0.458315
0
0
0.620432
0.761054
0.806519
0
0.652948
0.478585
0.590084
0
0.59589
0.24244
0.576672
0.535191
0.790479
0
0
0.336952
0.241873
0.640403
0.726561
0.539284
0.432179
0.558538
0.695362
1.39687
0.723607
0
0.668571
1.21341
0.354091
0
0.239005
0.60586
0
0.987864
0.93231
0.894165
0.562165
0.15027
0.390101
0
1.31464
0.969332
0.424213
0
0
0
1.00101
0.748479
0.313386
1.75012
1.29669
0
0.366567
0
0
0
0.518344
0.441803
0.747436
0.471302
0.590832
0.641429
0.804565
0
1.268
1.24078
0.633277
0.752829
0.803869
0.590038
0.97179
0.361519
1.57
0.587964
0.304371
0
0.198677
0.608546
0.592242
0.571917
0
0
0.341533
1.06527
0.56777
2.38064
0.189066
0.226379
0.670939
0.736561
0.577867
0.578711
0
0.618657
0
0.488171
0.399601
0.777101
0
0
0
0.729653
0.31338
0.915255
0.699311
0.472393
0.367242
0.493161
0.447403
0.256443
0.252546
0.418358
0
0.866683
0.552836
0.611664
0.676936
0.459965
0.243649
0.338627
0
0.737066
0
1.11224
0.971681
0.773032
0.945649
0.768625
0.587732
0.735784
0.371326
0
0.574742
0
0
0.631614
1.45963
0.553449
0.604899
1.1
0.665318
1.12516
1.38629
0.662223
0.584462
1.80082
0.40816
0.654801
0
0.532168
0.817914
1.01419
0.532467
0.295673
0.207369
0.856724
0.591329
0.514216
0.871805
1.09595
0
0.862314
0.931302
0.724989
1.18197
0.919145
0.777827
0.457796
0.786937
0
0.597958
0.518699
0
0
1.22544
0
0.502511
0
0.474504
0
0.759073
2.05512
1.20757
0
0.496767
0.71388
1.15564
1.01779
0.385197
0.975805
0.791941
0.583119
0.360998
0.702566
0.560642
0.917412
0.856916
0
0
0.614747
0
0.631512
0.702249
0
0.748188
0.833543
0.946846
0
0.293979
0.309942
0.503123
0
0
0.957968
0.905605
2.83348
1.04938
0.82008
0.893128
1.14683
0.880419
1.14331
1.24609
0.332102
0.608113
0.686178
0
0
0.333321
0.380305
0.752902
0.564701
0.337414
0.476695
0.816115
0.366536
0.515785
0
0.731064
0.97434
0.970161
0.0183099
0.584391
0
0
0.514563
0
0.628944
0.789491
0.645358
0.937538
0
0
0.481292
0
0.898874
3.15019
0
0.705254
0.458478
0.479922
1.0334
0
0.946352
0.358691
0
0.678365
0.445926
0.256124
0.815474
0.856526
0
1.84451
1.52232
0.721097
0.608349
0.0445574
0.811872
0.562088
0.572953
0.43611
0.168969
0
0.407365
1.42265
0.600308
0
0.558118
0.75492
0
1.01956
0.132647
0.711712
0
0.778173
0
0.62822
0
0.790694
0.352089
0
0.818448
0.557506
0.438718
0
0.870846
0.302845
0.292733
0
1.19957
0.808521
0.441959
0.285195
0.529417
0
0
0.342874
0.712443
0
0
0.659563
0.787197
1.35265
0.704894
0.903772
0.605035
0
0.662426
0
1.01201
0
0.770347
0.417053
0.41005
0.520318
0.581699
0.488299
1.08479
0.911596
0.417602
1.535
0.554806
1.03556
0.535059
1.17453
0.60602
0
1.62104
0
0.646375
0.724362
0.53323
0.739137
0.507137
0.401895
0.86481
0.599284
0
0.637789
0
0
0.58953
0.997631
0
0.759377
0.446832
0.43858
0.531805
0
0.47118
0
0
0.165401
0.477123
0.718695
0.461381
0.392459
1.91959
0.490827
0.995797
0
0.244919
0.492373
0
1.5528
0.364906
0.45383
0
0.513394
0.609914
0.324855
1.1614
0.889896
0.810457
0
0.381375
0.688825
0.497615
0.497369
0.244534
0.593181
0.220089
0.34487
0.867106
0
0
0.628087
0
0.880906
0.593544
0.436485
0
0.740847
1.33189
0.889855
0.8169
0
0.65383
0
0.554416
0.516781
0
0.564654
0.331423
0.142523
0.339775
0.335532
1.53966
0.19964
0
0.812861
0.384012
0
0.842597
0.213948
0
0.445198
0
0.735615
0.705949
0.354175
0.433921
0.839724
0.564769
0.36394
1.27342
1.04047
0.502859
0.399547
0.649545
0
1.00963
0.436992
0.75014
0.305134
0
0.53552
1.12619
0.506825
0.768618
0.658058
0.196768
0.406018
0.709352
0.817582
0.478963
0.680862
0.547273
0.546719
0.394782
0.998778
0.888359
0
0.416256
0.595825
0
0
0.695524
0.287526
0.429936
0
0.439094
0
0.446523
0.468716
1.22
0.840164
0.978243
1.37727
0.829202
0.474722
0
1.26734
0
0.354102
0.599436
0.460744
0.389298
0.65713
0.461421
1.11582
1.56936
0.491536
0.653709
0.635693
0.62318
0.324178
0.526355
0.493185
0.982711
0.643941
0.717352
0.518574
0
0.642402
1.60443
0.513923
0.942832
0
0
0.588083
0
0
0
0
0
0
0
0
0
0
0
0
0
0
0
0
0
0
0
0
0
0
0
0
0
0
0
0
0
0
0
0
0
0
0
0
0
0
0
0
0
0
0
0
0
0
0
0
0
0
0
0
0
0
0
0
0
0
0
0
0
0
0
0
0
0.406013
0.538844
4.04534
0.396461
0.411707
0.854708
0.574652
0.577659
0.215378
0.588194
0
0.41933
0.524663
0
0.449762
1.39599
0.239582
0.377854
0
0.385594
0.54044
1.11372
0.38854
1.02702
0.223568
0.424883
0
0.48256
0.45485
0
0.61164
1.40725
0.218746
0.413595
0
1.37093
1.45145
2.29211
1.64664
1.09942
0.320528
0.768603
0
0.772972
1.09726
0
0.412087
1.12718
0.597668
0.439639
0
0.416816
0.508405
0
0.906048
0.212125
0.0701422
1.91758
1.59748
0.598524
1.30277
0
0.396875
0
0
0.745705
0.335383
1.33641
0.235211
0
0.660907
1.31535
0.421277
0.612243
0
0.232543
0.853764
0
1.32999
1.00298
0.59644
1.12625
0.448501
0.237985
0
0.313994
0
0.952457
0
0.496543
1.17758
1.13465
1.1055
2.60778
1.24589
0.686139
0.712466
1.21259
0.551925
0
0
0.901758
0.52874
0
0
0.797493
0.61611
0.88992
0.774298
0.156959
0.585374
0
0
0.584424
0.873533
0.629149
0