<?xml version="1.0"?>
<VTKFile type="RectilinearGrid">
<RectilinearGrid WholeExtent="0 32 0 32 0 32" Origin="0 0 0" Spacing="1 1 1">
<Piece Extent="0 32 0 32 0 32">
<PointData>
</PointData>
<Coordinates>
<DataArray type="Float32" format="ascii">
0 0.524874 1.04975 1.57462 2.0995 2.62437 3.14924 3.67412 4.19899 4.72386 5.24874 5.77361 6.29849 6.82336 7.34823 7.87311 8.39798 8.92285 9.44773 9.9726 10.4975 11.0224 11.5472 12.0721 12.597 13.1218 13.6467 14.1716 14.6965 15.2213 15.7462 16.2711 16.796 
</DataArray>
<DataArray type="Float32" format="ascii">
-5.03879 -3.62163 -2.20447 -0.787311 0.629849 2.04701 3.46417 4.88133 6.29849 7.71565 9.1328 10.55 11.9671 13.3843 14.8014 16.2186 17.6358 19.0529 20.4701 21.8872 23.3044 24.7216 26.1387 27.5559 28.973 30.3902 31.8074 33.2245 34.6417 36.0588 37.476 38.8931 40.3103 
</DataArray>
<DataArray type="Float32" format="ascii">
0 0.524874 1.04975 1.57462 2.0995 2.62437 3.14924 3.67412 4.19899 4.72386 5.24874 5.77361 6.29849 6.82336 7.34823 7.87311 8.39798 8.92285 9.44773 9.9726 10.4975 11.0224 11.5472 12.0721 12.597 13.1218 13.6467 14.1716 14.6965 15.2213 15.7462 16.2711 16.796 
</DataArray>
</Coordinates>
<CellData>
<DataArray type="Float32" Name="Scalar" format="ascii">
0
0
0
0
0
0
0
0
0
0
0
0
0
0
0
0
0
0
0
0
0
0
0
0
0
0
0
0
0
0
0
0
0
0
0
0
0
0
0
0
0
0
0
0
0
0
0
0
0
0
0
0
0
0
0
0
0
0
0
0
0
0
0
0
0.424561
0.205576
0
0.316983
0.192334
0
0.301641
1.55185
0.13943
0.273595
0
0.366896
0.495765
0.9937
0.245378
1.12602
0.157403
0.409375
0
0.28402
0.347216
0.775003
0.363558
0.826053
0.0928202
0.220965
0
0.265106
0.258256
0
0.337951
1.24493
0.0426785
1.26952
0
0.239951
0.600132
0
0.262589
0.868446
1.01093
0.274993
0.610274
0.866846
0.214461
0
0.767048
0.514371
0.0821915
0.478433
0
0.16462
0.952672
0
0.299257
0
1.64233
0.200886
0
1.12472
0.188917
0
1.27418
0.493758
0.79731
0.973694
0.770398
0
0.713056
0
0.968727
1.15771
0
0.765767
0.975378
0.702718
0.668328
0.338837
0
0.525859
0.363091
0.569464
0.78207
0.622914
0.325396
0
0.435635
0.495889
0.667766
0.53051
0.500925
1.05302
2.08798
0
0.455397
0
0
0.769193
0
0.79221
0.651229
0.703429
0.471429
0.578922
0.652881
0.687781
0.678182
0.65051
0.746673
0
0.647377
0.440375
0
0.552445
0.233615
0.408317
1.27872
1.25746
0
0.791468
0.513403
1.01259
0.469508
0
0.630818
0
2.11942
0.563856
0.638224
0.519056
0.544704
0.784814
0.418766
0
0.406172
0
0.338451
0.639703
1.21916
0.570168
0.745762
0.292697
0.534609
0.426719
0.557555
0.322157
0.377319
0.58048
0
0.452562
0.0774984
0.659761
0.579916
0.391242
0
0.360457
0.460188
0.589791
0.841004
0.524323
0.695169
1.05719
0.582232
0.48474
0.762335
0.623036
0.760657
0.61008
0.669085
0.259576
0
0.371708
0.714457
0.454819
0
1.24112
0
0.220849
1.87245
0.777785
1.54177
0.634601
0
0.515439
0.581124
0.47838
0.449822
0.750893
1.31439
0.921195
1.18807
0.883757
0.308748
0.125103
0.590274
1.01901
0.551956
1.63633
0.899464
0.994541
0.614827
0.480531
1.00857
1.53473
0.952161
1.18262
0
1.47812
1.18682
2.88193
0
0
0.263032
0.962869
0.811517
2.84431
0
0.513445
0
0
0.347159
0
1.72219
0
0.624483
0.392871
0.487274
0
0.549594
0
0.495259
1.27765
1.07964
1.03707
0.542724
0.194541
0.444604
0.491407
0.223692
1.56511
1.03036
0.417644
0
0.413769
0
0.677249
0
0.406362
0.724953
0.411981
0.625439
0.221634
0.66086
1.14514
0.991197
0
0.576979
0.604445
0.993822
2.35037
0.728063
0
0.529563
0
0
0
0.688797
0.453313
0.477907
0.382422
0
0.406701
0
1.1452
0
0.621259
2.33501
0.671928
0.552988
1.69761
0.827241
0.41554
1.03908
0.485592
0.633972
0.516837
1.14539
1.66652
0.44221
0.90288
1.77057
0
0
0.857179
0.560706
0
0.383215
0.959414
0.294698
0.845661
0.358083
0.5171
0.661291
0.830272
0
0.305527
0.830417
0.562836
0.62387
0.447048
0.896658
0.953824
0.537423
0.482882
0.351471
0.6948
0
0.837269
0
0.930129
0.481737
0.851156
0
0
0.382742
0.756154
0
0
0.967553
0.801433
0.627248
0.877756
0.733859
0.380283
0.839774
0
0.918524
0.727826
1.52593
0.892826
1.47464
0.780549
0
0.731529
0.722634
0.833442
0.75981
0.59061
0
0
0
0
0.39128
0
0.401413
0.212016
0
0.502418
0
0.320642
0.450405
0
0.621327
0.651281
0.265428
0.655801
0.854193
0.690644
0.581521
0
0.527409
0
1.10133
0.341717
0.54789
0.566813
0.70664
0
0
0
0.42298
0
1.15642
1.55589
0
0.645544
0.695583
0.807478
0.714437
0.553532
0.399051
1.38674
0.313983
0.65112
0
0.562874
0
0
0.533319
0
0.556106
0.573332
0.928585
0
0.506501
0.367325
0.690275
0
0
0
0.456163
0.315341
0
0
0
0.323851
0.365759
0.511436
0.538162
1.59562
0
0.818159
0.303547
0.47553
0
0.664099
2.41287
0.267286
0.602424
0
1.6231
0
0.0980785
0.751836
0.720496
0.868263
0.609751
0.707581
0.880986
0.356614
0.476071
0.456535
0.237598
0
0.576992
0.604247
0.781177
0
0.346831
1.09055
0.389545
0.950745
0.46586
0.941267
0.222764
0
1.03699
0.688537
1.70046
0.559247
0.957024
0.453316
0.694429
0.412646
0
0.51398
0.29299
0
0
0.211996
0
0.568448
0
0.46863
0.528144
0.54882
0
0.937421
0.196156
1.33274
0.963071
1.12748
0.590029
1.16466
0.401561
0
0.912247
0
0
1.08687
0
1.04709
0.441794
0.601333
0
2.24778
0.789091
1.18439
0.67538
0.767647
0.618794
0.523231
0.63391
0.382029
0.423053
0.507967
0.728032
0.444047
0.521209
0.729114
0.119895
0.440391
0.555872
0.751846
0.467572
0.445897
0.661024
0
1.61036
0.717186
0.608927
0.410388
0.236045
1.11632
0.661931
0.244597
0.78446
0
0.57548
1.0861
0
0
0.466617
0
1.64725
0.295902
0
0.42151
0.510758
0.100507
0.540583
0
0.393266
0.448779
0.634478
0.739796
0.811947
1.24393
1.83623
0.490435
0.689012
0
0
0.983205
0.84547
0.411592
0.700832
0
0
0.881664
0
0.799958
0.377085
0
0.507759
0.46205
0.822341
0.296081
0.796875
0.395095
1.12459
0.79249
0.794957
0.419026
0.417178
0.725826
0.50643
0.437148
0
0.621954
0
0.224493
0.897673
0
0.881687
0
0
0.587665
0
0.596593
0.994116
0.563608
0.58122
0.504523
0
0
0
0.739406
0.578347
0.545913
1.08182
0
0
0.940896
0.435229
0.606979
1.12325
0.505873
0
0.485681
0.786237
0.451914
0.650558
0.787209
3.29974
0
1.09602
0.605792
0
1.06983
0
0
0
0
0.553234
0
0.779352
0.734356
0.45499
1.66766
1.08462
0.960142
1.7921
0
0.18377
0
0.529922
0.342608
0
0.551164
1.12167
0
0.408859
1.07698
0
0.439467
0
1.68318
0.482838
0.885716
0.521476
1.15752
1.19637
0.520981
0.16081
0
0
0.390944
0
0
0.302101
0.545637
0
1.16509
1.05431
2.01236
0.847587
0
0
0
0.608663
0.659322
1.11022
0.47995
0.203039
0.144791
0.64627
0.152874
0.355203
1.08385
0.695574
1.25478
0.526344
0
0.743986
0.521888
0
0
0.37103
0
0.949165
0.746405
1.1641
0.650008
1.30264
0.55368
0
0.332571
0.727599
0.797699
0.626458
2.24016
0.25872
0
0
0.737756
0
0.72991
0.574241
1.52754
1.03445
0.512856
0.638032
0
0.708216
0.99903
2.07282
0.661071
0.854157
0.384324
0
0
0
1.12703
0.482066
0
1.12884
0.557583
1.53878
0.811589
0.590575
0.642487
0
1.06679
0
1.04643
0.730569
1.46728
0.840288
0.303932
0.576762
0.768793
1.20119
0.603894
0.820113
0.932507
0.728356
0
0.921926
0.778225
0.950544
0
0.77697
1.1484
0.403596
0.577491
0
0.656735
0.757674
0.975223
0
0.572306
0.728619
0.284433
0.350518
0.88442
0.593115
0.511212
0.730406
0
0.252422
0
1.04474
1.3469
0.914687
0.597441
0.852878
1.83172
0
0.949245
1.05471
0.259508
0.420658
0.339498
0.425105
0
0.754401
1.48015
0.514506
0.18529
0
0.397145
1.08251
0
0
1.32631
0
1.33002
0.376623
1.19086
0.611035
0.862126
0.493064
0.190388
0.548716
0
0.308565
0.952412
0.74622
0
0.551784
0.79407
0.603862
0.352989
0.720117
0
0.539148
0.780648
0.905143
0.547066
0.66427
0.440555
0.858815
0.551538
0
0.350192
0.316888
0
1.29511
0.63966
0
0
0
0.331961
0
0.30511
1.0874
0.716759
0.297764
0.549171
0
0.593392
0
0
0
0.541422
0.679949
0.522236
0
0
0.620732
0
0.606093
0.456784
1.28046
0
0.654179
1.00165
0.422001
0.667915
0.733628
0
0.338741
0
0
0.414161
0.651245
0.831964
0.783435
0.739864
0
0.77431
0.974742
0
1.09002
0.641086
0.61251
0.373323
0.476077
0.323101
0.726482
0.657212
1.04535
0.228785
0.845398
0.795691
1.20553
0.594056
0.543918
0.884854
0.67547
0.847135
0
0.19203
0.251846
0
0.124177
0
0
2.45398
0.726878
0
0.687804
0
0.516128
0
0.242253
0.862486
0.429946
0.621157
0.762763
1.01842
0
0.430904
2.10403
1.60373
0.839538
0.901553
0
0.507586
0
0.806738
0.972362
0.52168
2.24453
0
1.03621
0
0.189089
0.791238
0.400332
0.736379
0.402252
1.0177
0
0.62806
0.595963
0.777709
0.847248
0.6915
1.01017
0
0.487387
0
0.93284
0.63942
1.43018
0.460944
0.20404
0.31643
0.937538
0.755427
0
0.988206
0.708328
0.541484
0
0.594474
1.18553
1.08511
0
0
0
0
0
0
0
0
0
0
0
0
0
0
0
0
0
0
0
0
0
0
0
0
0
0
0
0
0
0
0
0
0
0
0
0
0
0
0
0
0
0
0
0
0
0
0
0
0
0
0
0
0
0
0
0
0
0
0
0
0
0
0
0
0.303633
0.510685
1.02859
0.391435
0.481523
0.59477
0.759966
1.66587
0.383403
0.542669
1.3725
0.616377
0.51753
2.45371
0.530564
1.07525
0.389946
0.572865
0
0.431683
0.473398
0
0.290804
1.27771
0.298169
0.96129
0
0.447314
0.48586
0.621501
0.547311
1.06638
0
0.20012
0.47336
0.620382
0.608063
0.183673
0.542784
0.739981
0.238812
1.5216
0
0.223893
0.936044
1.3093
0.34356
1.51905
1.08583
0.371339
0.445757
0.830035
0.212461
0
0.424184
0.479971
0.139296
1.4701
0
0.0909012
1.09112
0.803337
0.329242
0.42588
0.737563
0
0.340619
0.884614
1.05753
0.90207
1.11527
1.50237
0.665143
1.93877
0.490405
1.10418
0.76162
0.380612
0.538261
0.894785
0.635957
0.67438
0.667896
0.583664
0.837363
0.367414
1.02812
0
1.40628
0.759384
0.393431
0
1.38104
0
0.36374
0.578386
0.825487
0
0.611892
0
0.248767
0.922652
0.678076
0
0.738305
0.695389
0
0.594389
0
0.531051
0
0.515866
0.435948
0
0
0.747376
0
1.92445
0
0
0
0.66957
0
1.07411
0
0.386062
0.37649
0.306673
0.384474
0.888666
0.344768
0.641428
0.820978
0
0.325026
0.586367
1.43492
0.891012
0
0.356796
0.706569
0.899448
0.694566
0
0
0.492648
0.691192
1.23841
1.17226
0.436954
0
0.621003
0.30432
0.538296
0.923295
0.758473
0.74116
0
0.800486
0.467083
0
0.812667
0.773511
0
1.98214
0
0.441729
0.641118
0.515136
0.256492
0.555047
0
0.505763
1.22273
0.72055
0.720311
0.441422
0.522233
0
1.22151
1.00578
1.2196
0
0.404225
0
0.339224
0.281937
0.692711
0.126005
0
0.508828
0.69741
0.535062
0.310282
0.769718
1.14154
0.854877
1.12674
1.34401
0.362531
0.355552
0.1039
1.20971
0.46465
0.655632
0.705928
0.362436
1.37076
0.862573
0.854954
0.449493
1.09567
0.730372
0.299225
0
0.555433
0.670462
0.31765
0.763455
0
0.520145
0
0.938462
0.339375
0.979131
0.793574
0
0.557251
0.582625
1.12893
0.735483
0.725432
0.952322
0
0
0.464563
0.503834
0
0
0.719452
0
1.19749
0.762701
0.718312
0.769138
0
1.16113
0.540948
0.594879
0.352041
0.818729
0.768874
0.72497
0.499518
0.557252
0
1.44059
0
0.358734
0.967992
0
0
0.638061
0
0.800639
1.17469
0
0.361358
0.519662
0.408428
0.861845
0.495896
0
0.878166
1.38834
1.80667
0
0.437575
0.805029
1.22567
0.764016
0.424588
0.63986
0
0.949737
1.26391
1.30384
0.534729
0.454805
0.849164
0.764012
0.723021
0
1.36026
0
0.7789
0.566318
0.542632
0.548103
0
0
0.0820496
0.216434
1.7111
0.736765
0.350001
1.2439
0.508615
0
0.810944
0.567439
0
0
0.423015
0.458907
0
0.576953
0.964062
0
0
0.603497
0.531536
0.956007
1.08046
0
0.761203
0.849169
0.73683
0.978868
1.62454
0
0.65285
1.49433
0.384004
1.00596
0.403316
0
0.745609
0.801238
0
0
0.557731
0.380589
0.6247
0.400408
0.892395
0
0.465409
0.202704
0.395434
1.70266
0.711013
0
0.675679
0
0.754565
0.460131
0.257942
0.818333
0.229579
0.485694
0.475249
0.373026
0
0.718934
0.295987
0.734368
0.51853
0.680149
0.610235
0.587755
1.22796
0.722343
0.488742
0.309986
0.65825
0
0
0.41004
0.837379
0.506551
0.399906
0.856975
0.321953
0
0.167895
0.530206
0.701004
0.508553
0
0.924172
0.203505
1.02599
0
1.26303
1.07124
0.685524
0.560693
0.662647
0.18238
0.521505
0
0
0.574072
0.745203
0
0.589722
0.414005
0.500106
1.15525
0.851602
1.03755
0.506082
0.579172
0
0
0.611339
0
0
0
0.49035
0
0.613088
0
2.03981
0.364917
0
0.704324
0
0.447082
1.32319
0.44476
0.566473
1.49546
0
0.408159
0.375714
1.63586
1.16079
0.687424
0.381076
0
0.605534
1.4665
0.520997
0.618943
0.568911
0.286286
0.773572
1.33701
0.331708
0.629659
0.290063
0
0.78356
0.605695
0
1.17476
0.459073
0.541393
0.622897
0
0.463636
0.302848
0.440778
0.513708
0.798813
0.31716
0.640534
0.532124
0.458949
1.13733
0.141585
0.403102
0
0.492531
0.431373
0.547923
0.56909
0.78413
0.716834
0.447545
0
0.243669
0
0
0.373723
1.23301
0.72149
1.30016
0.739588
0.73694
0
0.399274
0.399123
0.232095
0.452077
0
0.685503
1.12085
0.25096
0.251548
1.1642
0
0
0
0
0.378632
0.707992
0
0.968757
1.71277
0.610005
0.650009
0.571641
0.304153
0
0.716157
1.3074
0.651063
0
1.12889
0.686269
1.09327
0.404654
0.90751
0.359246
0.638139
1.36047
0.616979
0.797537
0.686437
0
0.618877
0
0.890505
0.327509
0.353635
0.957486
0.597664
0.459433
0.325244
0
0
1.59564
0.241535
0.762613
0
0.267291
0
0
0.31844
0.797539
0.730546
1.23935
0.591736
0.884432
0
0.564141
0
0.525655
0
0.445562
1.12568
0
0.429485
0.369069
0.617345
0.413951
0.67397
1.1795
0
0.336545
0
0.371994
0.52279
0
0.560563
0.453054
0
0.944706
0.206258
0.674525
0
0.531714
0.509933
0.49186
0.725194
0.984212
0.553151
1.10774
0.635778
1.31778
2.95673
0.284898
0.396058
0
0
1.07701
0
0
0
0.617218
0.56421
0.672413
0.602556
0
0.329298
0
0.857735
0
0
0.376658
0
0
0.695958
1.24921
0.671237
0
0.909122
0.837922
0.853089
1.11691
0.905754
0
0
0.38533
0
1.12439
0.791088
0.781936
0
0
0.757402
0.761519
0.764881
0
0.207758
0.750314
0.418885
0.236506
1.61212
1.12404
0.168185
0.960054
0.831378
0.592894
0.701039
0.87105
0.383419
0
0.738211
0
0
0.135378
0.606299
0.370836
0.390358
0.519613
0.615344
0
0
0.330741
0.59852
1.11985
1.1512
0.642269
0.956492
0.35472
0.451554
0.687103
0.880121
1.08377
0
1.20831
0.510758
0
0
0.37186
0.67641
0.798513
0
1.18183
1.12023
0.463705
0
0.374686
0
0
0.572315
0.745712
0
0.566932
0.421347
1.15678
1.44015
0.584271
0.813438
0.796239
0
0
0.638218
1.20297
0.349379
0.71731
0.453245
0.591787
0.955186
0.332635
1.36178
1.66589
0
0.247737
0
0.891545
0.972629
1.61396
0.116954
0
0.3467
0.173825
0.704577
0.628725
1.18782
0
0.927034
0.73961
0.221261
0
0.742003
1.44869
0
0.439972
0.747898
0.58428
0.398254
0
1.09933
0
0.563181
0
1.65961
0.515043
0.868253
1.01413
0
0.895041
0
0.323145
0
0.214648
0.857728
0.563291
0.546457
0.90504
0
2.20222
0.733271
0.694738
0.438971
0.62296
0.819212
1.31698
0.601792
0
0
0.868962
1.01142
0.36291
0.360887
0.849307
0
0.553848
0
1.05557
1.64575
0.502258
0.915273
0.764749
0.735683
0
0.463415
0
0.482245
0
0.729412
0
0.480973
0.444565
0
0.815812
1.39571
1.40717
0.89071
0.593813
0.925796
1.05808
0.986573
0.719192
0
0.0568104
0
1.26299
2.43016
0.393779
0.26963
1.00538
0.697931
0.801732
0.662588
0.521287
0.749178
1.04093
0.381356
0.400734
0.231496
0.0777797
0.667077
1.24186
0.771309
0.647584
0
0
0.964617
0.309998
1.31293
0
0
0
0
0.662448
0.768733
0.148399
0.727699
0.291378
0.503763
0
0
0.78581
0.452002
0.569292
0.725994
0.743914
0.567366
0.642128
0.347045
0
0
0.506659
0
0
0.682295
0
0
0.74383
0.870763
1.26856
0.477664
0.457874
0
0.973296
0.443059
0
0.666789
0
0
0.48992
0.657842
0.837984
0
0.616902
0.893851
0.788762
1.15886
0.685481
0
0
0
0
1.10097
0.372093
0.187482
0.905808
0.574167
0.928698
0.674808
0.556127
0.833007
0.954857
0.684688
1.19821
1.11196
1.2323
1.31568
1.21214
0.882513
0.597491
0
0.747518
0
0
0
0
0
0.386058
0.224957
0.511665
0.956032
0.291465
0.498913
1.07361
0.414653
0.242967
0
0.919643
0
0
0
0.995827
0.129164
0
0.818058
0.697597
0.466268
0.660439
0
0
0
0
0.796511
0.625459
0.819857
0.631744
0.692981
0.452376
0.581794
1.01725
0.582296
0.996632
1.4943
1.19076
0
0.850982
1.15279
0.394457
0.981947
0.889544
0.743858
0.722994
0
1.02528
0.722052
0.863138
0
0.77322
0.877282
0.591958
0.735393
0.422669
0.486063
0
0
0
0
0
0
0
0
0
0
0
0
0
0
0
0
0
0
0
0
0
0
0
0
0
0
0
0
0
0
0
0
0
0
0
0
0
0
0
0
0
0
0
0
0
0
0
0
0
0
0
0
0
0
0
0
0
0
0
0
0
0
0
0
0
0
0
1.02211
0
0
0
1.86072
0
0
0
0
0
0
0.305631
1.11802
0.584981
1.33159
0
0
0
0
0
0.712628
0.836727
0.443993
0
0
0
0
0
0
0
0
0
1.29197
0
0
0
0
0
0
0
1.26372
0
0
0
0
0
0.461529
0
0
0
0
0.115643
0
0
0
0
0
0
0
0
0
0.189273
0.457876
0
0
0.504885
0
0.747459
1.61424
0.954767
0.584293
0.551099
0.995067
0.324744
0
1.51873
0.518001
0.794079
0
0.541547
0.570065
0
0
0.903621
0.731981
0.337594
0.584544
1.08609
0.288388
0.55894
1.32821
0.515682
0.879929
0.837367
0.530739
1.52516
1.03813
0.606934
0
0.74898
0
0.870395
0
0
0.659825
1.08487
1.07225
0
0
0.719001
0.748255
0.820607
0
0.459176
0.418921
0.437933
0.658339
0.989704
1.4095
1.17897
1.84617
0.223731
0.636656
0
0
0.366614
0
0.460374
0
0.704659
0
0.183313
0.697312
0.586094
0.685743
0.647251
0
1.00424
0.144612
0.426782
0.585002
0.58873
0.908773
0.207151
0.900474
0.444005
0.378594
0.589956
0
0.371214
0.789988
1.06433
0.60602
0
0.25441
0.66623
0
1.30044
0.408865
0.469335
0
0.809884
0.890643
0
0.915226
0.708848
0.465333
0.607684
0
0.820467
1.03656
0
0
0
0
0.548316
0.630118
0.864442
1.48204
0.633791
0.427038
0
0.523417
0.585908
0.812306
0.648398
0.441079
0.674451
0
0.783401
0.637267
0
0.505916
0.676798
1.06834
0.951379
0.509797
0.68795
0.835332
0.71196
0.852641
1.07996
0.584357
0.445991
0.998609
0.847595
0
0
0.296861
0.241848
0.458765
0
0.498678
0.729868
0.132333
0.808405
0.864991
0
0.566759
1.47403
0.828378
0
0.3176
0
0.224648
0
0.66891
0.781769
0.403362
0.713125
0.363311
0.642347
0
0.559279
0
0.518182
0.403028
0
0.564894
0.23234
0.426432
0.51328
0.92186
0.683234
1.34265
2.17577
0.753819
0.796144
0.39964
0
0.478264
0
1.22452
0.284224
0
0.622032
0
0
0.375063
0
0.544176
0
0
0
0
0.695926
0.172268
1.15211
0.131261
0.540517
0.524688
0.980572
0.167675
0.637049
0.303719
0.872273
0
0.72504
0.899102
0.674453
0.381536
1.02369
0.706689
0.590855
0.784742
0.803545
0.804109
0.754932
0.280519
0.489779
0.486078
0.353561
0.839942
0
0.229264
0.507204
0
0.398833
0.809619
0.808914
0.937717
0.368104
0
0.990101
0.341507
0.328576
0.300523
1.1288
0.797016
0.48794
0.72167
0.899112
0.572163
0.40578
0.403177
0.439393
1.54332
0
0
0.543293
0.0693242
0.394632
0.847616
0
0
0.914162
0.784424
0.852772
0.794841
0.44636
1.04394
0.582422
1.43596
0.843891
0.449952
0.231
1.33507
0.591623
1.37629
0.567169
0.849422
0.489626
0.537808
0.854803
0.688002
0.330411
0
1.12796
0.101414
0
0
0.747625
0.999974
0.580287
0.326068
1.4817
0
0
0
0.43786
0
0.474699
0.954388
0.886083
0.449963
0
0.822681
0.744879
0.906017
0
0.659986
0
0.68178
0
0.547539
0.870173
0
1.01597
0.699061
1.87701
0
0.222102
0.36372
1.6725
0.647232
0.375328
0.402595
1.59494
1.67025
0.852228
0.794824
0.492854
0.47263
0.940948
1.04688
0.504665
0.925175
0
0.440784
0.795322
0
0.344462
0.733749
0
0
0
0.280117
0.948577
0.386367
0.908921
0
0.352778
0
0.789958
0.478106
0.857687
0
0.736954
0
0.560015
0.796434
0.487618
0.789597
0.969972
0
0
0.406145
0.466798
0.373903
0
1.0423
0.658664
0
0.593919
0.419231
0.993051
0.596469
0
0
0.805556
1.09567
0.514754
0
0.343999
0.289775
1.06514
1.37037
0.714593
0.795128
0.846827
0.546585
0
0.133254
0
0.595122
0.416326
0.331804
0
0.387381
0.0610411
0.693445
0.573268
0.468393
0.386543
0
0.718652
0
0.60213
0
0.427202
0
0.502184
0.432197
0
0
0.132832
0.59304
0.456831
1.16595
0
0
0
1.15603
0.11625
0.814916
0
0.657145
0.765843
0.426698
1.44006
0.399687
0.633401
0.874535
0.13782
0.943002
0.84659
1.01512
0.705389
0
0.484207
0.587957
0.260205
0.288068
0.616358
0.42661
0.129474
0.367213
0.630692
0.83311
0.77096
0.736418
0
0.451471
0.420257
0.711724
0
0.685904
0.467141
0.4681
0
0
0.289347
0.151458
0
0.382569
0.536048
1.08088
1.49951
0.491298
0
0
0
0
0.339756
0.716154
0.439783
0
0.555694
0.97814
0.476676
0.384867
0
0
0.567226
0.751614
0.295842
0.581824
0.531697
0
0.581133
0
1.34012
0.674832
0.720851
0.0637774
0.551342
0.546109
0.860159
0
0
0.742714
0.580763
0.45958
0
0.521932
0
1.07506
0.533806
0.919965
0.41918
0.563461
0.537132
0.548011
0.344347
0
0.936154
0
0.366414
0.562886
0.53547
0.0648087
0.637414
0
0.404341
0.748002
0
0.697758
0.433083
0.99824
0.572327
0.687287
1.83126
0
0.698615
0.458838
0.606902
0.468347
0.322514
0
0.565754
0.382648
0.700886
0
0.55587
0
0.636825
0.667663
0
0.500418
0
0.589544
0
0
0.812315
1.07924
0.625249
0
0
0
0
1.12049
0.498086
0.8667
0.68734
0.38388
1.01445
1.48762
1.18911
0.671414
0.832295
0
0
0.536137
1.0234
0.90303
0.722838
0
0.830845
0.650009
0.708657
0.547883
0.698651
0.513894
0.557131
0.324594
0
0.383159
0
0.980672
0
0.438368
0
2.31315
0
0.383291
0.669676
0.914624
1.23862
0.490429
1.17747
0
0.636386
0.812484
0.619313
0.75638
1.12052
0
0.348221
0
0.650616
0.919294
0.948181
0.388808
0.704483
0.670614
0
0.927717
0.863648
0
0.622132
0
1.3029
0
0.566641
0
0.777053
0
1.07769
0.987684
1.01181
0.930546
1.38299
1.69199
0.732888
0
0.712993
0.990186
0.946042
1.44959
0.263069
0.71009
0.466071
0
0
0.658746
0.973618
0
0.404359
0.504173
0.485737
0.673102
0.988698
0.960973
0.706033
0.982177
0.149018
0.382277
0
1.63795
0.629236
0.333128
0.43448
0.387513
0
0.514577
0.660021
1.32172
0.991101
0.864147
0.499481
0.42336
0
0
0.708394
0.27238
0.446166
0.691204
0.556113
0.578673
0.48542
1.0251
1.25147
0
0.332872
0
1.2685
0.955389
0.338478
0
0.919486
0
0.845896
0.788278
0.591729
0
1.10253
0.764808
0.736804
0.682943
0
0
0
0.414876
0.831782
0.886403
0.657311
0
1.47896
0
0.365345
0
0.433024
0.74286
0.262806
0
0
0.768195
0.532148
0.13327
0
0.57973
0
0
1.20521
0
0.336692
0
0.944972
0.605556
0
0
0
0
0.71095
1.50459
0
1.07069
0.614153
0.80283
1.53589
0.960999
0.552927
0.587223
1.13846
0
1.02516
0.412023
0.181381
0.848562
0.947443
0.474091
0.0639996
0.710744
0.532623
0
0.818936
0.46223
0.662141
0.368859
0.363313
1.18335
1.17281
0.653753
0.860571
0.499484
1.12129
1.25707
0.803162
0
0
1.25427
0
1.21982
0.709743
0.966031
0.702748
0.52843
0
0
0
0.738419
0.304234
1.28798
0.464868
0
0.389279
0.606048
0.810152
0.315015
0
0.76447
0.406198
1.148
0.411485
0.738739
0
0.23916
0
1.05622
0
1.08572
0
0.454759
0.705369
0.923575
0
1.72178
0
0.33312
0.485029
0.728565
0.207006
0.498497
1.15055
0
0.555668
0
0.231872
0.408396
0
1.05675
0.226484
0.858962
0.487732
0.417542
0.184653
0.703955
0.759385
0.576238
0
0.37909
0
0.882927
0
0.389889
0.618706
0
0.621496
0.522889
0.513217
0.765762
0.773274
1.45468
0
0
0
0.265707
1.4717
0
0.497574
0.408049
0.576154
0.670176
1.3867
0
0.508389
0.83246
0
0.650677
0.429255
0.598997
0
0.933376
0.631894
0
0.793919
2.04371
1.23686
0.501171
0.559884
0.398506
0.305385
1.18922
0.950514
1.1137
0.282207
0.721481
0.736556
0.771436
0.656797
0.868081
0.711616
1.12942
1.05673
0.602805
0.461886
1.17136
0.993544
0.683863
0
0.598222
0.331534
0.37219
0
0
1.16756
1.38836
0
0
0
0
0
0
0
0
0
0
0
0
0
0
0
0
0
0
0
0
0
0
0
0
0
0
0
0
0
0
0
0
0
0
0
0
0
0
0
0
0
0
0
0
0
0
0
0
0
0
0
0
0
0
0
0
0
0
0
0
0
0
0
0
0.486912
0.3677
0
0.348945
0.503119
0
0.495847
1.56096
0.512025
0.474949
0.428699
0.481532
0.479963
0
0.536142
2.56867
0.691166
0.518979
1.29724
0.630213
0.730178
0
0.531313
0.843495
0.189617
0.512436
0.478759
0.624588
0.45099
0
0.720282
0.901405
0.182431
0.608475
0
0.700341
0.948961
0
0.343023
1.66319
1.13061
0.176148
1.11565
0.998399
0.308722
0
0.447472
0.709689
0.211274
0.823787
0
0.376087
1.61753
0
0.475323
0.723727
0.674275
0.439643
0.756701
0.681102
0.423836
0
1.46627
0.419011
0.942456
0.947482
0
0.379282
0.695094
0.538534
0
1.07429
0.644299
1.28322
0
0.710449
0
0.825399
0.673179
1.06452
0.500248
0.790641
0.422883
0.519587
0.711622
0.237982
0.529517
0.310792
0.534551
0.344663
0.863922
0.720794
0.779046
0
0.571074
0.806456
0.731843
1.50331
0.790905
0.639935
0
0
0.375745
0
0.821277
0.25322
0.330496
0.885446
0.229328
0.690677
0
0.342415
0.463523
0
0.432719
0.948293
0
0.501408
0
0.712075
0.309628
0.258038
0.75044
0.150079
0.374327
0
0.586396
0
1.02072
0
0.399664
0
0.498712
0.377862
0.848064
1.01464
0.700081
0
0.565696
0
0.721404
0.389795
0.568324
0
0
0.604624
0.648894
0.598588
0.811317
1.32368
0.298455
0.836036
0
0.990275
1.24725
0.674811
0.618625
0.570061
0
0
0.686212
0.51954
0.569186
0.48716
0
0
0.624056
0.72313
0.566007
0.518499
0.283201
1.33832
1.20109
0.424378
0.616489
0
0.511439
0
0.813127
0.401729
0.656607
0.417431
0
0.563951
0.506915
0.751667
0.591101
2.13162
0.397239
0
0.419216
0.593315
0
0
0
0.519246
0.0885834
0.671224
0.219314
0
0
0
0
0.544689
1.26584
1.82377
0.552653
1.42522
2.17131
0.484323
0.89634
0.735404
0.364546
0
0.639825
0
0.289433
0.908571
1.06949
0
2.34506
1.44276
0.434867
0.55931
1.53581
0.890311
0.56352
1.07924
0.63974
0.76187
0.480893
0
0.184125
0.541281
0
0.884756
0
0.76837
0.973561
0
1.71225
1.64178
0.428249
0.612464
0
1.15245
0.672593
0
1.63598
0.980844
0
1.00979
0.82777
0.807713
0.244756
0
0.773882
0.663778
0
0
0
0.498445
0
0.33155
0.130853
0.827155
0.703997
1.20867
0.507701
0.306533
1.12934
0.513605
0
0.942356
1.42542
0.392709
0.625034
0.193906
0.572944
1.02865
1.11849
0.396349
0.972087
1.28846
0
0
0
0.769815
1.0201
0.636233
0.657526
0.221374
0.595158
0.695815
0.425304
0.777837
0.250519
0.236495
0.852142
0.435834
0
0
0.450582
0
0
0.170495
0.617805
0
0.506411
0.792794
0.485953
1.60596
0.9437
0.659833
0.344853
0
0.726469
0.243121
0.398527
1.33433
1.37735
1.03155
1.83162
0.548257
0
0.864219
0
0.446821
0
1.12567
0.365852
1.72193
1.03552
0
0.76
1.95375
0.605159
0.469315
0
1.18029
0
0
0
1.09409
0
0.648195
0.565498
0.503547
0.390277
0.296515
1.07781
0.603723
0.551588
0.670298
0
0.608349
0
0.652003
1.75667
0.651047
0.60964
0
1.01951
1.04142
0.205421
1.2163
0.871812
0
0
0.352786
0.684179
0.520369
0.286834
0
0.779533
1.58999
0.662735
0
0.37372
0.965836
1.33862
0.557119
1.04368
0.811968
0.23872
0
0.67207
0
0
0
0.413597
0.5906
0
0.476037
0.484752
0.79694
0.634211
0
0
0.191207
0.526967
0
0
0.862524
0
0.687892
0
0.48742
0
0.422753
0
0.724795
0.384892
1.00238
0.757833
0
0.744422
0
0.53056
0.441578
0.73925
0.564632
0.50336
0.137355
0
1.50644
1.26234
0.368555
0.671459
0
0.602394
0.301145
0.61368
0.867797
0
0.0387035
1.45284
0.520598
0.767783
0
0.71788
0.491263
0
0.607323
0
0.466276
0.646653
0.913259
0
0.631015
0.86936
0
0
0
0.882124
1.7707
0.265365
0
0.738936
1.02198
0
0
0.338491
0
0.745746
0.648072
0
0.413182
0.657379
0.506675
1.22082
0.918289
0.582755
0.466113
0
0.224327
0.391023
0.820245
0.697033
0.806688
0.344342
0
0.439586
0.644125
0.273201
0.711686
0.238985
0.468189
0.869447
0.620694
0.807402
0.116614
0.775957
0.520726
1.51612
0
0.393982
0.400382
0.504484
1.56823
0.233593
0.656618
0.37681
0
0.522057
0
0
0.494578
0.478756
1.47381
1.47836
0.436678
0.4984
0.404515
0.40843
0
0
0.52694
0.418391
0.208158
0
0.616008
0.54377
0.532282
0
0
0.982954
0
0.510738
0.630991
0.60146
0.449792
0.575259
0.393018
1.54345
1.13685
0.740564
0.410205
0.317732
0.705041
0.717602
0.866402
0.844905
1.21628
0.512267
0.459427
0.956254
0.698878
0.316286
0.322389
0.238122
0.570274
0.810497
0.559953
0.979629
0.987288
0
0.310924
0.605596
0.782485
0.34303
0.399075
0.48759
0.521538
0.557677
0.86334
0.231498
0.944964
0
0
0.438048
0
0.421767
0.210926
0.659779
0.682677
0.677032
0.632792
0.668361
0.655714
0.542752
0.559003
0.676031
2.00344
0
1.09514
0.335269
2.69865
1.48191
0
1.06046
0.473199
1.15434
0.45504
0
0.145545
0
0.630013
0.932567
1.89306
1.09505
0.242407
0.446366
0.576556
0.570617
0
0.809981
0
0.564855
0.881978
0.584264
0.207247
0.309557
0.658273
0
0.565973
0.587196
0
0
0.912796
0.756688
0.64737
1.87457
1.44765
0.820786
0
0.720511
0
0
0
0.434747
0
0
0.556885
0
0.393871
0
0
0.65287
0.518685
1.70047
0.504902
0.716433
0.903606
0.536605
0.530677
0
0.250002
0.139769
0.354789
0
0
0
0.385277
0
0.557312
0.694401
0.693088
0.597256
1.70384
0
0.6138
0.874185
0.439886
0
0.535299
0.712452
1.2951
0.83343
0.667682
1.24523
1.46775
1.05865
1.39234
0
0.936376
0.449268
0.829996
0
0.72436
0.618691
1.03315
0.29743
0.467554
0.920532
0.223416
0.766621
0.843739
0.499288
0.466872
0.663015
0.886345
0.605284
0.827758
0.556505
0.826254
0.596858
1.13947
0.222591
0.959606
0
0.61919
1.72623
0.513248
1.25326
0.565204
0.38464
1.30785
0.544521
1.0332
0
0
0.553854
1.0051
0.640408
0.458645
1.27089
0
0
0.837325
1.18178
1.136
0
0
0.741448
0.272815
0.791913
0.329688
0
0.429093
0.913746
1.44772
0.580597
0.457213
0.808465
1.11529
1.01312
0.656678
0.416585
1.08533
1.18208
0.475058
1.07307
0.215709
0.400235
0.684541
1.25636
1.03031
0.718531
0.321102
0
0
0.539361
0
0.631501
0.322123
0.80841
0.341163
0.763699
0.440224
0.337608
0.718543
0.790124
0.576449
1.12354
0.997621
0
0
0.546295
0.574056
0.368793
0.335258
0.245401
0.4148
0.163817
0
0.781474
0.735033
0.685787
0.215652
0.661177
0
0.602665
0.628734
0.626738
0.87495
1.30085
1.15522
0
0.412047
0
1.11061
0.806089
0.965992
2.19782
1.27017
0.490428
0
0.723871
0.800982
0
0
0.760682
0
0.446676
0.773356
0.460524
0
0.696409
0
0.678398
0
0.338655
0
0.527352
0.7905
0
0.316365
0
0.498829
0
0
0.305645
1.11326
0.799492
0
0.709035
0
0.838399
1.09
0.894628
0.727361
0.642809
1.47978
0.855242
0.696536
0
0.658749
0
1.35837
0.702078
0.552103
0.829036
0
0.715176
0
0.660132
0
0.135166
0
0.942407
0
0.577709
0.952152
0.35372
0.317016
0.799395
0.568445
0.259271
0
0
0.530009
0.299214
0.455348
0
0
0.329174
0.592718
0
0.901729
0.875587
0
0
0.303999
0.407171
0
0.443098
0
0
0.383006
0.410509
0.580982
0.392417
0.891976
0.678723
0.268544
0.470915
1.2046
0.516566
0.283892
0.982846
0.371545
1.37539
0
1.59633
0.552567
0.817257
1.02178
0.289909
0.830114
0
0.585286
0
0.449753
0.870815
0
0.615514
0.849527
0.924591
0.999665
1.07341
0.828562
0.340079
1.18746
0.732175
1.88256
0.775766
0
0.491747
0.631832
0.55599
0
0.423379
0.173222
0.779373
1.50538
0
0.634499
0.70189
0
0.590113
1.34177
0.540213
1.37665
1.34616
0.680313
0.788337
1.22224
0.456844
1.10129
0.492017
0
0.417608
0.55223
0.672791
0.418956
0.218426
0.651384
0
1.42042
0
0
1.05843
0.94864
1.38218
0.496288
0.460924
0.416741
0.858377
0
0
0
0
0
0
0
0
0
0
0
0
0
0
0
0
0
0
0
0
0
0
0
0
0
0
0
0
0
0
0
0
0
0
0
0
0
0
0
0
0
0
0
0
0
0
0
0
0
0
0
0
0
0
0
0
0
0
0
0
0
0
0
0
0
0.389993
0.34231
0
0.731074
0.593306
0
0.824344
0.70428
0.273617
0.519511
1.05489
0.534663
0.497356
2.02922
0.431426
0.956133
0.435854
0.441455
0
0.349045
0.479279
1.47053
0.592237
1.21965
0.378455
0.430239
0.110152
0.495428
0.48687
0
0.618086
1.72049
0.44268
0.138588
0
1.5395
0.286579
0.35337
1.13701
1.38205
0.484062
1.24416
0
0.610256
1.60858
0
0.140585
0
0.209236
0.39355
0
0.897777
0.30694
0
1.32968
0.809053
0.338061
1.08517
0
0.155751
2.09324
0
0.513428
0.829896
0
0.790985
0.413862
0.692185
0
0.329604
0.676013
0.387491
0
0.755613
1.10178
0
0.633048
1.10173
0
0.733046
0.748362
0.546686
0.627249
0.827316
0.637497
0.557175
1.28993
0
0.804256
0.368665
0.442392
0.717471
0.578012
0.425394
0.393696
1.14452
1.49324
0
0.309323
0.626185
0.493038
0.428379
0
0
1.0206
0
0
0.769178
0.79282
0.339505
1.10943
0.874225
0
0
0.651606
0.646924
0.0911196
0.699342
0.683305
1.20058
0.313285
0.666504
0
0
0.459603
0
0
0
0.532024
0.555136
0
0.24115
0.270529
0
0.624733
0
1.02303
0.559664
0.886242
1.53134
0.97645