<?xml version="1.0"?>
<VTKFile type="RectilinearGrid">
<RectilinearGrid WholeExtent="0 32 0 32 0 32" Origin="0 0 0" Spacing="1 1 1">
<Piece Extent="0 32 0 32 0 32">
<PointData>
</PointData>
<Coordinates>
<DataArray type="Float32" format="ascii">
0 0.524874 1.04975 1.57462 2.0995 2.62437 3.14924 3.67412 4.19899 4.72386 5.24874 5.77361 6.29849 6.82336 7.34823 7.87311 8.39798 8.92285 9.44773 9.9726 10.4975 11.0224 11.5472 12.0721 12.597 13.1218 13.6467 14.1716 14.6965 15.2213 15.7462 16.2711 16.796 
</DataArray>
<DataArray type="Float32" format="ascii">
-5.03879 -3.62163 -2.20447 -0.787311 0.629849 2.04701 3.46417 4.88133 6.29849 7.71565 9.1328 10.55 11.9671 13.3843 14.8014 16.2186 17.6358 19.0529 20.4701 21.8872 23.3044 24.7216 26.1387 27.5559 28.973 30.3902 31.8074 33.2245 34.6417 36.0588 37.476 38.8931 40.3103 
</DataArray>
<DataArray type="Float32" format="ascii">
0 0.524874 1.04975 1.57462 2.0995 2.62437 3.14924 3.67412 4.19899 4.72386 5.24874 5.77361 6.29849 6.82336 7.34823 7.87311 8.39798 8.92285 9.44773 9.9726 10.4975 11.0224 11.5472 12.0721 12.597 13.1218 13.6467 14.1716 14.6965 15.2213 15.7462 16.2711 16.796 
</DataArray>
</Coordinates>
<CellData>
<DataArray type="Float32" Name="Scalar" format="ascii">
0
0
0
0
0
0
0
0
0
0
0
0
0
0
0
0
0
0
0
0
0
0
0
0
0
0
0
0
0
0
0
0
0
0
0
0
0
0
0
0
0
0
0
0
0
0
0
0
0
0
0
0
0
0
0
0
0
0
0
0
0
0
0
0
0.194465
0.333006
0
0.278298
0.193651
0
0.433417
0.99494
0.117063
0.471253
0
0.345823
0.402799
0
0.514909
1.94376
0.340773
0.315074
0.118266
0.433269
0.387335
0
0.64384
0.997034
0.153432
0.49569
1.00926
0.423796
0.238427
0.654362
0.41017
1.20512
0.175645
0
0
0.196035
0.395968
0
0.115043
0
1.22966
0.26346
0
0.675138
0.178537
0
2.0249
0.310084
0.0594953
1.91854
0
0.241882
1.03255
0
0.373007
0
0.730207
0.176078
0
0.638786
0.117782
0
1.26718
0.866466
0.321978
0.393464
0
0.439743
0.51827
0.183184
0
0.317994
0.540137
0.515819
0.863395
0.453842
0
1.03391
0.447688
0.64077
0
0.342337
0
0.590508
0.901414
0.892659
0.455174
0.166335
0.75425
0
0
0.445423
0
0.439837
1.24341
0.663757
0
0.561868
0.366818
0
0
0
0.117305
0
0
0
0
0
0.722964
1.41691
0.719249
0.462582
0
1.00507
0.517956
0.486436
0.444455
0.927979
0
0.165581
0.218271
0.359963
0.957977
0
0
0
0
0.619523
0
0.75482
0.75879
0.33298
0.873611
0.712764
0.50763
1.12723
0.756902
0.552407
0.489337
0.397109
0
0.656788
0.557425
0
0
0.267776
0
0.407272
0
0
0.66707
0
1.26566
0.414514
0.259006
0.361009
0
0.866251
0.524511
0.689609
0.557385
0.550939
0.814105
0.342094
0
0.672184
0.332448
0.549911
0.271043
0.50496
0.410186
0
0.596665
0
0.68406
0.30461
0.4003
0.526295
0.44791
0
0
0.312262
0.561651
0.3981
0.430595
0.545517
0.243315
0.669462
0
0.503997
0.448457
0
0.71346
0
0
0
0
0.405316
0.223583
0
0.821821
0.589906
0.609006
0
0.571318
0.650252
0
0
0
0.595683
0.518325
2.00261
0
0.886143
0
0.447406
1.67514
0.31995
0.581476
0.341202
0.618282
0.55432
0.679951
0.604482
0.257682
0.550965
0.473969
0.38973
0
0
0.443628
0
0.384821
0.244579
0.590964
1.06434
1.2991
0.414401
0
0.673263
0.127801
1.07752
1.25379
0
0.454154
0.37027
1.8855
0.62423
0.574449
0.531349
0.421562
0.585926
0.865191
1.06764
0.264463
0
0
0
0.708314
0.292655
1.45768
0.62549
0.693731
0.535507
1.11372
0.501168
0
0.435482
0
0.876705
0.578067
0
0.37651
0.351419
0.300657
0
0
0.680954
0.773181
0.621689
0
0.402491
0.751669
0.546779
0.710757
0.580586
0.702148
0.643036
0
1.02979
0
0.964351
0
0.816178
0.487641
0.791021
0.739894
0.616418
0.584244
0.652887
0.0902518
0
0.122424
0.879356
0
0.413369
0.558928
0
0.515047
0.376386
0.495462
0.851842
0
0.425987
0.474438
0
0.484647
0.433479
0.265091
0.663364
0.383763
0
1.12639
0.380123
0.170073
0.497537
0
0
0
0.751502
0
0.412468
0.727382
0.404756
0
1.55743
0.621328
0.636883
0
0
0
0.703795
0
0
0.509281
0.637472
0.483215
0
0.309578
0.844193
0.656617
0
0.351696
0.364535
0.69938
1.02701
0.39178
0.582038
1.13621
0.429026
0.176534
0.0245002
0.443907
0.398331
0.688306
0.896001
0
0.568274
0.928045
0.75137
0.632714
0.472411
1.29762
0.742457
0
0.866591
0.770238
0.505263
0
0
0.311029
0.29749
0.377038
0.291727
0.865143
0
0.974497
0
1.45922
0
0
1.14367
0.57128
0
0.434957
1.08271
0.70312
1.87972
0.627943
1.02168
0
0.547727
0.433704
0.584359
0.660968
0.580744
0.954725
0.9178
1.16136
0.889209
0
0.546023
0
0.482695
0.123105
1.41316
0.466086
0.780318
0.185154
0.480883
0
0.484708
0
0.416693
0.463618
0.855429
0.90929
0.339371
0.799205
0.421054
0.244369
0
0.67713
0.292717
1.72913
0
0.686785
1.1429
0.282179
0.639468
0.719129
0.446474
0.252816
0.510998
0
0
0.44425
1.26054
0
0.450355
0.734559
0.280969
0.614517
0
0.512241
0
0.537388
0
0.544784
0.815387
0.21853
0.669044
0.617392
1.10447
1.30599
0.369568
0
0
0.390029
0.188535
0.488413
0
0.601572
0
0.630168
0.511917
0.503599
0
0
0.779047
0
0.672553
0
0
0
0
0.71785
0
0.146705
1.44963
0.227963
0.471355
0.374347
0
0
0.164343
0.369177
0.715502
0.664831
0.818625
0
0.672121
0.781963
1.72279
0
0.568941
0.698142
0
0.746378
1.48326
0.671766
0.677918
0.436282
0.636286
0.293946
0.683989
1.26002
0.761367
1.16448
1.50832
1.64064
0.637659
0.408265
0.972122
0
0
0.342855
0.999093
0.614131
0.126789
0.766271
0.927223
0.280584
0
0.609737
0.543586
0.791577
0.728091
0.830059
0.695626
1.10747
0.5374
0
0.429879
0.86069
0.338713
0.549998
0.900025
1.64496
0
0.431954
0.631354
0.672272
0.365035
0.53577
0
0.474591
0
1.008
1.24535
1.73892
1.10913
0.515765
0.186396
0
0.844419
0.783908
0.666758
0
0.670382
0.363026
1.49967
1.63013
0
1.1621
0.599675
0.74298
0
0.564611
1.04526
0.699852
0
0.712098
0.868836
0.413325
0
0.627658
0.586874
0
0
0
0.279017
1.17819
0.651813
0.250195
0
0.404059
0
1.43176
0.890997
0.949685
0.385922
0.686473
0
0.608211
0.58684
0
0.731017
1.0686
0.49875
0.462106
0
0
0.0969163
0.781666
0.557465
0.698466
0.898344
0
1.18174
0.530173
0.87026
0.589486
0.583276
0
0
0.465632
0
0.539106
0
0
0.471513
0
0
1.2575
0.865232
0.46458
0.594546
0
0
0.513108
0
0.293164
0.502021
0
0.908929
0.556669
0.756232
0
1.73504
0
1.02756
0.79065
0.474157
0.530477
0.515665
0.635011
0
0.701687
0.320627
0.367931
0.438441
1.04272
0.607798
1.2263
0.50647
0.551086
0.497288
0.605095
0
0
0.530649
0
0
1.06939
0.766478
0.488073
0
0.289879
1.278
0.450258
0.781105
0.565899
1.50684
0.544337
2.59244
0.725929
0
0.470444
1.09556
0.672273
0
0.522203
2.02217
0.540202
1.32767
0.706016
0.804203
0
0.362426
0.822684
0.630345
0
0
0.957687
0
0.696648
1.00226
0.427024
1.04193
0.97568
0.688298
0
0.864967
0.870814
0
0.860266
0
0.709933
0
0
0.557135
0
0.500677
0
0
1.23994
0.561197
0.747267
1.14803
0
1.39365
0.944538
0.516216
0.682598
0.822015
0
0.890434
0.342
0.731313
0.771781
0.632884
0
0.807681
0
0
0.618868
0
0
1.09245
0.485731
0.680193
0.539292
0.647605
0.69593
0.786015
1.56958
1.28821
0.791499
0
0.346147
0
0.53623
0.65651
1.24744
2.75197
0.897606
0.757493
0.7559
0.841378
1.40639
0.860604
4.71859
3.84659
0
0.691009
0.623669
0
0.985929
0.912078
0.348468
0.516138
1.1157
0.573755
0.489699
0.913513
0.253594
0
0.323274
0
0.454297
0.275669
0.504309
0
1.48467
1.82749
0
0
0
1.43397
1.10614
0.888995
0.547784
0.88516
0.776293
0
0.500688
0.379132
1.77367
0.603162
0.648577
0
0
0.219892
0.651252
0
0.740512
1.2485
0.539269
0.557213
0.587325
1.07996
0.591756
1.35523
0.732467
1.14186
1.25848
1.06689
0.630988
1.22578
0.363555
0
1.11272
0
0.225034
0.596766
0
0
0.706945
0.308208
0
0
0.645054
0
0.504512
0
0
0.414604
1.11943
0.714863
0.605372
0.944611
1.15282
0.864305
0.926146
0.399513
0.528359
0.418685
0.375693
0.755528
0.621635
0.496631
0.852728
0.922309
0.562664
0.253881
0.961744
0.902104
0.774025
0.341133
0.265296
0.472505
1.0018
1.12489
0
1.16245
0
0.463781
0
0.923012
0.657878
0.923464
0.818537
1.01805
1.72575
0.4921
0
0.827645
0
0.737361
0.672296
0.498455
0
0.797509
0
0
0.39345
0
0.4451
0
0.58294
0
0.747559
0.288998
0
0.692971
1.24134
0.613477
0.103551
0
0.588186
0
2.85628
1.11385
1.24802
0
0
0.387064
0
2.28073
0.471877
0.906362
0
1.06297
0.712516
1.31377
1.32399
0.939408
0
0.177983
1.10256
0.996011
0
0.5641
0
0.150286
0.539216
1.91636
0.487563
0
0
0
0.5328
0.718838
1.09177
1.07848
0.372698
0.690329
0.85956
0.53281
0
1.13671
0
1.34789
0.210108
0.269908
0.607646
0.508283
1.635
0.766517
0
0
0
0
0
0
0
0
0
0
0
0
0
0
0
0
0
0
0
0
0
0
0
0
0
0
0
0
0
0
0
0
0
0
0
0
0
0
0
0
0
0
0
0
0
0
0
0
0
0
0
0
0
0
0
0
0
0
0
0
0
0
0
0
0.30417
0.525392
1.21943
0.576501
0.529603
1.25731
0.640185
0.643734
0.278143
0.26156
0
0.480685
0.516454
0.129836
0.751262
0.934825
0.315346
0.393431
0.287249
0.447597
0.76217
1.5672
0.725082
1.20588
0.593685
0.412758
0
0.456885
0.397595
0
0.363518
0.841717
1.46486
0.662102
0
1.26312
0.335237
0
1.34043
0.286063
0.111846
0.659096
0
0.298422
0.786366
0
0.322606
0.989556
1.22292
0.18329
1.14204
1.21309
0.292176
0
1.17371
0.536009
0.121287
2.12313
0
0.247022
0.548397
0
0.242042
1.75695
1.20877
0.288031
0.232071
0.751419
0
0
0.622477
0
0.61537
0.698745
0.891231
0.732998
0.361752
0.0570693
1.35328
1.01937
1.15178
0.757757
0.864762
1.0822
0
0
0.665875
1.16284
0.385046
0.979452
2.03355
0.642687
0.749341
0.542243
0.257738
0.772222
0.783666
0
0
1.12261
0.460459
0.48989
0.380018
0
0.583353
0.628489
0.756563
0
0
1.39462
0.657025
0.389818
0.143234
0.416564
1.04866
0.768466
1.16422
0.720863
0.737491
0
0.323811
0.241916
0.357384
0.652527
0
0.771871
0.392431
0.811826
0
0.537513
0
0.906559
0.65876
0.432762
0.701593
0.549538
0.563697
0
0
0.587028
0.473116
0.291813
0.745373
1.45061
0.87601
0.218457
0.602827
0.23846
0.660543
0.644819
0
0.549313
1.1004
0.420144
0
0.306731
0
0.796761
0.218799
0
0.596965
0.830258
0
0.701441
0.923039
0.583439
0.740842
0.570579
0.353431
0.793532
0.678252
0
0.264823
0
0.550505
0.184312
0.934645
0.19717
0.581783
0.166158
0.666965
0.564626
0
0.901796
0.133116
0.514392
0.538884
1.41278
1.31356
0.498195
0.378867
0.401003
1.8988
0.409399
0.395933
0.55353
1.28394
0.262881
0.427796
0.621529
0
1.3667
0.631963
0.636101
0
0
0.505012
0
0.459033
0
0.473208
0.585767
0.915332
0.698404
0.210944
0
0.604061
0
0.664812
0.495776
0.42444
0.633928
0.327521
2.68075
1.47097
0
0
0.627429
0.605422
0.469773
0.584449
0.503823
0.726423
0
0.737475
0.531486
0.54343
0
0.500745
1.51878
1.38169
0.451703
0.783914
0.369909
0
0.64194
0
0.3876
0.911553
1.06119
0
0
0.456977
0.707314
0.360198
0.7011
0.326526
0.567281
0
0
0.613926
0
1.03217
1.31343
0
0.688497
0.497779
1.45367
0.531982
0.315443
0
0
1.29899
0.289714
1.18044
0.805463
0.962651
0
0.689637
0.579464
0.354585
0.905338
0
0.979828
0.834538
0.189804
0.699985
0.554345
0.299351
1.19852
0
0.563494
0.533564
0.784794
0.51233
0.706841
0.483008
0.641503
0.662945
0.258408
0.274259
0.73691
0.425649
0
0
0.464979
0.352121
0.791867
0.605555
0.871923
0
0.414736
0.462088
0.8263
0.728355
0.11549
0.463793
0
0.467111
0.272415
1.13484
0.397579
0.265622
0.556424
0
0.681368
0.700956
0.479099
0.500153
1.03225
0.329746
0.960759
0
0.400024
0
0.90586
0.563492
0.593004
0.29211
0.778729
0.899068
0.490633
0.507086
0.452372
0
0
0.564744
0.393512
0.56967
0.531118
0
0.210984
0
0.844576
0.386382
0.268561
0.967913
0.510528
0.782818
1.49687
0.512022
0.527938
0.423065
0.846491
0
0.657998
0.58935
0.679799
0
0.871018
1.395
1.26531
1.41394
0.580931
0.354744
0.958305
0.497753
0
0.546117
0.396333
0.616559
0
0.738862
0.516471
0.548548
0.826154
0.941482
0.716374
1.32109
0
0.369053
0
0.324112
0
0
0.577984
0.66509
0.768045
0.852897
0.849869
1.00844
0.333868
0.905876
0
0.606372
1.55084
0
0.867902
0.488617
0
0.197809
0
0.286019
0
0.835828
1.26541
0
1.32336
0.427123
0.745405
0.552805
1.36992
0
0.356725
0.717125
1.50624
0.669399
0.399826
1.22919
0.904701
0.827759
0.292072
0.896571
0
1.06369
0.960961
0
0
1.19998
0.98207
0.455182
0
0.574613
0.561545
0.48254
0.679625
0.935734
0
0.71367
1.11871
0
0.760642
0.534703
0.710476
0
0
0
0.701101
0.85047
0.865494
0.972538
0.399605
0.697282
0.404781
1.03959
0
0.377912
0.667177
0.635999
1.16678
0
0.885947
0.262572
0.313184
1.08307
0.945365
0.427184
0.611104
0.471395
2.46903
1.41919
1.95761
0.684985
0.760733
0.490399
0.252467
0.516401
0.769678
1.61515
1.19423
0.308314
0.848105
0.465199
0.171117
0.349366
0.430963
2.51558
0.822607
0.150854
0
0.377277
1.16938
0
0
0.426014
0.437623
0
0.971985
0.574758
0
0.695379
0.49137
0.512365
0.822301
0
0.6825
0.653711
0
0.404355
1.33464
0.770132
0.747591
0.953225
0.711607
0.389553
0.775749
0.432342
0
0.791532
0.379335
0.495118
0
0.666339
0
0.650404
0.349246
0.623605
1.18487
0.749363
0
0.508725
0.544559
0.442993
0.270274
0.284605
0.550138
0.454011
0.778069
0.618489
0.582635
0
0.348823
0
0.391015
0
0.733339
0
0.722958
0.340045
0.994881
1.76165
2.02882
0
0
0.377966
0.589182
0.608539
0.227591
0.608837
0.594122
0.663562
0.685485
0
0.763672
0
0
0
0.174244
0.533215
0
0
0.620822
0
0.267705
0.115109
0
0.644898
0.531763
0
0.529348
0
0.894897
1.23073
1.14897
1.04123
0
0
0.370348
0.418117
0
0.461284
0
0.261457
0.549787
0.570671
0.395973
0.50159
0.3506
0.644729
0.842726
0.483633
1.22902
0.607786
1.03995
0.577993
2.06888
0.289803
0.307972
0.913197
0
0.687591
0
1.53092
1.04039
1.01625
0.542153
0.750073
0
0
0.634813
0.449758
0
0.441965
0
0.948236
0
0.58274
0.594545
0.555442
0.249217
0
0.625389
0.284974
1.01809
0.890141
0.737441
1.03726
0.604944
0
0.668251
1.23124
0.852722
0
0.944385
0
1.20973
1.18272
0.66025
0.755421
0.42556
0.439372
0
1.18903
0.526641
0.560292
0.59532
0.902318
0
0
1.0109
0.447801
0
0.958555
0.946931
0.854807
0.875646
0.696988
0
0.0878265
0.712054
0.703463
1.34587
0.925509
0.886519
0.96867
0.673603
1.86861
0
0.910047
0.371228
0.937374
0
1.48044
0
1.37706
0.413242
0.27552
0
0.413978
0
0.347985
0
0
1.37194
0.91938
0
0.468458
0.145394
0
0.623712
0.540898
0.552915
0.966874
0.743796
1.10827
0.21393
0.461258
1.01678
0
0.448689
0.447933
0
0
0.361812
0
0.439502
0.616186
0.495076
0.326027
1.92847
0.518227
0.719323
0.277057
0.81274
0.353302
0
0.784738
1.95031
0.541544
0.723976
0.438859
0
0
0.662466
0
0.717585
0.724421
0.451931
0.817053
0.2889
0.382498
0.750416
0
0.998077
0.598787
0
0.719728
0.856348
0.917285
0
1.1864
0.846347
0.685113
0
0.712501
2.75222
0.501083
0
0.448022
0
0
0.721962
0
0.590412
0
0.515527
1.22824
1.0295
0.728193
0.543519
0.650026
0
1.03722
1.12802
0
0
0.622453
0
0.571916
0
0.395738
0
2.06758
1.08838
0
1.00762
0
0.624851
0
0.91941
0.280495
0.224417
1.15262
0.593764
1.03146
1.02405
1.81236
0.518341
0
0.552811
0.988753
0
0.378845
0.201184
0.592659
0.7477
0.661916
0.638916
1.52087
0
1.8248
0
0.884887
0
0.689896
1.22836
0.368506
0
0.381762
0.624069
0.670574
0.872793
0
0.628849
0
0
0.367983
0.897951
0.864581
0.982442
0.59142
0.740208
0.723044
0
0.101754
0
0.442436
1.11756
0
0
0.840534
1.41233
0.839418
0.647711
1.07553
0.90115
0.590887
1.01529
0.88706
0
0
0.679842
0.813433
0.968978
0
0
1.07703
1.09312
0
0
0.610946
0.488395
0
0.548297
1.01882
0.907126
1.27827
0.892878
0
0.829156
0.570338
0.947882
0.879883
0.520607
0.503855
0.548951
3.16652
1.41311
0.692024
0.691792
0.934423
0.0868108
0.798975
0.556034
0.481423
0.498517
3.15714
0.866807
0.291909
0.589711
0.354033
1.02306
0.870723
0.645162
0.856729
0.728993
0.808176
0.587447
0.20548
1.11508
0.8273
0.760232
1.04893
0.9676
0
0.323731
0
0.275685
0
1.01585
0
0
0.744636
0.531512
0.798868
0
0
0.474094
2.76771
1.80075
3.32277
1.58062
0.614223
0
1.11953
1.51276
0.739381
0.526672
0.444421
0.754521
0
0.593184
0.939269
1.00331
0
1.41952
0
1.06026
0
0.692765
0.965307
0.393202
0.521745
0.595896
0
0.765055
0.869136
0.912877
0.709421
0.580715
0
0
0
0
0
0
0
0
0
0
0
0
0
0
0
0
0
0
0
0
0
0
0
0
0
0
0
0
0
0
0
0
0
0
0
0
0
0
0
0
0
0
0
0
0
0
0
0
0
0
0
0
0
0
0
0
0
0
0
0
0
0
0
0
0.489188
0
0
0.930822
1.74921
0
0
0
0.757054
0.428742
0
1.98846
0.703301
0
0.400431
0
0
0
0
0
0.709596
0
0
0
0.478934
0.861366
0
1.03004
0
0
0
0
0
0
0
0
0
0
0
0
0
0
0
0
0
0
0
0
0
0
0
0.222759
0
0
0
0
0
0
0
0
0
0
0
0
0.988286
0.581149
0
0
0.556316
0.678238
0.205671
0.65673
0.577581
1.83463
1.46367
0.620146
0
0
0.45186
0.566018
0.416427
0.58428
1.03091
0.517364
0.206469
0.737689
0.516883
0.914732
1.87872
0
0
1.04509
0
0
0.278522
0.475072
0
0.598171
0
0
0
0.721992
0.320616
0
0.617841
1.19589
0
0
0.589126
0.999127
0.902979
0.909594
0
0.46569
0.95172
0.598993
0
0
0.572982
0
0.29708
0.345606
0.784269
0.461973
0.729691
0
0
0
0
0
0.468305
1.3936
0
0.579839
1.67094
0
1.14153
0
0.575147
0.509316
0
0.331811
0
1.8366
1.08757
0.560704
0.98561
0
0
0
0.418648
0.611366
0
0.598928
0.376177
0.24843
0
0.418301
0.127041
0.415527
0.452543
0.566088
0.341587
0.425129
0
0.833791
0.877798
0.319464
0
0.612597
0.708061
0.552301
0.391919
0
0.524421
0.197495
0
0.413484
0.254944
0.840832
0
0.765767
0.198922
0.11769
0.276941
0
0.681048
0.407973
0.871403
0.908245
0.420125
0.614036
0.754182
0.402466
0
0.404656
1.06565
0.678403
0.284097
0
0.955629
0.656113
0
0
0.356239
0.431084
0.412548
0.345807
0.589973
0.328333
0.65474
0.114093
1.27606
0.666704
0.424947
0.395955
0.36019
0.565234
0.257215
0.109577
0.419047
0
0.581588
0.449705
0
0.562671
0.947401
0.360453
0
1.71739
0.356133
0
1.07036
0
0.411298
0.430193
1.08945
0
0.607849
0.547954
1.24697
0.383506
0
0.510437
0
0.301331
0.377438
0
0.462397
0
0.619043
0
0
0.866698
0.688035
0
0
0
0.376749
0.361882
0.380488
0.499222
0
0.615614
1.09982
0
0
0.828345
0.786159
0.491798
0.68928
0.343
0.745651
0.640692
0.908232
0.73086
1.01565
0.399955
0.255273
0.727005
0
0
0.376419
0
0.70557
0.404331
0.80578
0
0
0.132269
0.438099
0.685869
0.670823
0.592215
0.541847
0.56409
0.689188
0.993243
0.99859
0.441693
0.509534
0.178479
0
0.461873
0.841299
0.700567
0.656487
0.931736
0
1.26544
0.509449
0.691781
0.592741
0.766268
0.614838
0.707793
0.684049
0.562582
0
0.44148
1.04369
0.574212
0
0.769292
0
0.796254
0.909272
0.580494
1.13437
0.578982
0.43502
0.33896
0
0.589639
0.291673
0.717447
0.92494
0.710672
0.7309
0.596217
0.97176
0.663093
0
0.644165
0.659607
0.623952
0.568777
0
0
0.779998
0.304425
0.389694
1.38426
0.451495
0.408626
0.286111
0.507602
1.09105
0.817256
0.511885
0
0
0.754927
0.501811
0.451409
0
0.44539
0
0.697232
0
0.52601
0.89608
0.195178
0.476516
0.6618
0.730873
0.82118
1.42095
0
0
0
0.702039
1.31604
0.65974
0.520607
0.789541
0.605494
0.435088
0.730128
0.393634
0.95802
1.0888
0.79308
0.378863
0.507632
0.524999
0.640921
0
0.673442
0.488797
0.877314
0.339768
0.670896
0.525956
0.148986
0
0.673753
0
0.6461
0.645303
0.856
0.585127
0.308513
0
1.05589
0.415921
0.647996
0.52794
0.951812
0.267307
0.76554
0.773903
0.985652
0.39075
0
0.539576
0.83736
0
1.15218
1.08738
0.633338
0.790332
0
0.656433
0
0.4916
0.566004
0.891013
0.813471
0
0.392335
0
0.605068
0
0
0
0.516291
0.692861
0.997744
0.973094
0.82292
0.607222
0
0.53784
0.673278
0.570732
0.43887
0.805921
1.21648
0.514006
0.52484
0.493213
0.263548
1.02213
0.272482
0.554708
0
0
0
0.406877
0.462625
0.651656
0
0.199088
2.14883
0.776404
0.640904
0
0
0.476535
1.00141
1.16927
0
0
0.342475
0.619559
0.643329
0
0
0.650439
0.796522
0.826303
0.668246
0.857809
0
0
0.953192
0.62536
0.491103
0.650651
0.705327
0.717404
0.991378
0
0
0.601158
0.44324
1.71989
0.270366
0.183754
0.551819
0
0.526017
0.823075
0.63499
1.01036
0.206256
0
0.569515
0.39625
0
0.926048
0.670509
0
0
0
1.63233
0.664392
0
0.464542
1.93609
0.683314
0
0.5912
0
0.58502
0.44588
0.347027
0.525646
0
0.545372
0.543932
0
0.625264
0
0.432396
0
0.199252
0.571641
1.52216
0
0.594498
0
0.283947
0
0.818766
2.57035
0.670489
0.16256
0.415516
1.81309
1.27404
1.10514
1.08982
0.840863
0
0.248972
0.648084
0.267779
0.921378
0
1.4348
0
0.928849
0.829337
0.731676
0.854343
0.290856
0.681214
0.198069
0.770518
0
0
0.300398
0.221896
0.456278
0.50516
0.268679
0
0
0
0.666069
0.749463
0
0.28937
0.638007
0.408234
0
0
1.004
0
0.56232
0.459841
0.865282
0.358418
0
1.09735
0.590831
0.731125
0.51061
1.37743
0.772502
0
1.26828
0
0.434231
1.20516
1.80781
0
1.2338
0.292446
0.46285
1.01128
0.700713
0.706223
0
1.46077
0.758992
0.795887
0
0.875931
0
0.337831
0
0
0
0.55892
0
0.449627
1.17004
0.671065
0.501106
0.63668
0.458805
0.480096
0.884665
0.723559
0.537793
0.825814
0.318223
0
0.694207
0.180485
0.869342
0.671103
0.761486
1.45309
0
1.32315
1.76432
1.38976
0.327957
1.04023
0.448836
0.814408
1.33197
0.592271
1.00457
0.88889
0
0
0.491972
0
1.51878
0.702023
0.51289
0.329044
0.5077
0.695575
0
0.851506
0
0.920544
0.630996
0.61367
1.32668
0.354634
0.507899
0.993601
0.436733
0.533019
0.861886
0.432675
0
1.08026
0
0.585941
1.13069
0
0.575006
1.14799
0.727738
0.989172
1.22279
0
0
0.798642
0
0.785175
0.774241
0.319154
0.53175
0.161929
1.51159
1.2103
0.818379
0
0
0.602211
0
0
0.409775
0.780534
0.471224
0.492867
0.913985
0.492105
0.266813
0.479496
1.22794
0
0
0.51727
0
1.43533
1.11668
0.708158
1.01028
0.827507
0.51607
0.602257
0.588044
0
0.133104
0
0
0
0.576607
0
0.315632
0.174155
0.528353
0
0.466669
0
0.624229
0.863142
0
1.01318
0
0.681931
0
0.533084
0
1.16645
0
0
0.409462
1.46816
0.650558
0
0
0.569942
0.487145
0
1.39151
1.18831
0.467068
0.326579
0.557325
1.13254
0.968943
0.857512
0.157271
0.416019
0
0.847535
0
0.498417
0.617485
0.27995
0.843084
1.00395
1.2935
0.333085
0.381742
0.24498
0
0.749766
1.74403
0.474804
0.872771
0.318902
0
0
0.558249
0
0.685937
0.951718
0.684581
0.655076
0.45942
0
1.27631
0.688237
0
0.529312
0.658391
0.617518
0
0.815476
2.20574
0.52345
0.734375
0.401083
1.21855
0.640123
0.779259
0.428132
1.38724
0.619309
1.075
0.971122
0
0.707297
0.855927
0
0
0.810253
0.339852
1.10966
0
0.417545
0
0.615457
0
0.721673
0
0.64571
0.562764
0.584186
0
0.6828
0.530048
1.04001
0.473897
1.35747
1.04625
1.2858
0
0.768776
0.491133
0.522547
0.786924
0.593195
1.16234
0.671317
0.253179
0.513594
0.824169
0
0.433517
0
1.1463
0
0.257041
1.15015
0
0.400508
0.607922
0
0.558729
1.25461
0.655691
0.449895
0
2.16269
2.69303
1.25688
0
0.905824
0.652279
1.12935
0.254359
0.756167
0
0.768034
0
0.940793
0
0.237115
1.49862
0.777618
0
0.662412
1.03877
1.43951
0.709163
0.435742
0.441745
0.524348
0.704753
0
0.993376
0
0
1.08701
1.23372
0
0
0.35088
0.248034
0.76679
1.04608
1.39926
1.07836
4.39097
2.21379
1.13691
0.92059
1.30219
2.42762
0.938164
0.95517
0
2.29527
0.789027
0.333109
0
0.569071
0.882445
0.518863
0.966499
0.718354
0.964321
0.651726
0.883831
0.769616
0.856342
0.573697
1.37655
0.836303
0.728459
0.356754
0.61087
0
1.54671
0.730909
2.86753
1.0086
0
0
0
0
0
0
0
0
0
0
0
0
0
0
0
0
0
0
0
0
0
0
0
0
0
0
0
0
0
0
0
0
0
0
0
0
0
0
0
0
0
0
0
0
0
0
0
0
0
0
0
0
0
0
0
0
0
0
0
0
0
0
0
0
0.482105
0.442922
1.03159
0.642779
0.682199
0.683676
0.322211
1.27854
0.414995
0.452685
0
0.464192
0.674949
0.331841
0.38403
1.34109
0.447167
0.604301
1.49294
0.448522
0.369582
0
0.513898
1.79608
0.38374
0.573484
0
0.347348
0.47578
0
0.629077
0.775898
0.322377
1.37483
0
0.367113
0.352202
0
0.35297
0.978995
0
0.410926
0
0.739246
0.458884
0
0.732706
0.355588
0.113858
0.890518
0
0.559963
0.74428
0
0.18531
0.828817
2.37287
0.20885
0
0.971425
0.205479
0
1.02183
0.821576
0.5637
0.642148
0.666146
0.702273
0.759485
0
0
0.945206
0.407432
0.622979
0
0.559563
0.477749
0
0.335629
0.609983
0
0.893226
0.222231
0.599589
0.58187
0.375553
0.902727
1.42374
0.665763
0.335524
0.238863
0.455741
0.340374
0.487866
0.507363
0.612318
0.322588
0
0
0.534236
0.508576
0.628522
0
0.607649
0.67752
0.458669
0.735246
0.692266
1.03682
1.67318
0.425753
1.02882
0
0.528916
0
0.69129
0.771008
0.492656
0.684051
0
0.711294
0
1.01133
0
0.65629
0.491677
0.524352
0.914699
0.131646
0.43037
0
0.528743
0.213923
0.679269
0.872997
0.618394
0
0.840648
0.185135
0
0
0.329231
0
0.309761
0
0.418757
0.648869
0.911654
0.615625
0.435322
0.202781
1.0354
0.564079
0.227284
0.475817
0.477586
0
0.469381
0
0
0.694124
0
0
1.06543
0.406488
0.62978
0.9348
0.534544
0.589124
0.552178
0.0927317
0.523806
0
0.511795
0.363922
1.04028
0
0.317026
0.604951
1.02889
0.511879
1.0435
0.91955
1.03674
0
0.519682
0
1.14772
0.2684
0.423188
0.302896
0.896197
0.777213
1.46836
0.390661
0.60585
0.995129
1.14272
1.04752
0.949508
0
0
0.388686
0.425642
0.954299
0.7556
0.941036
0
0.695212
0.357718
0.530973
0.749043
0.804716
0.282205
0.500581
0
0
0
0.456941
1.25377
0.665736
0.741527
0.496802
0
0.540749
0.410233
0.472398
0.560794
0.829064
1.13035
1.15631
0.391537
0.863762
0.78445
0.978236
1.28798
0.515737
0
0.381382
0.976334
0.757368
0.609124
0
1.75982
0.839797
0.220462
0.7587
0
0.533729
0
0.156502
0
0.793524
0.569416
0.454528
0.727343
0.376706
0
0
0
0
0.486786
0.441163
0.323251
0.707495
0.999917
0.596667
1.10579
0.666557
0
0.664356
0
1.0466
0.62381
0.81107
0.464657
0.555743
0.819148
0.35793
0
0.419044
0
0
0
0.738384
0.292901
0.543638
0
0.743038
0.356694
0
0
0.73293
0
0.765988
0.804692
0.38411
1.89623
0.534805
0
0.844636
0.456148
0.54591
0.500735
0
0.364551
0
0.423859
0.617605
0.718523
0.794767
0
0.815488
1.16552
0
0.760256
0
0.812747
0.353135
0.336815
0.461482
0.495342
0.91762
0.554996
0.522144
0.380664
0.57676
0.512624
0.310141
0.537609
0
0.319676
0.172668
0
0
1.11227
0.525411
0.210477
0.559709
0.527174
0.772196
0.585742
0.481215
0.429224
0.952278
0.330127
0
0.441261
0
0.708458
0
0.447039
0.144756
0
0.344112
0
0.552801
0.779618
0.301362
0.298363
0.626983
0.536393
0.342066
0.360059
0
0.378484
0.626956
0
0.490767
0.672704
1.02732
0
0.482657
0.46952
0
0.37555
0.647226
0
0.50039
0.41385
0.612257
0.908908
0
0.271209
0
0.520711
0.457319
0
0.425914
0.721304
0.843163
0
0.807617
0
0
0.850306
0.519891
0.698479
0.356136
0
0.465447
0.416223
0
0.566989
0.961054
1.7625
0
0.720704
0.857461
0
0
0.459006
0
0.418496
0.261855
0.618877
0
1.1076
2.42424
0.863451
0.825958
0.656107
0
0.538379
0.535831
0.313216
0
0.990549
0
0
1.09447
0.629119
0.621688
0
0
0.474637
0
0
0.584824
0.511923
0.485041
0
0.741394
0.321738
0.382398
1.78993
0.740763
0.32431
0
0.670002
0.936804
0.388996
0
0.511501
0.176755
0.382326
0.490974
0.439366
0.627582
0.373221
0.414979
0.767041
0.841478
1.25254
0
0
0.826703
0
0.673449
0.613149
0.312205
0
0.801963
1.02509
1.28207
0.818495
0.442473
0.822079
0.467307
0.648394
1.10905
0
0.603567
0.989312
0.291975
1.5418
0.753712
0.64344
0.766433
0.908168
0.492502
0.63287
0.283579
0.481208
0.893036
0
0.436975
0.55394
0.782845
0
0.567935
0.731551
0.658735
2.01616
0.491182
0.644635
0.449076
0.529805
0
0.63074
0
0.578316
0.745637
0.440254
1.10889
0.410436
0.543533
0
1.10099
0
0
0
1.35693
1.22679
0
0.652284
0.938663
0.547499
0.208367
1.44334
0.228462
0.773216
0.59668
1.04193
0
1.99528
0.722009
0.717112
0
0.619256
0
0.53699
0
0.492472
0.847184
0.801484
0.24126
0.8339
0
0.713811
0.682277
0.720494
0
0.399435
0
1.14301
1.05005
0.4816
1.00615
0
0.822503
0.313077
1.5321
1.16309
0
0.675582
0.330348
0.491369
0.548382
1.13432
0.35287
0.301944
0.401764
0.808104
0.459688
0
0.817556
0
1.40622
0.962235
0.656848
0.553245
0.514649
0
0.793615
0
0.501582
0.824384
0.343429
0.453085
0.515308
0.726622
0
0.972674
0.63114
0
0
0.875802
1.5863
1.10388
0.606481
0.545237
0
0
0.496381
0.624392
0.247262
0.414223
0
0
1.12641
1.00072
0.712335
0
1.11584
0.737255
1.00974
2.0314
0.397787
1.04211
0
0
0
0.564071
0.13859
1.66563
1.02461
0.959553
0
0.81059
0.781709
0
0.545375
0
0.52686
0
0.649988
0.600844
0.36571
0.817059
0.813252
0.765803
0.533227
0.661079
0
0.868331
1.40939
0.941305
1.18922
0.638164
0.872103
0.340299
0
0
0.280997
0
0.960486
0.847407
0.472649
0.583928
1.25732
0.661532
0.755525
0.686385
0.614102
0.51485
0
0
0.212808
0.897901
0.329698
0
0.791143
0.545012
0.643168
0.534493
0.908432
0.928584
0
0.186708
0.561232
0
0.562778
0
0.546811
0.862174
2.16318
0
1.32892
0
0.711306
0
1.21425
0
0
0.667954
1.63943
0
0.379325
0.637468
0.536564
0.571206
0.529812
0
0.53599
1.00578
0.931851
0.517439
0.292514
0
1.43275
0.598122
0.69789
1.27624
0.797499
0.259938
0.841923
1.1837
0.33772
0
0.351503
0
0
0.508564
0.427852
0.385168
0.579923
0.102685
0.462473
1.15259
0.413706
0.563003
0.79084
1.58059
1.14873
1.00408
0.93662
0.862902
0
0.437708
0.832268
0.357034
0
0.666759
0
0.68889
0.565146
0.632529
0
0.56119
1.26321
0
0
0.533839
0
0.616515
0.564768
0.976304
1.2869
0
0.475187
0.647801
0.906124
0.59869
0
0.340213
0.615454
0.796161
0
0
0.828555
3.25989
0.579482
0
0.56181
2.01627
1.09008
0.947836
0.90726
0.525895
0.858928
1.3941
1.6849
1.36592
0.634857
1.04616
0.783802
1.598
0.749851
0.58128
1.15341
1.05206
0.460327
0.751083
0.40186
0
0.351375
0
1.14587
1.49885
0
0.768078
0
0.576259
0.645892
0.855885
2.64159
1.75051
0.170692
0
0.859794
0
0.615654
0.483796
0.572072
0.249255
0.416443
0.378658
0.611243
0
0
0.687422
0
0.855432
0
0.464401
0.937439
1.28533
1.30018
0
0.334773
0.936311
0.370824
0
0
0
0.663897
0.785254
0.922729
0
0.865788
0
0.948108
1.17656
0.320946
0.67972
1.02773
0.464431
0.144688
0
0.502346
0.955834
0.378042
0.943598
1.31886
0.724401
0.905654
1.21042
1.02206
0
0.596082
0.602239
1.1101
0.721661
0
0.876991
0
0
1.47256
0
0.87027
1.24473
1.17974
0.601996
0.551181
0.525556
1.35851
0.768055
0
0
0
0.498667
1.28696
1.11039
0.57481
0.693766
0.715081
0.631387
0.40541
0.339001
0.128237
0.626942
0.427153
1.052
0.480459
1.08158
0.595979
0
0.725582
0.932514
1.27387
0
0.961065
0.957652
1.31676
2.52276
0.645094
0
0.855484
0.192663
0.780153
0
1.0124
0.375735
0.330774
0.491207
0.543434
0.864151
0.25478
0.734617
0.724641
0
0.506222
0.32664
0.787086
0.376764
0.9753
0.421896
1.38991
0
5.10912
2.3812
0.969478
1.07615
1.63667
0.711998
1.17205
0.713275
1.16691
0.600485
0.400258
0.535431
0.623733
0.383198
2.34931
0.957866
1.0714
0.0870527
0.873389
0.462913
0.906038
0
0.628637
0
0
1.49207
0.781272
1.43327
0.487313
0.781815
0
0
0
0
0
0
0
0
0
0
0
0
0
0
0
0
0
0
0
0
0
0
0
0
0
0
0
0
0
0
0
0
0
0
0
0
0
0
0
0
0
0
0
0
0
0
0
0
0
0
0
0
0
0
0
0
0
0
0
0
0
0
0
0
0.39952
0.545139
0
0.342485
0.368451
0
0.466222
0.897871
0.451213
0.521838
0
0.556869
0.685819
0.931406
0.574046
0.958798
0.177003
0.460812
0
0.446662
0.416682
0
0.580795
1.30376
0.474715
0.427682
0
0.706695
0.451123
0
0.402872
0.936357
0.906011
0.333579
0
1.01374
0.572511
0
1.84274
0.401716
0.169562
2.10695
0
0.247173
1.43378
0
0.219636
0.468512
0.65525
0.233532
0
1.0838
0.249078
0
0.594122
1.4167
0.463439
0.970178
0
0.273178
0.393204
0
0.268417
0.894706
0
0.320223
0.529401
0.73536
0.472408
0.442759
0.559208
0.672123
0.911672
0.692002
1.01405
0.497886
0.772171
0
0.76874
0.833635
0.332225
0.501925
0
0.698186
0.477632
1.2532
0.520904
0.364998
0.152412
0.571995
0
0.856456
0.407253
0
0.45587
0.578072
0.178639
0.297996
0.576726
0
0
0
0.804161
0
0
0.715415
0
0.412444
0.63034
0.711535
1.20061
1.60598
0.579132
0.870171
0
0
0.592763
0
0.250761
0.729039
0.888356
0.601817
0.363543
0.619857
0.476006
0
0
0.269305
0
0.171464
0
0.244883
0
0.686814
0
0
0
0.937621
0
0.383185
0
0.592017
0.803718
0.534807
0
0.452289
1.16239
0
0.74308
0.422694
0.931056
0.608384
0.680204
0
0.816776
0.578222
0.867831
0.912172
0.505935
0.616296
0.894696