<?xml version="1.0"?>
<VTKFile type="RectilinearGrid">
<RectilinearGrid WholeExtent="0 32 0 32 0 32" Origin="0 0 0" Spacing="1 1 1">
<Piece Extent="0 32 0 32 0 32">
<PointData>
</PointData>
<Coordinates>
<DataArray type="Float32" format="ascii">
0 0.524874 1.04975 1.57462 2.0995 2.62437 3.14924 3.67412 4.19899 4.72386 5.24874 5.77361 6.29849 6.82336 7.34823 7.87311 8.39798 8.92285 9.44773 9.9726 10.4975 11.0224 11.5472 12.0721 12.597 13.1218 13.6467 14.1716 14.6965 15.2213 15.7462 16.2711 16.796 
</DataArray>
<DataArray type="Float32" format="ascii">
-5.03879 -3.62163 -2.20447 -0.787311 0.629849 2.04701 3.46417 4.88133 6.29849 7.71565 9.1328 10.55 11.9671 13.3843 14.8014 16.2186 17.6358 19.0529 20.4701 21.8872 23.3044 24.7216 26.1387 27.5559 28.973 30.3902 31.8074 33.2245 34.6417 36.0588 37.476 38.8931 40.3103 
</DataArray>
<DataArray type="Float32" format="ascii">
0 0.524874 1.04975 1.57462 2.0995 2.62437 3.14924 3.67412 4.19899 4.72386 5.24874 5.77361 6.29849 6.82336 7.34823 7.87311 8.39798 8.92285 9.44773 9.9726 10.4975 11.0224 11.5472 12.0721 12.597 13.1218 13.6467 14.1716 14.6965 15.2213 15.7462 16.2711 16.796 
</DataArray>
</Coordinates>
<CellData>
<DataArray type="Float32" Name="Scalar" format="ascii">
0
0
0
0
0
0
0
0
0
0
0
0
0
0
0
0
0
0
0
0
0
0
0
0
0
0
0
0
0
0
0
0
0
0
0
0
0
0
0
0
0
0
0
0
0
0
0
0
0
0
0
0
0
0
0
0
0
0
0
0
0
0
0
0
0.125659
0.215517
0
0.388113
0.26294
0
0.223425
1.00878
0.0836167
0.383811
0
0.415726
0.353451
0
0.21571
0.615562
0.120745
0.209569
0
0.24271
0.234787
0
0.214638
0.997567
0.258084
0.49456
0
0.289718
0.179185
0
0.24342
0.418451
0.129471
0.6514
0
0.22459
2.17432
4.31072
0.317462
2.01815
0
0.274749
0
0.99591
0.270979
0
1.06614
0.678232
0.125932
1.37318
0
0.195169
0.245544
0
0.427897
1.21549
0
0.0847699
0
1.07975
0.181464
0
0.694624
0.220641
0
0.643686
0.916613
0.666451
0
1.22713
0.936109
0
0.787811
2.16047
0.981896
1.04831
0.545318
0.86926
0.799123
0.513841
0.477225
0.745094
0
0.536257
2.30857
0.880578
0.88798
1.11313
0.749064
0.756591
1.18422
0.711303
0
0
0.462109
1.58642
0
0
0.879947
0.488822
0.443359
2.1944
0.570726
1.16769
1.01012
0.594196
0.457439
1.08318
0
0
0
0.313749
1.56111
1.11398
0.261065
0.568029
0
0
0
1.24526
1.51128
0.96462
1.0784
0.219337
0.325388
2.05571
1.82787
1.12976
0.424359
0.565907
0.768468
0.967079
0.703141
0
0
0
0.407186
0.771337
0.121823
0.58186
0.391315
0
0.445071
0.537331
0.781342
0.529458
0
0.848753
0.650199
1.05206
0
0.825506
0.645152
0.533111
0.460174
0.570174
0.694801
0.52837
0.920394
0
0.915298
0.936602
1.37316
0.970574
0.519483
0.417638
1.30877
0.707126
0.547742
0
0.469774
0
1.16807
0
0.17982
0
0.912094
0
0.793918
0
0.912615
0
0.472843
0
0
0.340695
0
0.905323
0
0.957073
0.794759
0.798551
0.587974
0.753757
0.511725
0.484018
0.549935
0
0.592379
0
0.788132
1.4038
0.675911
0.568438
0
0.744535
0.447799
0
0.750447
1.16572
0
0.77585
2.52049
0.919871
0.66832
0.60995
0.795599
0
0.929605
0.555269
0.38056
0.845269
2.95567
0.666333
0
1.0782
0.724439
0
0.745231
0
0.508514
0
0.776033
0
0.700329
1.1476
1.07059
0.431789
0.786554
0.283072
0.852103
0.906645
0.989868
0.308812
0.531884
0
0.367748
0
0.755977
1.23807
0.654489
0
0.363694
0.865508
0.934118
2.31502
0
0
0
2.60379
0.649269
0.53821
0.818901
0.493695
0.606474
0.271817
0.866312
0.624804
0.656718
0.606687
0
0.680681
0.320502
0.723529
0.193145
0.34741
0
0.396571
1.13549
0
0.475409
0
0.8513
0.709416
0
1.43465
0.747936
0
0.669836
1.13816
0.812182
0.807815
0
2.5443
0.886639
0.823307
0.570803
0.309525
0
0.37015
0.569189
0
0.455757
0
0.681027
1.51462
0.65489
0.251862
0.658015
0.451433
1.43173
1.37013
0.66606
0.771938
0.731108
0.59964
1.1092
0.50503
0.844273
0.572905
0.227518
1.21602
0
0.801045
0.911942
0.608054
0.489821
0
0.72538
0.51127
0.494607
0.386138
0.58818
0.900367
0.513492
0
0.434031
0.358671
1.43367
1.58158
0
0
1.00751
0.612484
1.16753
0
1.27365
0.900947
0.600358
0
0.237228
0
0
0
0.944242
0
0.253237
0
0.761182
0.524145
1.05279
0.634025
1.29651
1.11256
0.71513
0.926955
0.36353
1.85746
0.4594
1.09097
1.66358
0.886368
0.718733
0.336555
0.747462
0.528104
0.823958
0.267895
0.846129
0.816777
1.01433
2.01582
1.21889
0.384569
0
0.460454
0
0
0.454992
1.49222
1.21862
0.564549
0.829898
0
0.497906
0
0.105742
0.500806
0.527315
1.205
0
0.355911
0.449172
0.548441
0
0.549444
0
1.00819
0.798266
0.813484
0
0
0.611572
0.839467
0.317324
0.481015
0
0.799218
0.58904
0
0.726337
0.755632
0.876519
0.632682
1.14569
0.576823
0.76602
0.400971
0
0.289502
1.08245
0.835067
0.39112
0.441079
0.445992
0.277408
0.442045
0
0
0
0.540133
0.231813
0.403004
0.556039
0.310381
0.472295
0
0.944052
0.924199
0.796699
2.49667
0.831553
0
0.861972
0.56292
0.900742
0.414005
0.704716
0.711323
0.716353
0.847104
1.46237
0.34927
0.481111
0
0.590557
0.667759
0.156466
0
0.892713
0
0.795039
0.299928
0.665403
0
1.28662
0
0.442415
0
1.24753
0.586582
0.554476
0
0.549992
0
0.220139
0
0
0.5828
0
0.475278
0
0
0.554221
0.64176
0.354138
0.76486
0.141563
0.122485
0.598509
0.768428
0.539077
0.542238
0
0.851415
0.862249
0.952452
0.486502
0.788209
0.746282
0.278725
0.439533
0
0.869588
0.711642
0
0
0.824206
0
0.394636
0.471597
0.509178
0
0
0.567111
0.405156
0
0.60902
0
0
0.751701
0
0
0.598297
0
0.770844
0.142533
0.934004
0
0.302943
0
0.93035
0
0.531243
0.0837589
0.341331
0.522858
0
0.635057
0.177247
0.458485
0.712645
0
0
0.359829
1.30928
0.84438
0
0
0.501903
0.329746
0.908213
0.712467
0.458758
0.900585
0.395872
0.473131
0.237079
0.78594
0.602003
0
0.74306
0
0.615674
0.323733
0
0.707492
0.85494
0.463201
0.58726
0
0.256683
0
0
0
1.4326
0.720785
0.888006
1.39423
0
0.684909
0
0.430086
1.58453
0
0.463613
0.172178
0.387877
0.402758
0.169796
0.751557
0
1.00718
0
0.466
0
0.585782
0.983565
0.600186
0.513852
0
0.382759
0.433047
0.473208
0.631803
0.684452
0.496791
0
1.0449
0
0.512791
0
0.407497
0
0.384503
0
0.279897
0.421567
0.434217
0.626539
0
0.43291
1.0336
0
0.592241
0.785836
0.960609
0.78552
0.979378
0
0.271085
0.516042
0.398211
0.2467
0
0.729366
1.06327
1.11501
0
0
1.0138
0
0.489402
0
1.4682
0.338536
0.0128282
0.538809
0.421966
0
0.730528
0
0.98341
0.872087
0.462008
0.54434
0
0
0.533734
0.499008
0.412801
0.37876
0.834205
0.536543
0.992486
0.623136
0
0.738831
0.393719
0.499734
0.619612
0.340151
0.317678
0.628259
0
0.581411
1.71687
0
0.403227
0.463151
0.975144
0
0.622084
0.836229
0.736953
1.21981
1.00487
0.598919
0
0.197878
0.972888
0.630545
0.309969
0.68491
0.375776
0
0.808436
0
1.5552
0.876503
0
0.599304
0
0
0.241692
0
0.901092
0
0.285743
0.437659
0.760603
0
0
0.769395
0.187904
1.02337
0.445497
1.74144
0.803745
0.553933
0
0.752387
0
0.893263
0.588623
0.66702
0
0.386593
0
0.977931
0.551674
0.376228
0.788659
0.8857
0.31148
0.516629
1.03762
0
0.777912
0.869403
0.089832
0.278764
0.419423
0.785271
1.16935
0
0.755927
1.03957
0.143616
0
0
1.3468
1.25468
0.637508
0.323093
0.690695
1.22538
0
0.519161
0.570488
0.719828
0.674719
0.597029
1.35234
0.465475
0.400142
0.520304
0
0.588924
0.549065
0.639178
0.756274
0.906583
0.417265
0.546635
0
0.51636
0
0
0.635181
0.590093
0.880423
0
0.707841
0
0.435168
0.456544
0.918992
1.03759
0.508527
0
0.58981
0
0.518339
0.898599
0
0.685632
0.394585
0.554592
0.613018
0.345299
0.245272
0.565825
0.825925
0.161509
0.77896
0.374635
1.89033
0.587368
0.540206
0.531675
0.326081
0.257635
0.523611
0
0.228791
0.485925
0.274649
0.828111
0
0.735547
0
0.451018
0.599243
0.803608
0
0.694907
0.595763
1.34952
0
0
0
0.834605
0
0
0.708478
0.809318
0.820316
0.325628
0.362609
0
0.512535
0
0.3657
0.669579
0
0.702878
0
0.511312
0.888721
0.50401
0
0.962076
0
0.353803
0
0.901677
0.619733
0.130363
0
0.206045
0.546692
0.722941
1.17512
1.22687
0.435501
0.460095
0.861899
0.69976
1.25309
0.536963
0.271079
0.423384
0.388246
0.267843
0.437432
0.432866
0.816845
0
0.643345
0.49152
0.900352
0
0.935147
0
0.28488
0.279007
0
0
0.420811
0.988075
1.01922
1.05072
1.18029
0
0.79836
0.503343
0.911625
0
1.0331
0
0
0.366644
0.699797
0.96708
0.556105
0
0.690143
0.223671
0
0
0.517481
0.535611
0.95722
0
0.973594
0
0.319319
0.569741
0.723028
0.431056
0
0.546862
0
1.01686
0
0.536039
0.552895
0
0
0.368462
0
0
0.997204
1.0413
0.347841
0.647685
0.319351
0.559707
1.4815
0.658709
1.56571
0.187192
0.405316
0.245603
0
0
0.240927
0
0.974545
0
0
0
0
0
0
0
0
0
0
0
0
0
0
0
0
0
0
0
0
0
0
0
0
0
0
0
0
0
0
0
0
0
0
0
0
0
0
0
0
0
0
0
0
0
0
0
0
0
0
0
0
0
0
0
0
0
0
0
0
0
0
0
0
0.369368
0.665124
0.751583
0.524037
0.508902
0
0.39998
1.01914
0.383766
0.754822
0
0.496062
0.645538
0
0.387448
1.10672
0.284177
0.866828
0
0.646397
0.800537
1.54965
0.612429
1.31735
0.350396
0.584491
0
0.803676
0.643264
0
0.430641
0.923273
0
0.192437
0
0.931187
0.508928
0
0.842537
1.72815
0.470495
0.827089
0
0.239657
1.49993
0
0.636814
2.52032
0
0.398284
0
1.27536
0.433696
0
0.857529
1.55053
0.562129
1.14682
1.21448
0.760164
1.46473
0.513843
0.411429
0.822813
0.55674
0.523675
0.874428
0
0.8299
0.695922
1.07575
0.88867
0.522079
0.974074
1.87804
0.506384
0.523798
0.614423
1.07102
0.602886
0.92496
0.715968
0
0.679501
1.14388
1.11412
0.886737
0.568537
0.435571
1.92445
0.473154
0
0.768254
1.02983
0
0.7074
0
0.94248
0.757664
0
0.519063
2.89799
2.79699
2.36786
1.07347
0.980098
0.395249
0.364394
0.871786
0.488715
0.794711
0.393436
0.52362
0
0
0.250422
0.328972
1.45879
0.610837
0
0.806263
1.42633
1.24316
1.08293
0
0.630824
0.7006
1.70406
0
0
0.85574
0.86337
0.976873
0.782704
0.661271
0.76199
0.385162
0.629839
0.758972
0
0.346776
0
0.202127
0
1.09034
0.645696
0.315182
0.750418
0.75601
0
0.47391
0.574214
0.844262
0
0
0
0
0
0.298447
0.368364
0.656914
0
0.605862
0
0.527285
0
1.17147
0
1.20588
1.28872
0.815528
0
0.379424
0
0.677344
0.576223
0.627727
0.559475
0.197714
0
0.83324
0
1.2259
0.750558
0.255417
0
0.538719
1.09299
0.824734
0.530775
1.08416
0
1.10831
0.457633
0.540529
0.725648
1.14276
1.23437
0.721865
2.39643
0
0.53442
1.06644
0.63751
0.476831
1.24219
0.554824
1.13588
0.366906
0.549659
0
0.291002
0.786403
0.451759
0.95137
0
1.01102
0.820061
0
0.711154
0.652323
1.08249
1.92463
0.755652
0
0.628725
0
0.533587
0
0.471659
0.578013
0
0
0
0.386101
0
0.89188
0.987791
0
0.738403
0
0
0.704043
0.704398
0.713922
0.649532
0.523207
0.819591
0
0.667051
0.451206
2.13859
0.549804
0.58878
1.04433
1.99658
0.33086
0.867249
1.035
1.73796
0.15401
0.434926
0.591356
0.189615
0
0.735164
0.736917
0.682407
0.553383
0.372227
1.09471
0.464922
0.297889
1.15251
0
0.343511
0
1.53415
0.858871
0.67332
0.792503
1.18394
1.01956
0.862177
0
0.514414
0.312708
0.644279
0.907422
0.662564
1.52676
0.891847
0.472114
1.42919
0
0
1.13037
0
0.367366
0.809627
0.863237
0.455689
0
0.741809
0.619697
0.878901
0.618215
0.665167
0.874419
0.76461
0.529998
0.801006
0.662636
0
1.07575
0
0.350463
1.01574
0.425978
0.543534
0.87119
0.389115
0.403349
0
0.301667
0.778624
0.941902
0.659488
0.48432
1.23588
0.303372
0
0.499301
0.944913
0.656328
0
0
0.601821
0.656409
0
0.779106
0
0.814619
0.464262
0.537908
0.617688
0.39432
0.20577
0.847254
1.04485
0.294208
0.237702
0.524266
0.694628
0.6233
0.206093
0
0
0.590631
0.417529
0.867169
0.387471
0.695544
0.839992
0.764452
1.33773
0.884558
0.0938432
0.261527
1.15102
0.230979
0
0.217681
0.501287
0
0
0
0.707068
0
0.896657
0.91924
0.629364
0.68305
0.328284
0.829345
0.618721
0.846629
0.731134
0.37371
0.531525
0.982941
1.16671
1.14807
0
0.201507
0
0.752142
0.885178
0
0
0.724739
0.527994
0
0
0
0.439042
0.455303
0.502939
0.406374
1.22366
0
0.61384
0.630341
0.266282
0.125219
0.585687
0.281095
0.221766
0.936188
0.265825
0.744707
0.879654
0.944567
0.194105
0.955633
0.699906
0.457176
0.47177
0.337815
0.20853
0.360848
0
0.665685
0
0.270183
0.49769
0.379799
0.291051
0.12528
0.45956
0
0.509562
1.0594
0.757254
0.906375
0.297545
0.692085
0.363822
0
0
0.538817
0.158054
0
0
0
0
1.06343
0
0.460456
0.553893
1.16677
0.576845
0.286302
0.496845
1.05201
0
0
0.585211
0.748359
0.216773
0.743012
0
0
0.383033
0.556567
0.645983
0.768013
1.00475
1.15015
0.269389
0
0.410579
0.355825
0.74249
1.71632
0
0.629771
0
0.750039
0
0.42411
0
0.593344
0
0.323644
0
0.615848
0.712559
0.863956
0
1.06009
0.26495
0.341655
0.508554
0
0.860065
0.543528
0.67479
0
0.783229
0
0
0.34288
0.721839
0.692253
0.743295
0.651013
0.65468
0.346607
0.676378
0
0
0.421048
0.326676
0
0
0.584691
0.614581
0
0.268476
0.782442
0.466105
0.877353
0.304585
0.457813
0.810783
0.334599
1.28952
0
0.997038
0
0.941604
0.97104
0.522912
0.742436
0.442051
0
0.609026
1.21239
0.72003
0.823872
0.395158
0
0.532481
0.785579
0.930072
0.447304
0.486608
0
0.934781
0.379487
0.68744
0.72704
0.941632
0.615807
0.688106
0.855016
0
1.39907
0.975986
0
0
0
0.22231
1.21254
1.16798
0
0
0
0.603391
0.762334
0
0.288198
0.264151
0.416546
0
1.04634
0
0.888635
1.31457
0.440361
0.532105
0.726967
0.313135
1.12011
0
0.288738
0.220959
0.14096
0
0.966723
0.588126
0.589238
1.1983
0.646585
0
0.87073
0
0
0.506817
0
0.840004
0
0.191413
0.566522
2.74818
0.436053
0.253563
0.435386
0.182812
0.876283
0
0.471594
0.895415
0.734234
0.646619
0
1.05203
0.836932
0.832868
0.579484
0
0.283225
0
1.59842
0.902632
0.620017
0
0.569874
0.253139
0
0.165796
0
0.662795
0.588844
1.99265
0
0
0.628909
0.565419
0.589292
0.342542
0.211378
0.607869
0.356528
0.492219
0.604172
0.451253
0.273804
0.632248
0
0
0.604533
0
0.884276
0.500465
0.673764
0.490586
0.251494
2.93188
1.4912
0.914531
0.62378
0
0.568126
0.734811
0
0.863539
0.753479
0
0.457966
0.40133
0.4333
0.439654
0
0.600729
0.737139
0.734209
0
0.676122
0
0.432742
0.842946
0
0.755833
0.497718
0.782664
0.430653
0
0.654747
0
1.10441
0.398645
0.515134
0.514371
0.820231
0.421474
1.09735
0.623484
0.445034
0.491475
0.572975
0.653097
0
0.741823
0
0
0
0.393831
0
0.551261
0
0.326199
0
0.676116
0.737464
0.328021
0.367826
1.26051
0
0
0.750419
0.370238
0.65481
0.932724
0.575717
0.792689
0.821546
0.589175
0.897524
0.617627
0.569717
0.274801
1.2065
0.593646
1.40397
0.610054
0.731446
0.729245
0.996428
0.621934
0.497758
0.444654
0.426546
0.70569
0.711772
0.929299
0.329717
0.329007
1.13481
0
0.657489
0
0
0.686278
1.14998
0.233711
0.588714
0.499687
0.197196
1.05816
0
0.394893
0.68445
1.34047
0.242506
0.866374
0.458138
0.978564
0.816153
0.588499
0
0.595449
0
0
0
0.676544
0.316708
0.773538
0.725967
0.550826
0.643951
0
0
0.25565
0.314895
0
0.495665
0
0.53221
0.569808
0.833895
0
0.64304
0
0.323421
0.613816
0.125896
0.430294
0.548083
0.332621
0.53267
0
0
0.273811
0.227966
0
0.567167
1.40594
0
0.372869
1.76144
0
0.134427
0.472464
0.533033
0
0.829845
0.750855
0.567113
0.205397
0.491494
0.529448
0
0.385965
0
0.262066
0.224198
0.711622
0
0.382378
1.01674
0.109281
1.35497
0.76632
0.794891
0.436051
0.818819
0
0.409737
0
0.310675
0.381188
0.365732
1.65603
0
0.560877
1.13227
0.989657
0
0.378241
0
0.619945
0
0
0.380058
0.994352
0.48329
0.649871
0.416575
0.589264
0.41413
0.686038
0
0.536968
0
0.0570305
0
1.55476
0.650761
1.72183
1.02783
0.623301
0.34909
0.670793
0
0
0.843872
0.484351
0
0.659686
0.801413
0
0.421396
0.583489
0.787864
0.449489
0.424573
0
0
0
0.715904
0
0
0.762221
0
0.784066
0.915912
0.597787
1.149
0.28752
0
0.289391
0
0
0.652028
0.482296
0.39357
0.605216
0
0.292375
0
0.456427
0
0.306824
0.637295
0.433167
0
0.532662
0.66677
0.549621
0.6457
0
0.523132
0.327928
0.654048
1.50033
0.853121
0.465544
0.402956
1.00819
0.751543
0.320611
0.542593
0.266073
0.775268
0.669661
0.735506
0.256194
0.427741
0
0.992663
0.641116
0.550708
0.509209
0.616849
0
0.305398
0
0.741285
0
0
0
0
0
0
0
0
0
0
0
0
0
0
0
0
0
0
0
0
0
0
0
0
0
0
0
0
0
0
0
0
0
0
0
0
0
0
0
0
0
0
0
0
0
0
0
0
0
0
0
0
0
0
0
0
0
0
0
0
0
0
0
0
0.506053
0.738266
0
0
1.39999
0
0
0
0
0
0
0.817079
0.927197
0
0
0
0.620994
0
0
0
0
0
0
0
0
0
0
0
0.433589
0
0
1.62273
0
0
0
0
0
0
0
0
0
0
0
0
0
0
0
0.531553
0
0
0
0
0
0
0.24718
0
0
1.16467
0
0
0
0
0
0
1.19421
0.109001
0.629277
0
0
0
1.23973
1.15192
0.663282
0
0.540633
0
0.202595
0
0.593755
0.652302
1.13542
1.12025
0
0.464937
0
0.652039
0.504444
0
0.332861
0.533298
0.861723
1.26533
1.0968
2.88176
1.719
1.12972
0
0
0
0.291245
0.599948
0.300473
0.615818
1.42869
0
1.2995
1.07468
0.573558
0.450503
0.496985
0.0953905
1.56868
1.26196
0.581095
1.08381
0.431615
1.16953
0
0.693979
0.653155
0.84975
0.643107
0.533905
0.635769
0.618509
0
0.724536
0.69336
1.35498
0.823689
0
0
0
0
0
0.614156
0
0
0.872543
0.66004
0.978455
0.635353
0.861804
0.705744
0.846786
0.931214
0.579266
0
0.652136
0
0.754517
0.467371
0.702569
0
0.664393
0
0.984573
1.09732
1.23374
0.597797
1.4119
1.78455
1.74302
1.68352
0.848439
2.757
1.17379
0.62051
0.884668
0.708152
1.20839
0.644205
0.571808
0.594705
0
0.855133
0.568774
1.37463
0.205936
0
0.747185
0.661207
0.317516
0
0
0.720311
0.59454
0.378444
0.558742
0
1.1912
0.552923
0.658296
0
0.529608
0
0.618527
0.8796
1.09982
1.06075
0
0.590194
0.731992
0.926058
0
0
0.719568
0.459981
0.548787
0
0.916009
0.592372
0.876866
0.358309
1.22682
0.613957
0.573669
0
1.25762
0.78106
0
0.897096
0
0
0.47303
0.513377
0
0.528988
0
0.720528
0
0.566761
1.17238
1.81008
0
0.722864
0.96611
0
0.403415
0.57245
0.612819
0.375114
0.774205
2.02137
0.574257
0
0.318419
1.22467
0.892355
0.463894
1.04406
0
0.293745
0.43888
0
0.37398
0
0
1.9107
0.644856
1.12657
0.836073
0.705826
0.589463
0.594519
0.62963
0.855883
0.818063
0.775153
0
0.663978
0
0
0.111597
0
0.483874
0.597963
0.477603
0.792465
0.657678
0.224295
1.32878
0.665011
0.77604
0.468612
0.297562
0.400372
0.842722
0
0.710372
0
0.622446
0.113262
0.696009
0.595786
0.450535
0.458251
2.05721
0.615716
1.10802
0.423312
0.5297
0
0.755723
0.452128
0
0
1.00057
0
0.693684
0
0
0.980804
1.12886
1.10763
1.19444
0
1.08198
0.488009
0.522272
0
0.433851
0
0.277916
0
0
0.385912
0.0920309
0.617224
0.762342
0.576024
0.517529
0.706939
0.516899
0
0
0.711899
0
0.534042
0.532116
0
0
0.902237
0.401659
0.17524
0
0
0.303571
0.257274
0.262413
0.336763
0
0
1.0279
0.721412
0.335436
0
0.390479
0
0.685376
0
0.513368
0.464559
0.676122
0.417377
0
0.742152
0.821781
0.748171
0
0
0.401662
0
3.1387
1.34012
0.358983
0.685062
0.655665
0
0.792389
0
0.214957
0.419705
0.343293
1.00169
0.853602
0
0.812543
0.326852
1.31354
1.22403
0
0.778677
0.494234
0.745347
0.8648
0.468335
0.151112
0.746922
0.403888
0.664378
0
0.860611
0.375413
0.388531
0.367038
0.470797
0.304112
0.64673
0.60666
0.993608
0
0.590675
0.663966
0.280963
0.782492
0.931021
0.27297
0.196359
0.942111
0.880017
0.662663
0.715531
0.92423
0
0.763264
0.733449
0
0.332938
0
0.321409
0.491754
0
0.358592
0.549943
0.1738
0
0.498184
0
0
0
0.478142
1.01776
2.06783
0.624568
0.812153
0.576341
0
0.669343
0.301281
0.705277
0.379696
0.480991
0
0.849169
0.67034
0.568558
0
0.522033
0
1.75286
1.15187
0
0.21428
0
0.566016
0
0.70256
0.578991
0
0.561143
1.14007
0.525305
0.416333
0.433053
0.369592
0.632726
0.375737
1.50928
0.406676
0.886068
0.661478
0.963443
0.54062
1.29502
1.44257
0
0.353486
0
0.921811
0.608801
0
0
0.725788
0.668027
0
0.745267
0
0.493352
0.680023
0.421882
0.730208
0.579177
0
0.818304
0.566555
0
0.405712
0.415022
0.808324
0.885055
1.01548
0.58699
0
0
1.07412
0
0.777454
0
0
1.04976
0.858469
0
0
0.104967
0.423442
0.907932
0
0.557567
0.839166
0.47094
0.764427
0
0
0
0.367737
0
4.14683
0.97499
0.693856
1.15479
0
1.66942
0.406945
0
0
0.470539
0
0.535768
0.512687
0.496766
0.633844
0.946457
0.539285
1.12665
0.960722
0.217446
0
0.485341
0.961772
0.676437
0.744978
1.31746
0.842078
0
0.914558
0.56973
0.971573
0
0.96135
0.878434
0.868018
0.746328
0.711831
0.348094
0.210159
0.804147
0
0.604844
0
0
0.797632
0.444819
0.369926
0.707501
0.871178
3.37912
2.26447
0
0.187858
0.241985
0.873183
0
0.307121
0.824682
0
0.322878
0
1.09176
1.22894
0.830226
0
0.758714
0.386089
0.700545
0.5069
0.950013
0
0.38759
0.77368
0.470062
0.463037
0
0.64491
0
0.66464
0
0.377215
0
0.542468
0.51027
0.508858
0
0
0.296825
0
0.947951
1.11621
0.457489
0.718105
0.54394
0.608951
0.418973
0.949662
0.435239
0.544835
0.333195
0
0.869258
0.900915
0.546369
0.608721
0.564192
0
0
0.667511
0.722705
0.636718
0
0
0.948534
0
0.678472
2.03821
0
0.923971
0.593527
0.867203
0.471161
0.585074
0
0.629444
0.532583
1.296
0.671589
0.507033
0
0.886805
0.655558
0.654525
0.485979
0
0.486251
0.424805
0.432557
1.04084
0.426587
0.623207
0.831995
0.944985
0.147928
0.323063
0.667709
0.687613
0
0.719335
0.436486
0.362748
0
1.0384
0.46622
0
0.578163
0
0.659881
0
0.670708
0.435568
0.97496
0.448806
1.43005
0.825535
0.610132
0.592815
0
0.554565
0.527856
0.29379
0
0.886721
0.769579
0
0
0
0.678649
0
0.390781
0
0.279549
0.214404
0.329482
0.461422
0.352164
0
0.529333
0
0
0.342195
0
0.333547
0
0.376172
0.634361
0.161505
0.833389
1.13007
0.542534
0.246051
1.58263
1.57275
1.00269
0.679948
0.341229
0.405683
0.912629
0.692984
0.594567
1.55698
0.755012
0.139993
0.910696
0.257745
0.764219
0.387393
0.555369
0.722693
1.02371
0.625318
0.0732096
1.04343
0
0.333725
0.250372
0
0.62771
0.705417
0
0
0
0.928321
0
0.770332
0.291391
0.648354
1.32775
0
0.334869
0.303716
0.550872
0.388196
0.781191
0.701091
0
0
0.281499
0
0.819188
0.75666
0.609743
1.30399
0.681768
0.331276
0.528668
0
0.327709
0.554067
0.429043
1.47902
0
0.505734
1.11233
0.887344
0.476125
0.593689
0.573504
0.244425
0
0.533972
0.752322
0.492163
0.317489
0
0.730641
0
0.764871
0.544426
0.392573
1.34653
1.23625
0.290275
0
0.901214
1.13558
0.520706
0
0.340676
0
0.47451
0.395759
0.110876
0.500257
0.799295
0.586959
0.494532
1.1555
0.500023
0.72522
0
0.538737
1.05917
0.431937
0.49839
0
0
0
0
0.45277
1.26992
0.833703
0.806436
0.151423
0.440235
0.351443
1.07405
0.838238
0.465796
0.0560496
0.396348
0.463109
0.689031
0.46791
0.600266
0.454385
0.309433
0.331837
0.646245
0.736255
0.775213
0.572096
0
0.382011
0
0.677436
0
0.635867
0.839646
0.495591
0.652361
0.401087
0.299421
0.659832
0.876413
0.682272
0.782022
0.609602
0.378902
0.651062
1.58792
0.429858
0.411105
0.262533
0
0.566481
0
0.530113
0.610344
1.28024
0
1.00669
0.564503
1.16237
0.798698
0.876897
0.711102
0.647927
0.28927
0.200927
0
0
0
0.678536
0.565557
0.229661
0.406629
0
0.805646
0.655521
0
0.0723587
0
0.410152
0
0.505561
0
1.46118
0
0
0.920422
0
0.88473
0.482208
0.517399
0.234067
0.561227
0.206021
0.584391
0
0.327471
0.620404
0
0.578347
0
0.210168
0
0.537832
0
1.07573
0.435375
0.682411
0
0.276859
0
0.48514
0.470186
0.657513
0
0.38386
0.822748
0
0.550231
0
0
0
0
0
0
0
0
0
0
0
0
0
0
0
0
0
0
0
0
0
0
0
0
0
0
0
0
0
0
0
0
0
0
0
0
0
0
0
0
0
0
0
0
0
0
0
0
0
0
0
0
0
0
0
0
0
0
0
0
0
0
0
0
0.3414
0.618027
1.1757
0.421631
0.827707
0
0.588908
1.21804
0.340965
0.620454
1.38625
0.426232
0.61071
0.824181
0.288182
1.02892
0.270398
0.344313
0
0.473942
0.408354
0
0.417857
0.760254
0.25166
0.427906
0
0.512587
0.571162
2.16999
0.357342
1.25386
0.225439
1.0891
0
0.523628
2.55703
0
0.368108
0
0.598181
0.730542
0
0.84238
0.43402
0
0.936822
1.38701
0.35771
0.326095
0
0.177375
1.03164
0
0.458557
0.916107
0.839848
0.830073
0
0.781762
0.399292
0
0.744616
0.637122
0.652155
0.302987
0.675596
0
1.34166
0
1.27645
0.435697
0.554659
0.509822
0.534083
0
1.18406
1.33678
1.03489
0.622405
1.69217
0.514317
0
0.614054
1.30455
0.496125
0
1.03465
1.07568
0
0.857747
0.817324
1.15254
0.664924
0.734676
0.511895
0.528883
0
0.6391
0.609917
0.669009
0.657491
0
0.423384
0.966387
1.27413
1.18275
1.17009
0
0
0.693257
0
0.875693
0.49017
0.718867
0.621081
0
0.826986
0
0.551777
0.537031
1.09637
0.406879
0
0.636266
0
1.27169
0
0.518081
0.737079
0
0.596005
0.465714
0.757615
0.840398
0.457729
0.391243
1.01642
0.185502
1.21142
2.03221
0.66392
0.521887
0.681603
1.40509
0.758035
0
0
1.35622
0
0
0.519429
0.688925
0.694882
0
0
0
0
0.634354
0.562492
0
1.11404
0.508694
0.605659
0.517872
0.813827
2.75057
0
0.915375
1.18527
0
0.676913
0.76402
0.484761
0.743095
0.483219
0.23695
0.724675
0.649756
0.950382
0.872332
0
1.19397
0.456247
2.4438
1.19151
0
0.671363
0.87031
0.49559
0
0
0.581591
0.98847
1.20444
0.727466
0.701699
0.494718
0.677751
0.879367
0.667576
0
0.458343
0.877673
0.64456
0
0.654856
1.24957
0.858329
0.698569
0.586474
0
0.815048
0
0.536484
0.841938
0.956588
0
1.02083
0
0.226642
0.701162
0.652625
0.793189
0
1.26861
0.662564
0
0.415548
0.328536
0
0
0.212538
0.455768
0.526383
1.49784
0.688975
1.2427
0.951364
0.185666
2.51719
0
0.389897
0.59961
0.448313
0.619903
0.592967
0.321706
0.551332
0.432491
0.723113
0.634814
0.615763
0
1.26747
0
0.219801
0
0.565743
0.67548
0
3.17267
0.813247
0
0.618432
0
0.641554
0.658594
0.283386
0.872581
0.388825
0.256054
0.621603
0.67426
1.24758
0.994743
2.39939
1.52019
1.3072
0
0.714779
1.26812
0.578349
0.343901
0.6128
0.657869
0.543958
0
1.19555
0.588066
0.817676
0.235565
0
0.867798
0
0
0
0.868676
1.29674
0.728744
0.285647
0.492398
0.340626
0.745252
0.857263
0.961049
1.37198
0
0.939337
0
0.639528
0.544439
0.405302
0
0
0.269357
1.51277
0.705618
0.692545
0.949607
0.292762
0.594747
0.224297
0.366007
0.279983
0.601421
0.556194
0.742429
0.602796
0.283082
0.523038
0.539751
0.540905
0.423155
0.67148
0.663925
0
0.447197
0.503059
0.982936
0.852277
0.460644
0.509791
1.38149
0.811513
0.829418
0.459755
0
0.388638
0
0.734682
0.317584
0
1.17747
0.654264
0.497243
0
0
0
0
0.793215
0.482781
0.289882
0.375739
0.603271
0.616828
0.620156
1.32677
0.772463
0.782395
0.982471
0.666701
0.740191
0.473895
0.350262
0.53488
0
0.656695
0
0.647049
0
0.293494
0
0.194638
0.436619
0
0.439793
0.549446
0.765335
0.158721
0.933648
0.907557
0.746905
0.457963
0.647687
0
0.226601
0
0
0
0
0
0
0
0.201916
0.414921
0
0.703323
0.717868
0.748079
0.551938
0.472564
1.65782
0
0.558516
0.626425
0
0
0.250978
0.392811
0.688657
0.725456
0
0.541436
0.504027
0
0.292123
0.295076
0.214175
0.62811
0.395167
0.81642
0
1.0874
1.42509
0.555446
0
0
0
0.510853
0.516217
0.301886
0.630215
0.401044
0.519056
1.04989
0
0.81077
1.08837
0
0
0.904577
0.537769
1.11461
1.13802
0.824129
0.500417
0.512158
0.0651585
0.430952
0
0.529502
0.77869
0.849583
0
0
0
0.62236
0
0.632385
0.558954
0
0
0
0.900004
0.215195
0.310072
0.728952
0.965867
0.262178
0.383727
0.951008
0.65357
0.737902
1.20449
0.961601
0
0.752562
0.641788
0.298688
0.199461
0.449707
0.636879
0.647654
1.26297
0.727791
0.547858
0
1.18094
0.925207
0
0.348581
0.758164
0.583447
0
1.66741
0.733786
0
0
0.462664
0
0
0
0.510951
0.853665
0.450468
0.591995
0
0.393581
0
0
0
0
0.519453
0
0.167153
0
1.26088
0
0.681676
0.564929
0.569356
0.719007
0.530601
0.348154
0
0.576364
0.832801
0.576454
0
0.506814
0.677555
0.772721
0
0.549255
0
0.499477
0.128528
0.683893
0.936124
0.564022
0.413101
0.700804
0.793121
0.618442
0.474123
0.42546
0.133124
0.312961
1.45897
2.04612
1.30081
0.196259
0
0.348767
0.767732
0.396156
0.482205
0.476664
1.10771
1.37228
0
0.507514
0
0.381884
0
0
0.297409
1.3792
0.322588
0.527021
0.642945
0.817154
0
0.703422
0.343942
0.487134
0
0.78146
0.22354
0
0.896322
0.67495
0.51127
0.657739
0.664711
0
1.18374
0.898397
0
0.358906
1.08717
0.958046
0
0.752832
0.313888
0.65752
0.655582
0
0.721443
0
0.518732
0.431243
0.420664
0
0.849555
2.13383
0.757796
0
0.643748
0.763031
0.692579
0.506991
0.507079
0.950924
0.963727
0
0.567649
0.767654
0.567779
0.771131
0.482119
0
0.655021
0.414012
0.362964
0
1.04193
0.601664
0.609366
1.16127
1.36594
0.747771
0.52339
0.501407
2.19176
0.787476
0.512334
0.900291
0.298253
0.354658
0.93446
0.214006
0
0
0.680257
0.368344
0.42316
1.02002
0
0.440461
0
0
0.703837
0.35399
0.840197
0.432554
0.55255
0
0.479529
0.423342
0.621342
0
0.568059
0
0.228467
0.71552
0.647619
1.34028
0.463296
0
0.250276
0.770296
0
0
0.490484
0.487184
0
0
0
0.454744
0.488345
0.290838
0
0.612026
0.341475
0.381695
0
1.0007
0.503598
0
0
0
0.634695
0.34923
0.373094
0.404846
0
0.543962
1.12305
0.615548
0
0.454994
0.376725
0.612458
0.203577
0
0.2443
0.0891579
0.704993
0.251382
0.662471
0.463806
0.591296
0.718751
0.55759
0
0.718551
0
0
0.943734
0.847853
0.148201
0.389915
0
0.361541
0.610169
0
0.742223
0.242381
0.904472
0
0.570376
0.428029
0.526222
0.441198
0.471981
0.693735
0.431381
0.37177
0.440208
0.777788
0.339422
0
0.492265
0
0.51099
0
0
0.466884
0.333559
0.530343
0.641719
1.60318
0.412313
0.442344
0.662531
0.329607
0.940827
0.73072
0.300183
0
0
0
0.526917
2.08945
0.516725
0.774568
1.06071
0.318483
0
0.27645
0.743096
0.423602
0.912049
0.637442
0.415196
0.921053
0.389932
0.827503
0.0392774
0.277586
0
0.334915
0.861799
0
0
0.358302
0.331582
0.946123
0.591673
0.851212
0.797522
0.815467
0.558431
0.735431
0.427593
0
0.301884
0
0.362859
0.204127
0.269518
0.75027
0.735679
0
0
0.610453
0
0.463228
0.567665
0.338741
0
0.427107
0.438864
0.924185
0.527179
0.30071
0.680036
0.194729
0
0.612743
0.538837
0.526197
1.13491
0.551072
0
1.12312
0
0.474447
0.73637
0.62727
0.548023
0.282417
0.328992
0
0.743075
0
0.682257
0.673369
0.635755
0.61057
0.641459
0.366778
0
0
1.38841
0.503537
1.02306
0
0.5785
0.514024
0.316872
0.888876
0
0.195466
0
0
0.680811
0
0
0
0.271545
2.11001
0
0
0.487251
0.363612
0.385651
0.359558
0
0.512447
0.555473
0.705539
1.09868
0
1.69286
0.566262
0.805491
0.738287
0.414523
0.658011
0.682935
0
0.52931
0
0.35399
0.388573
0.79978
0
0.403733
0
0.703803
0
0.775771
0.422324
0.489942
0.233808
0.649531
0.369522
0.441971
0.358461
0.288744
0.249077
0
0.426805
0
0.433607
0.698744
0.52539
1.4065
0
0
2.16536
0.417323
0.499737
0.396812
0.487132
0
0.232547
0.668127
0.603314
0.607374
0.407276
0.768414
0.432313
0.28506
0.17155
0.795706
0.259063
0
0
0.340743
0
0.758345
2.56703
1.36173
0.571567
0
0.739741
0.71485
0.459523
0.30583
0.799087
1.01999
0.574848
0.404234
0.532232
0.366998
0.566634
0
0
0
0
0
0
0
0
0
0
0
0
0
0
0
0
0
0
0
0
0
0
0
0
0
0
0
0
0
0
0
0
0
0
0
0
0
0
0
0
0
0
0
0
0
0
0
0
0
0
0
0
0
0
0
0
0
0
0
0
0
0
0
0
0.303101
0.567124
0
0.452221
0.570783
0
0.339902
1.15891
0.433949
0.575824
0
0.46567
0.376219
0
0.493809
0.614472
0.226795
0.710761
0.363703
0.479494
0.48859
0.198037
0.524461
1.58066
0.450494
0.483227
0
0.642475
0.457427
0
0.625913
1.04726
0.302072
0.265506
0
1.03221
0.587061
0.597734
0.611037
0.608407
0.247194
0
0
0.2427
1.02497
0
0.214058
0.645523
1.13181
0.22772
1.23952
1.67735
0.538108
0.904237
0.992647
0.447972
0.199194
1.03148
0
0.415254
0.784273
0
0.884937
0.806825
0.809062
0.796007
0.952449
0.462955
0.573009
0
1.24223
0.534997
0.555218
0.791339
0.542221
0
0.602924
0.904226
1.27768
0.971409
0.954572
0.928496
1.19025
1.76061
1.50317
0.945554
0.934746
2.25563
0.444962
0.602602
0.731914
1.18878
0.65762
0
0.494054
0.809739
0.654842
0.417714
0.329224
2.03586
0.779947
0.778175
0.8044
0.677694
1.15442
0.706126
0
0.47531
0.89054
0
0
0.361935
0.75818
0
0.570708
1.03407
0
0.429171
0.363008
0.549329
0.870283
0
0.71627
0.562335
0.418425
1.36316
0.442058
0.673254
0.520379
0
0.511617
0
0
0.58942
2.69971
0.432741
0.94905
0.725083
0.970108
0.69992
1.2808
0.398734
0.671021
0
0.587048
0.114257
0.59088
1.19
1.34437
0.791345
0.276417
0.760839
0.640296
0.460462
0