<?xml version="1.0"?>
<VTKFile type="RectilinearGrid">
<RectilinearGrid WholeExtent="0 32 0 32 0 32" Origin="0 0 0" Spacing="1 1 1">
<Piece Extent="0 32 0 32 0 32">
<PointData>
</PointData>
<Coordinates>
<DataArray type="Float32" format="ascii">
0 0.524874 1.04975 1.57462 2.0995 2.62437 3.14924 3.67412 4.19899 4.72386 5.24874 5.77361 6.29849 6.82336 7.34823 7.87311 8.39798 8.92285 9.44773 9.9726 10.4975 11.0224 11.5472 12.0721 12.597 13.1218 13.6467 14.1716 14.6965 15.2213 15.7462 16.2711 16.796 
</DataArray>
<DataArray type="Float32" format="ascii">
-5.03879 -3.62163 -2.20447 -0.787311 0.629849 2.04701 3.46417 4.88133 6.29849 7.71565 9.1328 10.55 11.9671 13.3843 14.8014 16.2186 17.6358 19.0529 20.4701 21.8872 23.3044 24.7216 26.1387 27.5559 28.973 30.3902 31.8074 33.2245 34.6417 36.0588 37.476 38.8931 40.3103 
</DataArray>
<DataArray type="Float32" format="ascii">
0 0.524874 1.04975 1.57462 2.0995 2.62437 3.14924 3.67412 4.19899 4.72386 5.24874 5.77361 6.29849 6.82336 7.34823 7.87311 8.39798 8.92285 9.44773 9.9726 10.4975 11.0224 11.5472 12.0721 12.597 13.1218 13.6467 14.1716 14.6965 15.2213 15.7462 16.2711 16.796 
</DataArray>
</Coordinates>
<CellData>
<DataArray type="Float32" Name="Scalar" format="ascii">
0
0
0
0
0
0
0
0
0
0
0
0
0
0
0
0
0
0
0
0
0
0
0
0
0
0
0
0
0
0
0
0
0
0
0
0
0
0
0
0
0
0
0
0
0
0
0
0
0
0
0
0
0
0
0
0
0
0
0
0
0
0
0
0
0.167619
0.305852
0
0.242998
0.41837
1.70973
0.358465
1.76594
0.340792
0.25203
0.723646
0.394243
0.318824
0.793632
0.380924
0.952666
0.150755
0.29428
0
0.25139
0.164994
0
0.531438
0.411521
0.13011
0.287761
0.921385
0.454851
0.26002
0
0.367593
1.51388
0.188056
1.48363
0
0.174766
0.88188
0
0.447757
1.53111
2.04649
0.0991718
0
0
0.127868
0
1.52133
1.26601
0.314505
0.740599
0
0.274877
0.804203
0
0.262913
0.920443
0.821124
0.401108
0
1.45194
0.324934
0
0.603603
1.05077
0.978241
0.635829
0
0.553891
0.995897
0.348404
0.833802
0.540192
0
1.28154
1.01404
0.757777
0
0
0.517682
0.667852
0.377154
0.602947
0
0.780902
0.579041
0.909167
0.813747
0.709837
1.24607
1.6596
2.50984
0.998623
0.440197
0.558398
0.905622
1.3066
1.35604
0
1.0118
1.22145
0.408321
1.99354
0.387236
0.929222
0
0.622614
1.09283
0.705356
0
0
0.812153
0.746027
0
0.675823
0.685922
0
0
0.475975
0
0.671842
0.565044
0.848673
1.85402
0.912246
0
0
0
1.78497
0.673909
1.10937
0.575354
0.651127
0.771614
0.374459
1.38949
0.490699
0.643168
0.342526
1.25712
0
0.699378
1.1603
0.42
0.666265
0.886416
1.24809
0.281246
0.85452
0.533656
0.896485
0
0.632133
0
0.954961
0.858523
0.431736
1.07196
0.745708
1.05158
0.398357
0
0.696584
0.609967
0
0.610662
0
0.441894
1.22141
0
0.534562
0.275248
0.623208
1.16634
0.695776
1.41016
0.471922
0
0.364158
0
0.953988
0.993657
1.2665
0.309202
0
0
0
0.34365
0
0.22961
0.624165
0
1.02261
0.558153
0.566446
0.494238
0.441608
0.652436
0.136187
1.3393
0.483454
0
0.595817
1.44194
0
2.20581
2.12509
0
0
1.03269
0.703211
0.283154
0.620509
0.651777
0.718627
0.629712
2.1404
0
0.792977
0.544867
0.606751
0.278884
0.669249
1.2511
0.0904404
0
0.261701
0.709213
0.707885
0
0.423424
0
0
0
0.839625
0.852969
0.679624
0
0.67476
0
0
0.714066
0.681729
0.560904
0.867932
0
0.685809
0
0
0
3.24921
0.555346
0.507079
0
0
0.490737
0.213537
0.350902
1.06689
0
0.705289
0
0.900536
0
0.398425
0.612955
0.520289
0
0.652404
0
0.710694
0.351169
0.773876
0.630023
1.05826
0.762133
0.447673
0.246394
0.371433
1.14024
0.70769
0.65023
3.05853
1.24824
1.65768
0
0
1.11755
0.295718
1.8358
0.727203
0.298159
2.25596
0.742624
0
0.431295
0.731431
0.514932
0.724748
1.10201
0.484336
0.782561
0.626504
1.12391
0.678736
0.37017
0
0.451925
0.355658
1.64132
0.534215
0
0
0.436547
0.192515
0.692302
0.280015
0.423074
0.303855
0.643484
1.02063
0.300816
0.486094
0
1.6047
0.882331
0.932949
0.480605
0.460132
0.743219
1.06752
0
1.0783
0
0
0
0.537687
0
0.486036
0.38644
0.822441
0
0.47757
1.61831
0
0.984214
0
0.479706
1.37935
0.838275
0.368197
0
0.939779
0
2.20338
0
0.546774
0.508124
0.73769
2.13752
0.702755
0.545616
0.381411
0
0.671069
0
0.794521
1.12249
0.425884
0.604041
1.14948
0.660026
0
0.781316
0
1.32597
0.930124
0.56471
0.157028
0.95655
0.894903
0.600698
0.38059
0.445116
0.789815
0.431387
0
0.544381
0
0.998431
0.670227
0
0.155639
0.35095
0.572413
0.414479
0.580615
1.11275
0.628823
0
0.674092
0
0
0.779362
0
0.331469
0.510622
0.413476
1.09495
0
0
0.751991
0.348619
0.841039
0.820854
1.02141
0
0.478943
0.561083
0.331346
0.503746
0.605406
0
0.8025
1.33051
0.620485
0.622729
0
0.359259
0.340409
0.960898
0
0.773084
0.377189
0.433458
0
0.664389
0
0.794208
0.631124
0.445544
0.71679
0.723029
0.592568
0
1.4087
0.547386
0
0.701885
0.486558
0.326344
0.352166
0.633408
0.542116
0.409844
0.213036
0.129931
0.346424
0.560254
0
0
0
0
0.452961
0
0.421571
0.748397
0.502753
1.42464
0
1.17736
0.492196
0.49334
0.442872
0.368882
0.64738
0.461095
0
1.00486
1.07358
1.116
0.360934
0.576626
0
0
0.666702
0
0.803303
0
0.333193
0.834942
0.528965
0
0.46008
0.451933
0
0.883836
0
0.632809
0.420705
0.382888
0
0
0.582841
0.850318
0.50378
0
0.793909
1.21153
1.4326
1.23338
1.15959
1.64833
0.950325
0
0.473987
0
0.369272
0.562738
0
0.998997
0
0.563457
0.604485
0.57048
1.18197
0.425165
0.872099
0.658099
0
0.550922
0
0.794314
0
0.311034
0.48162
0.448079
0.738999
0.646175
0.681968
1.38807
1.28155
0.711002
0.633551
1.10005
0.666818
0
1.4986
0.589452
0
0.661586
0.817507
0.787731
0.558327
0.76906
0
0.650657
0.351538
0.611368
0.437095
0.823102
0.499635
0
0.200585
0.906461
0.561746
0.369825
2.51508
0.521939
0
1.25097
0.103808
0.840301
0.986765
0.457781
0
0
0.583748
1.38557
1.33325
0.63383
0.476642
0.45224
0
0.467206
1.48182
0
0.401959
0.257394
0.586223
0
0.755565
0
0
0.667138
0.604297
0.833104
0.606492
0.407429
0
0.152778
0.382769
0.587796
0
0.633514
0
1.05749
0.651627
0.47587
0
0.756756
0
0.667545
0
0.725431
0.587142
0.759617
0
0.736028
0.538153
0.391872
0.320796
0.502152
1.26837
0.704429
0.711997
0.439968
0.748263
0.963939
0.580319
0.226815
0.469721
0.457104
0.797118
0.699358
0
0
0.651666
0.438043
1.27877
0.763423
0.752579
0.708886
0.646211
0.639694
0
0.833652
0
1.3608
0
0
0
0
0.627506
0
0
0
0.560672
0.546399
0.79508
0
0.797691
0.553068
0.620457
0.939344
0.17751
0.72717
0.639897
0.578777
0
0.587637
0.387854
0.748812
0.360163
0
0.610468
0.20358
0.548661
0
0.418858
0
0.378125
0.157266
0.990598
0
0
0.446382
0.623643
0
0
1.16055
0.6194
0
0.413547
0
0.690513
0
0.551931
0
0.587884
0
0.307434
0
0.402049
0.758455
0.18179
0.854442
0.207492
0.212467
0
0.491004
0
1.2126
0.578399
0
0
0.355457
0
1.10238
0.603527
0.888544
1.03715
0.177865
0.43171
0
0
0.78871
0.635559
0.80478
0.383452
0.551844
0
0.349716
0
0
0.429577
0
0.6637
0.931429
0.36973
0.634992
0.269474
1.19656
0.69613
0.345009
0.383011
0
0.592477
0.428455
0.392467
0
0
1.03169
0
0.721162
0
0.592381
0
0.683572
0.837741
0.840978
0.61478
0.152803
0.788311
0
0.650417
0
0.723378
0
0.377246
0
0.399174
1.03349
0.602521
0.442497
0.870988
0
0.630886
0
0.576452
0
0.949526
0.581092
1.23457
2.39966
0.889414
0.470147
0.299442
0.644652
0
0.334538
0.638505
0
1.8145
1.39488
1.6219
0.909438
0.511431
0
0.73009
0.674989
0
0.683204
0.936847
0.409952
0.676938
0.38866
0.753181
0.733929
0.613149
1.58085
0.74027
2.16087
0
0.422654
0
0.613891
0.119888
0
0
0.763302
0.301715
0.715213
0.641763
0
0
0.799183
0
1.06338
0.904522
0.340727
0
0.757346
0
0.444558
0.473919
0
0.370719
0.813942
0.709142
1.05746
0.542735
1.37569
1.01907
0.486817
0
0.939546
0
0.594178
0
0.185319
0.423645
0.3211
0.483444
0.563961
0.409786
0.304541
0
0
0
1.37953
0.698461
0.946022
0.543117
0
0.201603
0.789284
1.12408
0.660625
1.32234
0.668989
0.559054
0
0.553034
0.523024
0
0.462044
0
0.509465
0
0.523779
0
0
0.325039
0.460606
0
0.542063
0.428328
0
0.400069
0.755613
2.06367
1.12902
0.546811
1.36433
0.759421
0
0.656111
0
0.504363
0
0.627894
0.922968
0.69276
0.787505
0.586932
0
0.90242
0
0
0.741144
0.789962
0.608553
0
1.06142
0.641021
0.317377
0
0.193975
0.0709222
0.711137
0.634265
0
0.782484
0.532394
0.661098
1.11824
0.469814
0.933222
0.32652
1.16481
0.519704
0.856295
0.74538
0.60591
0.269218
0.38863
0.771972
0
0.802521
0.324697
0
0.798286
1.80302
0
0.959976
0.76821
1.01834
2.82122
0.644983
1.49261
0.937201
0.925832
0.65875
0
0.478636
0.931115
1.04109
2.04362
0.250982
0.53773
0
0
0
0
0
0
0
0
0
0
0
0
0
0
0
0
0
0
0
0
0
0
0
0
0
0
0
0
0
0
0
0
0
0
0
0
0
0
0
0
0
0
0
0
0
0
0
0
0
0
0
0
0
0
0
0
0
0
0
0
0
0
0
0
0.353526
0.353313
0
0.346717
0.478438
1.85241
0.437992
0.881168
0.296404
0.471217
0
0.766449
0.238801
0
0.640851
1.04415
0.277452
0.475128
0.558565
0.428956
0.406811
0
0.56528
1.07628
0.407915
0.369181
0
0.675225
0.470789
0
0.738744
0.689311
1.88501
0.278871
0
0.358606
0.255909
0
0.701554
0.920796
0.343716
1.6729
0
0.1366
1.12197
0
0.235321
0
0
0.564319
0
1.05034
0.0942577
0
0.717645
1.34816
0.466461
1.56906
0
0.313439
0.809242
0
0.462261
1.08431
1.77711
0.335944
0.904868
0.583247
1.37723
1.25371
0.715283
0.707149
0.552893
0.623901
0.656859
0
0.626064
0.972465
0.862065
0.41773
0.600077
0.683409
0
0.700532
0.572012
0
0.541727
1.15724
1.03153
0.784842
0.423521
0
0.774535
0
0.729175
2.66613
0.78377
1.3895
1.57967
0.629493
0
1.44672
0
0.610864
0.451986
0
0.878769
0.817769
0.334226
0.465861
0
0
0.674203
0
0.649836
2.18626
0.657354
0
0.344035
0.464595
0.196639
0
0
0.458999
0
0.479924
0.263317
0
0
0.548255
0.580628
0
0.840393
0
0.652382
1.5776
0.900206
0.268814
0
0
0.921052
1.21488
0
0.713953
0.838558
0.501484
0.605436
0.733106
1.47554
0.875398
0.522236
0
0.518829
0.589546
0.501522
0.626339
1.02751
0.948136
0.395468
0.498016
0
0.768598
0
0.870089
0
1.11967
0
0.797266
0.608281
1.0217
0.360677
0.668757
0.996223
0.785308
0
0.746312
0.45339
0.366598
0.599423
0
0.654383
0.703958
1.04416
0.250956
0.6181
0.771753
0.77649
0.728145
0
0.985512
0
0.619807
0
0.665596
0
0.32869
0
0
0
0.539773
0.767142
0.913312
0
0.884865
0
0.648633
0
0.645138
0
0
1.23094
1.54994
0.481802
0.622712
0.842176
0.933835
0.626423
0.614796
0.815672
0
0.206404
0.830429
0
0.527093
0.765478
0.245129
0.369018
0.871769
0
0
0.593625
1.65905
1.04314
0
0.430171
0.540248
0
0
0.318758
0.621726
0
0.670472
0.64115
0.332123
0.987043
0.347464
0.7561
0.561443
0.607175
0.772872
0.662471
0.251559
0.421254
0.539233
0
0.434
0.760765
1.10716
0.765785
0.609008
0.338232
1.09334
0.679423
0.225159
0.678492
0.540744
0
0
0.853967
1.06468
0
0.593521
1.00723
0.797059
1.53564
1.31847
0.64586
0.989215
1.14094
2.15487
0
0.533491
0.639528
0.609461
0.719719
0.405177
0.600623
1.12208
0.746924
0.617591
0
0
0.756746
0.798654
0.807486
0.634477
0.69837
0.732559
0.9612
0
0.214095
0
0.907456
0.740696
1.28561
0.521132
0
0.474353
0.378576
0
0.536183
0.289171
0
0.745222
0.187463
0.539813
1.01361
0.470189
0.537806
0.631551
0
0.417696
0.217994
0.836542
0.457998
1.13769
1.03794
0.558414
0.724652
0.70103
1.1061
0.609335
0.931053
1.24961
0
0
0.595188
0.601313
0.366728
0.510537
0.501104
0
0.341374
0.416357
0.553254
0
0
0
0.297106
0.280895
0.715892
0.857096
0
0.788625
0.30302
0.922954
0.515101
0.710134
0.687885
0.382935
0.350958
0.568311
0.50469
0.976273
1.16145
0
0.418707
1.23205
0
0.8262
0.760412
0
0.792177
0
0.872327
0
0.589893
0
1.70113
1.29954
0.874038
1.74535
0
0.725581
0
0.948064
1.23777
0.608935
0.917135
0.784983
1.1687
0.442709
0.5887
0
0
0.407478
1.01758
0.72199
0.48316
0
0.386482
0.363851
1.01312
0.285056
0.563293
0
0.293776
0
0.624173
0
0.595863
1.79121
0
0.8425
1.07642
0.798051
0
0.347261
0.594896
0.866516
0.760302
0.89729
0.358394
0.498065
0.468571
0.915764
0.513492
0
0
0.631603
0.521933
0.788353
0
0.602173
1.66595
0
0
0.70431
0
0.775366
0.804857
0.50474
0
0.62203
1.32225
0.81365
0
0.404654
0
0.8794
0.715905
0
0.354701
0.584814
0.306247
1.23054
0.232207
0.683165
0.418045
0.656566
1.28171
0.801698
0.588839
0
0
0.914327
0
0.296371
0
1.33069
0.550988
0.327602
0.66006
0.96902
0
0.811489
2.00326
0.874319
0
0
0.292285
0.704617
0.509716
0.208679
0.644579
0.467986
0
0.620962
0
0.402965
0.625345
1.19796
0.16985
0.561955
0
0.682348
0.219606
0.874668
0.659297
0.329083
0.544282
0.948033
0.725277
0
0
0
0.776282
1.12468
0.424339
0.589243
0
0.564783
0.520346
0.359107
0
0.536512
0.59823
0
0
0.760125
1.01269
0.892512
0
0
0.336164
0
0.453966
1.17219
0
1.08724
0.518697
1.90064
1.21653
0.415113
0.576946
0
0.746209
0
0.565518
0.91511
0
0
0.897577
1.13313
0.356185
0
0.687538
2.18797
0.762832
0
0.622793
0.781976
0.53956
0.315156
0.313496
0.415272
0.964945
0.556987
0.45263
0
0.759561
0.762245
0.579043
0
0.38532
0.343134
1.45115
1.06779
0.97359
1.15728
0.222204
2.23492
0.559378
0.331276
0.730252
0.27951
0.705986
0.658899
1.79538
0
0
0
0.11298
0
0.612441
1.10337
1.12419
0.680963
0.510869
0.684973
1.05138
0.289511
0.32633
0
0.238441
0
0
0
0
0.74935
0.960392
0.67707
0.582775
0.60254
0.447447
0.131793
0.939619
0
0.291333
0.13158
0.906801
1.52017
0.277206
0.488484
0.185339
0.910217
1.04826
0.715085
0.96474
0.648198
0.904889
0.6335
0.737795
0.530797
0.836524
0
0
1.16093
0.597541
0
0
0.761633
0.778266
0.897953
0.721814
1.95456
1.08973
0.494231
0.749608
0
0.464749
0.507179
0
0
0.218611
0.217221
0.955527
0.691161
0.467336
0.313951
0.397415
0
0.942807
0
0.746786
0.413277
1.21894
0.434281
0.752964
0.818233
0.835574
0
0.617285
0
0.560284
0.396572
0
1.18107
0.862796
0.979358
1.3275
0.47446
0.0435696
0.414043
0.252597
0.439525
0.693811
0
0.395129
0
0.356864
0
0.589229
0.371723
0.475672
0.241958
0
0.99841
0.662635
0
1.97736
1.31883
0.458395
0
0.206216
0
0.414599
0
0
0.829317
0.438715
0
0
0.850803
0.852797
0.875788
0.598416
0.513535
0.719216
0
0.600233
0
1.05733
0
0.390666
2.33556
0.271968
0.996624
0.530717
0.6991
0.797623
0.599865
1.01099
0.490629
0.390982
0
0
0.943201
0
1.22029
0.787544
0.654135
0
0.47001
0
0.817525
0.845846
0
0
0
0
0.576862
0.617229
0.871885
0.562087
0
0.383286
0.286056
0.962589
0.666321
0.783526
0.745322
0.759231
0
0
1.28082
0.206271
0.93111
0.779464
0.839456
0.839729
1.15931
1.45846
0
0
1.09557
0.219853
0.829957
1.29559
1.10111
0
0
0.449355
0
0.513911
0
0.58679
1.19067
0.592847
0.692669
0.629879
1.28666
0.589788
0
0.871532
0.175029
0.509407
0.6216
0.595711
1.00537
0
0.920946
1.14236
1.00382
1.5145
0.947882
0
0.281976
0
0
0.54826
0.735277
0.942841
0.358997
0.503485
0.545018
0
0
0.371252
0
0
1.40784
0.615514
0
0.451449
0.703832
0.383397
0.520651
0.28719
0.620677
0
0.444097
0
0.477394
0
0
0.488834
0.598168
1.00286
0.394407
0.40356
0.500832
0.435322
1.01357
0.547817
0.340212
0.593445
0.107259
0
0
0.969069
0
1.06394
1.91745
0.432105
0.837359
0.445664
0.273678
0.498358
0.216029
0.354608
0.192412
1.45017
0.676833
0.528255
0
0.942661
0.356264
0.523359
0
0.773032
0.688586
0.55602
1.1842
0.59702
0
0.576034
0.573199
0
0
0
0.705755
0.974743
0.439161
0.289508
0.674446
0.741974
1.00764
0
0.506692
0
0.984415
0
0
0.607691
0.730069
0.732298
0.807442
0
0
0.626595
0
0.208333
0.880207
0.54776
0.578077
0.982866
0.579074
0.859459
0
0
0
0.442201
0
0.894101
0.337608
0.766384
0.62718
0.700486
0.643168
0.327354
0
0
0.936287
0
0
0
0.418217
0
0
0.502465
0
0.685489
0
0.614172
0.772898
0.616168
1.35477
0.693647
0.521207
0.337699
0.344177
0.768161
0.493057
0.524711
0.405021
0.265918
0.553207
0.60757
0.98503
0.618327
0.65078
0.767568
0.488523
0.113835
0.412011
0.713916
0.719424
0.739657
0
0.769135
0
0.346931
0.455375
0.53248
0.592506
0.421619
0.471804
0.636261
0.406565
0
0
0
0
0
0
0
0
0
0
0
0
0
0
0
0
0
0
0
0
0
0
0
0
0
0
0
0
0
0
0
0
0
0
0
0
0
0
0
0
0
0
0
0
0
0
0
0
0
0
0
0
0
0
0
0
0
0
0
0
0
0
0
0
0.752505
2.03515
0
1.11764
0
0
0
0
0
0
0
0
0.550929
0
0
0.957514
1.40233
0
0
0
0
0
0
0.252742
1.04159
0.846691
0
0.986115
0
0
0
0
0
0
0
0
0
0
0
0
0
0
0
0
0.369553
0
0
0
0
0
0
0
0
0
0
0
0
0
0
0
0
0
0
0
1.10821
1.53152
0.913529
0.336751
0.650738
1.06942
0
0
0.343255
0
0.910448
1.01574
0.736381
0
0
0.895363
0.838524
0.564051
0
0.305495
0.440047
0
0.624166
0.600219
0
0
0.73603
0.560073
1.52799
0.957236
0.357965
1.15449
0.511604
0
0.977944
0.878337
0
0.591689
0.453455
0.777496
0
0.572285
0
0.805322
0
0
0.693519
1.13093
1.0515
0
0.689846
0.832816
0.72437
0
0.669529
0.508149
0.525127
0.366277
0.456619
0
0.42487
0
0.482847
0.832233
0.426824
0.506491
0.627809
0.819798
0.645595
0
0.45157
0
1.38507
0.942817
0.843291
0.383573
0.653795
0.518351
0.671931
0.705749
0.906357
0.528911
0.4307
0.916177
0
0.58485
0.295922
0.37103
1.06529
0.148268
0
0
0.455996
0.420061
0.702422
1.63806
1.57563
0.861726
0.451795
0
0.436561
1.22089
0.392224
0.87747
1.22226
0.324987
1.23639
1.25653
0.953971
0.240122
0.421777
0.546233
0.460904
0.735437
1.24809
0.158018
0.155046
0
1.31746
0.609929
0
0
1.24677
0
0.695383
1.21574
0
0.580695
0.385842
1.32092
0.902854
0.994151
0.593137
0.786116
0.595665
1.03979
0.481608
0.894023
1.63574
0
0.343454
0
0.571239
0
0.689772
0.808009
1.84705
0.31393
0.892241
0.330164
0.157339
1.42698
0.499353
0
0.229963
0.889223
0.960639
0.760844
1.24789
0.661972
0.820269
0.172543
0.760089
0.602935
0.672303
1.6697
0.467128
1.53607
0.750304
0.680374
1.37366
0
0.482943
0.615595
0.914328
0.628415
0.972286
0.852362
1.07079
0.573906
0.617881
0.26357
0.377747
0
0.355775
1.63507
0.673011
0.781802
0.850526
0.51759
0.629548
0
0.0796145
0.517816
0.0784987
0.72225
0.541148
0.588974
0.483819
0
0
0
0.712604
0
0.636156
0
0.651491
0
0.256899
0
0.980529
0.433182
0
0.490528
0
0.7396
1.07776
0.329862
0
0
0
0.584931
0
1.66869
0.421267
0.330863
0.41855
0.534834
0.730179
0
0.484828
0
0.999486
0
0
0
0.40267
0.888921
1.0493
0.707746
0.320707
0
0
0.784084
0
2.04501
0.651524
0
0.453704
0.952487
0.507764
0
0.511151
0.431524
0
0.888212
0.691834
0.57268
1.30558
0.699912
0.687466
1.02549
0.796233
1.0838
1.70077
0.585378
0.330474
0.947623
2.12647
0.248765
0.507609
0.911209
0.822698
0
0.705121
0
0.555163
1.21902
0.459914
0
0
0.373128
0.811831
0.394482
0.72902
1.42447
0.471289
0.391908
0.505844
0
0.561984
0
0.870205
1.391
1.25703
0.982986
0.772794
0
0
0
0.998441
0.517298
0.654034
0.707749
0.715824
0
0.931755
0.222684
0.465988
0.725074
0.334839
0.834845
0.643787
0
0.540554
0.938761
0
0.403974
1.79565
1.08504
0.712269
0
0.41733
0
0
0.711296
0
1.32834
0.301279
0.749377
0.270822
0.508749
0.110194
0.418691
0.611422
0.18017
0
0
0.69544
1.32429
0.287499
0
0
1.13431
1.22028
0
0
0.741106
0.372674
0.919181
0.313373
0.556371
1.57577
0.828405
0.552713
0.682075
0.754318
0.565316
1.12579
0.808196
0.784836
0.61282
0.639796
0
0.219545
0
0
0
0.953513
0.912167
0
0.640631
0.406708
0.334428
0.66362
0.337839
0
0.48238
0
0
0.692754
0.836831
0
0.775118
0.711758
0.657433
0.948306
0.54987
0
0
0
0
0
0
0.900653
0
0.314847
0.751473
0.599729
1.01784
0.649907
0
0.611904
0.416517
0
0
0.103266
0.271449
0
0.228818
2.13214
0.88288
0.493451
0.884163
0.377085
0
1.24253
1.00654
1.34328
0
0
0.935855
0.497682
0.307968
0
0.53737
0.679387
3.03111
1.05351
0
0.718821
0.495308
0.934235
0.212124
0
0.594493
1.13745
0.316984
0.890916
0.710583
0.443185
0.379505
0.467202
0.641956
0.858355
0.724062
0
0.443838
0.301564
0.379241
0.271321
0.322047
0.107044
0.527784
0
0.560936
0.745939
1.65617
0.604274
0.880959
0.749571
0
0.829928
0.643414
0.565665
0.283364
0.315804
0
0.76245
0
0.677754
1.34935
0
0.838961
1.25588
0
0.782487
0.318389
0.967075
0.815941
0.911505
0
0.29779
0.672623
0.397796
0
0.840534
0.539356
0.1594
0.419284
0.955808
1.31681
0.761614
0.341329
0.459376
0.676936
0.62932
0
1.17725
0
0.657682
0
1.12123
0.676415
0
0.737629
0
0
0.627391
0.501869
0.787903
0
0
0
1.07599
0.340966
0.504502
0.362528
0.97742
0.721951
1.12481
0.823839
0.824577
0
0.502388
2.66125
0.675999
0.21375
0
0.398205
0.641522
0.622346
0.659952
0.81525
0.450848
0.460372
0.600867
0.614137
1.13201
0.3405
0.951714
1.01255
0.808557
0.728681
0.551322
0.679493
0.616914
0.439096
0.469621
0.538176
0
0.631224
0.683918
0
1.33435
0
0.200299
0.632031
2.64677
0.910359
0.472361
0
0.714813
0.669119
0.446758
0.799241
0.70245
0.836855
0.379418
0
0.448799
0.816807
0.842519
0.563637
0.483117
1.06687
0.602283
1.52348
0.911524
0
0.535093
0
0.852677
0
0.644
0.64871
0.376314
0
0.766315
0
0.645576
0
0.684091
0
1.25491
1.73543
0.189856
0.13998
0.673249
1.16986
1.72064
0
0.399571
0.472034
0.9229
0.816247
0.407833
0.908667
0
0
0.49511
0.89594
0.458152
0
0.741606
1.31948
0.843067
0.79511
0.567217
0
0
0.880844
0.0683487
0.418527
1.14174
0.890839
0.926822
0.922398
0.710395
2.21479
1.35676
0.765018
0.274666
0.403848
0.438657
0.606199
0.817784
0.984289
0.472735
0.346324
0.779146
0
0.407735
1.06688
1.04745
0.847973
0.365088
1.03011
0.353396
0.427128
0.588959
0.798144
0.511453
0
0.239866
0.173468
0.74902
0
0.22644
0.244854
0.500532
0.645108
0.718635
1.89909
1.17801
0
0.499533
0.378335
0
0.74837
0
1.31715
0.459556
0.609234
0.562175
0.945467
1.21572
0.319183
0.718277
0.617622
0.968192
0.596976
0
0
0.337474
0
0.338365
1.26283
0.826347
0
0.729601
1.1646
0.53681
0
0
1.23639
0.840058
0.515825
0.393501
0.834017
0.679692
0.930559
0.252316
0.300405
0
1.02092
0.732432
0.687376
0.324955
0.587529
0
0.718898
0.817998
0
0.685215
0.256409
1.02348
0.909137
0.587927
0
0.498181
0
0.41604
1.08705
0.691922
0.558974
0.955046
0.748748
0
1.29827
0
2.23341
1.06428
0.884866
0.800628
1.58051
0.378076
0.492418
0
0.657657
0.411434
0.685969
0.656039
0.537294
0.573662
0.751158
0.585792
0.481959
0
1.10559
0.671507
0
0
0.37593
0.687438
0.392802
1.09363
0.979348
0.845546
0.869592
0.455262
0.899152
0.364662
0.826075
0.448423
0.796588
1.86749
0.489675
0.373996
1.40896
0
0.325191
0.955998
0.683277
1.04548
0.666534
0
0.243464
0.279582
1.30806
0
0.520572
0.324652
0
0.932506
0
0.372872
0.552247
0.688604
0
0.915335
1.68606
1.50394
0
0.206371
1.10176
1.21682
0
0.695618
0.701553
0
0.838237
0.205749
0
0.567655
1.12563
0.51283
0.533013
0.534461
0
0.510809
0.658539
0
0.564589
0.452992
0.490585
0.662515
0.460047
0.893295
0.831322
0.222507
0.694931
0
1.46396
0.631181
0
1.08418
0
0
0.751339
0.786015
0
1.71588
0.565646
0
0
0.792266
0
0.648587
0
0.894861
0
0.563704
0.71135
0.792877
0.860064
0.548998
0.707335
0
1.86972
1.47337
0.869699
0
0
0.912282
0.834213
0.667634
0.939144
1.30956
1.47513
0.345772
0.387606
0.534269
1.22292
0.547642
0.392771
0.743709
0.429062
0.434549
0.954469
0.411029
0.532861
0.456976
1.14872
0.271339
0.886552
0.17069
0.69173
0
0.935713
0.590573
0.546703
0.997228
0.396403
0.535956
0.63629
0.660606
0.541524
0.476346
0.594713
1.14529
0.794154
0.332741
0
0
1.39428
0
0
0
0
0
0
0
0
0
0
0
0
0
0
0
0
0
0
0
0
0
0
0
0
0
0
0
0
0
0
0
0
0
0
0
0
0
0
0
0
0
0
0
0
0
0
0
0
0
0
0
0
0
0
0
0
0
0
0
0
0
0
0
0
0.422291
0.50851
0
0.468231
0.636925
0
0.407164
1.04205
0.223696
0.604894
0.848982
0.377184
0.571647
0
0.418758
1.13668
0.261724
0.506413
2.06383
0.424173
0.336
0
0.624959
1.0273
0.438174
0.452041
0
0.608
0.461674
1.31014
0.533057
1.24285
0.257079
0.489767
0
0.193135
1.53494
2.62835
0.305619
0.250804
1.13158
0.507642
0
1.23818
0.619544
0.412241
0.487337
0.744815
0.203807
0.380402
0
0.224628
0.552951
0.636883
0.379113
0
0.574774
0.291227
0
1.27711
0.51392
0
1.39249
0.808216
1.35793
1.39645
0
0.787934
0.869551
1.01194
0.803222
0.549038
0.543874
0.225781
0.372887
0.730432
0.834543
1.39779
1.45228
2.68942
1.0431
1.1073
0.799293
0.324681
0.85292
0.681434
0
0.654714
1.31951
0.421302
0.536926
0.833264
0
0.754695
0.705058
0.419503
0.469574
0.722164
0.796683
0.50565
0.512871
0.938901
0.602863
0.54783
0.435177
1.10811
1.28405
2.01342
0
0.986313
0.952444
0
1.06627
0.886558
0.412978
0.956662
1.00753
0.220525
0
0.65368
0.735022
0
0.717509
0.373653
0.627271
0.920259
0.331407
0.277951
0.39515
0.418877
0.452773
0
0.501228
0
0.433716
1.16119
1.54513
0
0.547583
0.594224
0
0
0.584344
0.839691
0.604967
0
1.03747
0
0.720585
0.9271
0.504668
0.667738
0
0.692551
0.362128
0.678632
0.392773
0
0.197985
1.07363
1.28377
1.15348
0.82646
0.436525
0.408862
0
0.452932
0.593238
0
0.851438
0.442609
1.63512
0
0
0.393022
0.777766
0
0.397114
0
0.559067
0
0.94887
1.04176
0.561651
0.502132
0.804614
0.731069
0.167971
1.10288
1.19888
0.687767
0.354725
0.567481
0
0
0.392573
0.708766
0.782045
0
0.9688
0.504165
0.451646
0.420917
0.306122
0.835704
0
0.583269
0.648912
1.00468
0
1.43924
0
0.522679
0.8358
0.379234
0.297988
0.299209
0.515824
0.502564
0.657933
1.09325
1.15145
1.38184
0.684238
0.81154
1.54456
0.767805
0.923812
0
0
0.492717
0
0.609096
0.613075
1.01548
0.559165
0
0
0.372622
0.706587
0.726667
0.509523
0
0.759237
0
0.731699
0.544803
0.670325
0.48812
0.956269
0
3.11803
0.408748
0.506271
0
0
0.244843
0.287612
0
0.437565
1.04051
1.42051
0.527766
0.224726
0.366719
0.233305
0.949544
1.03225
0.705725
0
0
0
0.310733
0.6273
0.565629
0
0.422066
0
0.294576
0.246194
0
0.880812
0
0.51522
0
0.462439
0
0
0.282565
0
0
0
0.28664
0
0
0.512551
0.34844
0
0.520639
0
0
0
0.943719
0.754739
0.172068
0.466831
0
0.538191
0.396219
0.352743
1.11538
0.512507
0.770573
1.02499
1.02561
0.884353
0.352247
0.944786
0.398658
1.45926
0
0.294929
0
0.473793
1.13746
0.339673
0
0.473342
0.965629
0
0.393076
1.03437
0.872953
0.673719
0.780086
0.810616
0.533964
0.59438
0
0
0
1.02889
0.253863
0.129157
1.02065
0.400879
0
0.964745
0
0.501099
0.324535
0.120684
2.47506
0.87636
0.885016
0
0.690136
0.753365
0.436453
0.276768
0.326674
0.80098
0.778858
0.600779
0
0
0
0.854352
1.07261
0
0.870396
0.807131
1.37137
0.61255
0.488571
0.462094
0.809936
0.623881
0
0.562147
0
0.0919565
0.832997
1.8981
0
0
0.638698
0
0.48099
0
0.540413
0
0.343869
0.670529
0.297441
0
0.470602
0.626705
0
1.27017
0.708601
0
0.892818
0
0.389144
0
0.544189
0.837787
0.46412
0.442264
0
0.53273
0.635269
0.568399
0.687297
0.492712
0.489103
0.857036
1.20776
0.344161
0.92111
0.387292
0.223511
0.592608
0.791876
0
0.640457
0.387965
0
0.250071
0.375465
0
1.02438
2.39713
0.514841
0
0.408897
0
1.13186
0.550091
0.595545
1.38743
0.842317
0.727602
0
0.76645
0.720077
0
0
0.487239
0.703532
0
0.662896
0.30939
0.336595
0.551483
0.69615
0.39105
0.305199
0.494609
0.578375
0.47809
0
0
0
0.563797
0.236104
0.418839
0.191009
0.579627
0.870191
0.437704
0.263269
0.527787
0.296324
1.02654
0.550097
0.550458
0.471633
0.624361
0
0.7207
0.605095
0.545387
0
0.1611
0
0.648248
0.556308
0.327529
1.22134
0.368824
0.937886
3.47426
2.18334
0
0.38847
0
0.468189
0.2707
0
0.402893
0.47344
0.382598
0
1.0602
0.467298
0.53462
0
0
0.503253
0.252755
0.587702
0
0
0.321001
0.278146
0
0
0.19249
0.988644
0.57572
0
0
0
0.392268
1.02174
0
0.491801
0
0.407797
0.597897
0
0.709451
0.454957
1.04564
0.743019
1.05453
0.62324
0
0.339441
0.633369
0.933594
0.471985
1.09778
0.789695
0
0.261473
0.182674
0.296208
0.177437
0
0
0.843642
0
0.509731
1.48625
0.745749
1.53181
0
0.311515
0
0.600579
0.646046
1.46355
0.526046
0.704661
0.816763
0
0
0.653092
0.511668
0.465517
0.697244
0.509438
0.834842
0.268145
0.659698
0
0.501
0.358561
0
0.579845
1.23268
0.554428
0
0
0.844958
0.378089
0
0
0.172129
0.485763
0
0
0
0.777225
0
0.261273
1.4075
0.517096
0.17944
0.869843
0.925672
0.926214
0.448386
0.868113
0.521443
1.20362
0.429408
0
0.419848
0.482779
0.340895
0
0
0.634448
0.411798
1.21593
0.989983
1.35136
0
0.493796
0
0
0
0.545055
0
1.32844
0.341959
0
0.0872377
1.27344
1.21773
0.937631
0.43473
0.238811
0.606858
0.701512
0.418915
0.402642
0.480953
0
0
0.858421
1.4496
0.571425
0
0
0.293443
0.746955
0.622323
0.614255
0
0.948856
0
0.460425
0.860242
1.12596
0.59155
1.16462
0.449666
0.545687
0.604303
0
0.52513
0
1.09305
0.611065
0
0.467808
0.373121
0.405626
0
0.500404
0
0.892448
1.08805
0
0.711894
0.577529
0.365562
0
0.600927
0.197236
0
0.600261
0.481201
1.19535
0
0
0
0.270531
1.23758
1.70315
2.3963
0.765154
0.12745
0
0.625924
1.17621
0.676588
0.120274
0.70561
0.38171
0.316654
0
0.801792
2.39484
0.48984
0.70739
0
0
0.439418
0.785817
0.660821
0
0.605473
0
0.187657
0.680104
0.604673
0.910568
0.364235
0.746701
0
0.360476
0.815482
0.946454
0.64248
0.759249
0.276505
1.06796
0.62559
0.489139
0.407338
0
0
0.541936
0
0.522673
0.596955
0
0
0.470619
0
0.498154
0.897835
0
0.419353
0
0
0.402687
0
0.723857
0.913236
0
1.08285
1.24307
0
1.6889
0.747219
0.537227
0
0.454793
0.987847
1.0982
0.72473
0.362868
0.744121
0.598242
0
0
0.459957
0
0
1.1187
0.750451
0.247635
0.419678
0
0.756084
0.932944
1.38383
1.15504
0.502711
0.477241
0.770274
1.67165
0.638853
0.915794
0.40334
0
0.619676
0
1.59106
0
0.518271
0.927113
0.940061
0
0.621331
0
1.16873
1.28519
0.372218
0
0.726281
0
1.70871
0
0
0.465692
0
0.698706
0
0.390967
0.691394
0
0.460139
0.655425
0.189255
1.08217
1.03594
0.972019
0
0.39219
0.481789
0.42869
0.373644
0.189406
0.630839
0
0.182089
0.186807
0
0.511543
0
0.548143
0.559446
0.50176
1.01706
0.633933
0.794277
0.633994
0.614321
0
0.827817
0.790847
1.81245
0.861259
1.50362
0.887904
0.719278
0.673293
0
0
0.665585
0.956208
1.12112
0.529659
0.877492
0
1.51705
0.691964
0.708132
0.74327
0.485491
0
0.694343
0
0
0.472446
0.327769
0.779071
0.710599
0.606547
0.850535
0.250657
0.734787
0
0.734151
1.15517
0.561851
0.730306
0.23126
0.64346
0.916807
1.03092
0.368708
0.526502
0.392777
0.460072
0
0.671075
0.506377
0.243693
0
0.415751
0
0.527099
0
0.551459
0
0.755552
0.715364
0.689307
0
1.13326
0
0.53293
0
0
0.309074
1.10494
0
0.748727
0.472719
0
1.25934
0
0
0.689486
0.554199
0
0.796664
1.05419
0
0.784309
0
0
1.09828
0.217562
0.765053
1.10434
0.65839
0.702257
0.511607
0.316118
0.613754
0.604634
0.224542
0.546935
0.894207
1.31621
0.443357
0.507019
0.165971
0.387425
0
1.90857
0.925614
0.393171
0.4774
1.00282
0.343349
0.950489
0.533545
0.558105
0.455131
0
0
0
0
0
0
0
0
0
0
0
0
0
0
0
0
0
0
0
0
0
0
0
0
0
0
0
0
0
0
0
0
0
0
0
0
0
0
0
0
0
0
0
0
0
0
0
0
0
0
0
0
0
0
0
0
0
0
0
0
0
0
0
0
0.272445
0.595193
2.38914
0.650604
0.382935
0.259152
0.462671
0.781196
0.311474
0.588549
0
0.389473
0.358566
0.157031
0.7148
0.876774
0.194048
0.531365
0
0.561781
0.382316
0.691753
0.460912
0.891038
0.285683
0.566889
2.42126
0.516662
0.315372
0.281366
0.385328
1.13382
1.13779
0.25869
1.05759
1.47139
0.309964
0
0.780089
0.581669
0.193492
0.642615
0
0.24022
0.949102
0
0.637371
0.917882
0.403733
0.278805
0
0.672715
0.246722
0
0.568288
1.29022
0.407361
0.777941
0
0.503536
0.679108
0
0.203619
2.38182
0.568346
0.820258
0.855593
0.708161
0
0
1.16802
0
0.757116
1.61673
0.93138
1.50614
0.76282
0.773972
0
2.41366
0.767587
1.02131
0.732054
1.63213
0.651845
0.465826
0.317991
0.892511
0.438627
0.949055
0.170893
0.801997
0.972716
0.637018
0.762147
0.877121
0.305578
0.490611
1.50584
1.57066
1.16623
0.335758
0
0.793583
0.565607
0.619399
1.18617
1.5309
0.629
0
0.607024
1.1584
0
1.51986
1.01237
0
1.35014
0.893201
0
0
0.501343
0.785913
0.629626
0.717439
1.0816
1.31452
0.62398
0.423852
0
0.447388
0
0.907496
0
0.883865
0
1.02578
2.27152
0.822702
0
1.15141
0.954192
0.887803
0.853114
0.710381
0.506059
0
0.904948
0.678447
1.31886
0.496488
0.807126
0.354499
0.383252
0
0
1.41884
0.644053
0.393319