<?xml version="1.0"?>
<VTKFile type="RectilinearGrid">
<RectilinearGrid WholeExtent="0 32 0 32 0 32" Origin="0 0 0" Spacing="1 1 1">
<Piece Extent="0 32 0 32 0 32">
<PointData>
</PointData>
<Coordinates>
<DataArray type="Float32" format="ascii">
0 0.524874 1.04975 1.57462 2.0995 2.62437 3.14924 3.67412 4.19899 4.72386 5.24874 5.77361 6.29849 6.82336 7.34823 7.87311 8.39798 8.92285 9.44773 9.9726 10.4975 11.0224 11.5472 12.0721 12.597 13.1218 13.6467 14.1716 14.6965 15.2213 15.7462 16.2711 16.796 
</DataArray>
<DataArray type="Float32" format="ascii">
-5.03879 -3.62163 -2.20447 -0.787311 0.629849 2.04701 3.46417 4.88133 6.29849 7.71565 9.1328 10.55 11.9671 13.3843 14.8014 16.2186 17.6358 19.0529 20.4701 21.8872 23.3044 24.7216 26.1387 27.5559 28.973 30.3902 31.8074 33.2245 34.6417 36.0588 37.476 38.8931 40.3103 
</DataArray>
<DataArray type="Float32" format="ascii">
0 0.524874 1.04975 1.57462 2.0995 2.62437 3.14924 3.67412 4.19899 4.72386 5.24874 5.77361 6.29849 6.82336 7.34823 7.87311 8.39798 8.92285 9.44773 9.9726 10.4975 11.0224 11.5472 12.0721 12.597 13.1218 13.6467 14.1716 14.6965 15.2213 15.7462 16.2711 16.796 
</DataArray>
</Coordinates>
<CellData>
<DataArray type="Float32" Name="Scalar" format="ascii">
0
0
0
0
0
0
0
0
0
0
0
0
0
0
0
0
0
0
0
0
0
0
0
0
0
0
0
0
0
0
0
0
0
0
0
0
0
0
0
0
0
0
0
0
0
0
0
0
0
0
0
0
0
0
0
0
0
0
0
0
0
0
0
0
0.0912271
0.209723
0
0.219969
0.272745
1.09114
0.334157
1.78017
0.358789
0.719056
0
0.283515
0.196436
0.580074
0.312697
1.43353
0.189746
0.225133
0
0.211315
0.264409
0
0.216052
1.11258
0.224222
0.402571
0
0.283833
0.496144
0
0.133844
0.830206
0.0941281
0.694634
0
0.262767
0
0
0.403887
3.40882
3.44318
0.180872
0
0.608099
0.212379
0.316352
1.3382
0.63465
0.212799
1.01844
0
0.276426
0.931727
0
0.287209
0.87335
0.297223
0.291809
0
0.772349
0.215119
0
0.596009
0.562166
0.741742
0.694167
0.528743
0.420494
0.643398
0.634599
0.607068
0.973033
0.56169
0.17341
0.724758
0.444483
0.853808
0.547406
0.636335
0.989157
0.762922
0.687612
0.485459
0.450077
0.989426
0
0.742797
0
0.545266
0
1.04834
1.3524
1.66875
0.764365
0.664666
0
0.484765
1.52674
0.272633
0.570892
0.390397
0.506437
1.31536
0
0.488077
0.75921
0.614203
0.418595
0
0.454362
0.373615
0
0.588792
0.307505
0
0.536483
0.694131
0.333402
0
0.594133
0
0.981202
0.483613
0
0.571688
0.265859
0.392973
1.0502
0.280236
0.459082
0
1.08959
0.578746
0
0.511773
0
0.743131
0.413648
0.773657
0.194129
0.857612
0.314293
0.430266
0
0.45234
0
0.168138
0.220215
0.576309
0.584134
0
0.833114
0
0.804455
0
0
0.473487
0.371611
0.771273
0.70787
0.63241
0
1.25086
0.737499
0.386148
0.424905
0
0.457059
0
0.553661
0
0.396524
0
0.434565
0.591263
1.14495
1.21529
1.25038
0.347714
0.557696
0
0.769357
0.44948
0.41328
0.767713
0.537763
0.649527
0.368297
0
0.576487
0.538333
0.407707
0.438459
0.576064
0.596402
0.324816
1.00937
1.64715
3.11257
0.621569
0.694353
1.00894
0
0.689079
0.570259
0.417277
0.394272
1.09755
0.503374
1.61405
0.0888082
1.05795
0
0.660209
3.10211
0.457817
0
0.51204
0.960124
0.402714
0.747047
0.841086
0.834735
0
1.39782
0.412219
0.877836
0.904492
0.865356
0
0.422567
0
0.574196
0.702071
0.530983
0.215978
0.46779
0.72509
0.364889
0
0.586035
0.522398
0.558781
0.489668
0.687235
0.887653
1.18563
0
0
0.613621
0.533017
0
0.378726
0
0.565455
0
0.417023
1.03279
0.269277
0.850003
0.603915
0.497633
0.336817
0.238951
0
0.578365
0.257594
0.817137
0
0.927834
0
0
0
0
0
0.740557
0.998557
0.574617
0.928303
2.08378
0
0.498802
0.498262
0.82163
0.896668
0.794407
0
0.58661
1.06284
0
0
0
0
0.975531
1.27668
0
0.691812
0.83184
0.258825
0.151222
1.00881
0.421341
0
0.695083
0.498454
0
0.438268
1.5589
0.899816
0.286491
1.58638
0.920759
1.11042
0.905564
2.34252
0.779812
0.665656
1.16653
0
0.726986
1.21536
0.390009
0
0
0.638088
0.859238
0.44434
0.945964
0.370384
0
1.40418
0.870162
1.51921
0.820738
0.46659
0.526924
0.539331
0.315415
0.494111
1.15642
1.19114
0.611748
0
1.07769
1.01191
0.750656
0.790983
0.759014
0
0.602668
0.64714
0.378081
0
0.7404
0
0
0.698546
0
0.455423
0.169816
1.15276
0.771565
0.871511
0.373332
0.184982
0.538533
0
0
0.617357
0
0.623067
2.25935
0.697858
0.243006
0.853365
0.476437
0.454492
0.442552
0.939699
0.445895
1.2641
1.53331
0
0.721144
0.347413
0.230108
0.346077
0.467672
0.668838
0.469401
0.486001
0.696353
0.284791
0.451721
1.38585
0.57797
0.504242
1.15507
0.467189
0.993766
0.463918
0.689925
0
0
0
0.23643
0.542184
0
0.656989
0.352427
0.635706
0.204465
0.574235
0.769029
0.339728
0.845435
0.426239
0.422506
1.17957
0.22666
0.552657
1.17633
1.03681
0
0.668249
0
0
0.534371
0
0.824922
0
0.913626
0
0.517985
0
0.4434
0
0.702031
0.920709
1.0567
0
1.05637
0.589215
0.769227
0.761605
0.370664
0.963383
0
0.884009
0
0.741386
0.67063
1.006
0.400577
0.645479
0
0
0
0
0.541305
0.902787
0.89322
0.420929
0.690066
0.260238
0.190371
0.505333
1.14192
0
0.694233
0.709934
0.847268
0
0.364643
0
0.362241
0
0
1.20016
1.30939
1.52883
0.443525
0.241064
0
0.729173
0
0.532188
0.49673
0
0
0.685583
0
0.874348
0
1.04206
0.938433
0.481773
0
0.52305
0
1.00681
0.411346
0.344871
0.280711
0.58163
0.451122
0.913199
0.889822
0.43433
0.405856
0.218732
0.293618
0.58294
1.00499
0.525201
1.18146
0.901126
0.89097
0.890075
0.706484
0.314517
0
0.491314
0
0.523931
0
0.713764
0.406309
0.462196
0
0.380658
0
0.649896
0
0.16235
0.604148
0
0.535698
0.416457
0.207872
0.325486
0
0.489473
0.758786
0.804904
0
0.597396
0
0
0.252369
0.523984
0
0.425568
0.749968
0
0.286849
0.78401
1.22753
0.654524
0.530486
0.344281
0
0.389432
0.299304
0.529663
0.407289
0.633892
0.493226
0
0.220738
0.52255
0
0.232608
0
0.593921
0.542254
0.793899
0.232799
0
0.600982
0.471193
0.433904
0.704683
0
0
0.395307
0.667414
0
1.26274
0
0.701106
1.43875
0
0.60917
0.739212
1.16587
1.97345
0.697836
0.565142
0
0.261171
0.585017
0.705748
1.40769
0.944775
0.873884
0
0
0.549521
0.678522
0.644311
0.780095
0.955138
0.86865
0.771439
0
0.622121
0.821904
1.23699
0.746704
0
1.09655
2.08537
1.05299
0
0
1.45337
0.772329
0.761519
0.512283
0.712484
0.618438
0.757319
0
0.570717
0.294679
0.323411
0.205092
0
0.310793
0.327587
0.840078
0.39215
0.504593
0
1.22929
0.500426
0.683617
0.764546
0.714096
0.423557
1.39495
0.79885
0.725275
0.756347
0.751156
0
0.595218
0
0.480878
0.79022
0.395998
0
0.727492
0
0.458643
0
0.923751
0
0.390305
0.506688
0
0.365642
1.06319
0
0.0424353
0.464453
0
0.700613
0.214427
0.516405
0
1.43678
0
0.795354
0.784069
1.12018
0
0.733364
1.58657
0
0.299818
0.702083
0
0.785898
1.68679
0.594285
0.523266
0
0.711237
0.625669
0.873729
0.630599
0.984404
0
1.26123
0
1.24497
0
0.786723
1.6259
0.639707
0.468393
0
0.696471
1.1782
0
1.20037
0.72197
0.552986
1.21555
0
0.71097
0.487011
0.634032
0.270146
0.365296
1.05055
1.92041
0.38992
0.945844
0.858825
0.965912
0.909181
0.456902
0.185726
0.436033
0.572351
0.894727
0.732686
0.613621
0.576914
0
0.422925
0.134567
0.570593
0
0.896052
0.337989
0
0.582403
0.881422
1.24515
0.379635
0
0.570666
0.878509
0.727603
0.43358
0.803407
0
0.22537
0.586989
0.534236
0.409976
0.731178
0.743959
0.880774
0
0
0
0.48475
0
0.532098
0
0
0.774303
0.245289
0
1.05348
0.427681
0.737887
0
0.734261
0.712644
1.68717
0.565997
1.73431
1.19635
1.43708
1.88564
0.728999
0.603516
1.24416
1.42051
0.896981
0
1.10712
0
0
0.488348
0.748644
0.940891
0.805803
0.670433
0.844808
0.752916
1.7967
0.907738
0
1.09668
0.419972
0.353301
0.714764
0.337372
0.534793
0.645231
0.589173
0.531558
0.856659
0.657398
0.429206
0.495721
0.543323
0.707261
0.490087
0.908974
0.898882
0.497947
0
0.353211
0.249514
0.694924
0
0.607289
0
0.652803
0
0.389813
0
1.19782
0
0.273899
0
0
0.40303
0
0.435674
0
0.792222
0.976386
0.532773
0.447522
0.413353
0
0.11644
0.791685
0
0.51468
0.998714
0.776104
0
0.694904
0
0.62999
0.730254
0.652824
0.876845
0.324905
0.319671
0
0.521719
0.946781
0.483773
0
0
0.49562
0.530104
0.440834
0.500194
0
1.16884
0.151386
0
2.55011
0.910057
0.59874
0.485298
0.620361
0.836748
0
1.05929
0.484826
0
0.677189
0
0.356027
0
0
0.940431
0.603585
0.374883
0
0.925552
0.671991
0.276674
0.393362
0.569772
0
0
0.727687
0.473544
0.272667
1.12139
0
0.717139
0
1.17448
0
0.399536
0.413966
1.9144
0.849318
0
1.34709
0
0
0.863372
1.28857
0.848923
0.39454
0.229705
0.729964
0.990512
0.12856
0
0.402203
0.71275
0.724893
0.399136
0.316245
0.693428
0.407044
0.408037
0.829856
0.360818
0.736524
1.504
1.46014
0.731334
0.764631
0.769993
0
0.927852
0.524813
0.573833
1.34325
1.46
0.762015
0.694914
0
0
0
0
0
0
0
0
0
0
0
0
0
0
0
0
0
0
0
0
0
0
0
0
0
0
0
0
0
0
0
0
0
0
0
0
0
0
0
0
0
0
0
0
0
0
0
0
0
0
0
0
0
0
0
0
0
0
0
0
0
0
0
0
0.22999
0.342154
0
0.519477
0.624931
2.38916
0.549086
1.37696
0.131511
0.454434
0
0.580648
0.476721
0.307513
0.470309
0.951544
0.198518
0.390093
0
0.462398
0.836766
1.37118
0.352243
1.03194
0.393084
0.410082
0
0.611017
0.523716
1.34172
0.565469
0.724566
1.16907
0.206618
0
1.02597
0.543691
0.457327
1.49654
0.763011
0.247114
1.74502
0
0.0617553
0.643559
0
0.402351
0.403799
0.575195
0.248691
0
1.02206
0.225095
0
1.29782
0.612035
0.204751
0.749773
1.02432
0.335904
1.20468
1.75095
0.225696
0.868938
0.850588
0
0.534397
1.60798
0.566809
0
0.79777
0
0.56983
0
0.319632
0.675777
0.739173
0
0.284322
0.840761
0.818827
0.725019
0.591529
0.977082
0.575221
0
0.80864
0
0.553582
1.03548
0.803194
0
0.744188
0
0.497581
0.74154
0.710516
0
0.860555
0
0
0.677575
0.714605
0.562585
0.648747
0.511129
0.299616
0.687745
0
0.628987
0.329515
0.635433
0.553915
0.722606
0.704025
1.08529
0.198666
0
0
0.575272
0
2.02653
1.59696
0
1.21992
0.470395
0.250967
0.777669
0.276302
0.647773
0.224083
0.840039
0.487209
0.814814
0.559867
0.489372
0
0.655625
0.427721
0.0604303
0.675155
0.87633
0
0
0.339856
0.897494
0.769859
0.887943
0
1.00239
0.214438
0.749961
0
0
0.757418
0.701167
0
0
0.442963
1.41558
0.106191
0.398379
0.636929
0.585005
0
0
0
0.87366
0.559239
0.250336
0
0.120808
0.591
0.978679
1.37577
0.745991
0.484199
0.878166
0.509657
0.598262
0.551755
0.639914
0
1.48598
0.56423
0.586535
1.04275
0
0.830728
0
0.42706
0.152293
0
0
0
0
0
0
0
0.605647
0
0
0.488978
0.405212
0
0
1.04425
1.12376
0.45735
0.711401
0.310112
0.887011
1.16384
0.696633
0.55563
0.57006
0.611221
0.621118
0.633187
0.620914
0
0.913757
1.37577
1.12648
0.728048
0.579706
0
1.04171
0
0.674699
0
0.340985
0
0
0.6184
0.199812
0
0
0.800954
1.08469
0.747917
0
1.11865
0
0
0
0.384281
0
0.887104
0
0
0
1.62286
0.858325
1.09317
0
0
0.455538
1.12094
0.433757
0.675973
0.621763
1.79815
1.42065
0.398927
0.626065
0
0.554892
0
1.76671
0.438064
0.544112
0
0.472018
0
0.43298
0.933751
0.73861
0.342233
0.558487
0.831644
0
0
0
0
0.64478
0.83809
0.960501
0.462632
1.92244
0.724674
0.27345
0.510682
1.05695
0.394361
0.576878
0.395235
1.11958
0.402539
0
0.543338
0
0.568696
0.9655
0.554798
0.535969
0
0.35701
0.705578
0.823009
0.935867
0
0
0.660488
0.545311
0
0
0.815781
0.615888
0
0.458568
0
0.695576
1.4895
0
0
0.873264
0.699363
0
0.550054
0
0.759058
1.01266
0.936473
0
0.421716
0
0.20264
0
0
0.491672
0
0.767696
0
0
0.478323
0.735733
0.48568
0.36362
0.437146
0.6917
0
0.428825
0.724416
0.662735
0.946942
0.570038
0
0.519067
0.304186
1.00576
0.4922
0.900341
0.544818
0.577745
0.683697
0
0.600956
0.668246
1.00607
0.268838
0
0.764005
0.64981
0.309265
1.1797
0.649275
0.621206
0.475361
0.461846
0.549649
0
0.567619
0
0
0
0
0.775802
0.55679
0.536024
0.705999
0
0.340649
0
0.727348
0.641723
0.962502
0.970039
0.436369
0.773873
0.950618
0.63609
0.465592
0
0.415195
0.611951
1.20568
0
0.900952
0.638801
0.335747
0
0.422455
0.7828
0.628623
0
0.392083
0
0.808197
0.252111
0
0.558808
0.686052
0.487499
0.680971
0.440918
0
1.07667
0.9703
0.678988
0
0.598356
0.523326
0.853739
0.168639
0.165259
0.451606
0.207115
0
0.674654
0.60343
0
0
0.549897
0.169407
0.174983
0.333931
0.288537
0.755785
0
0.134554
0.582077
0.570831
0
0.42933
0.289214
0.672571
0.509652
0.390799
0.740839
0
0.595738
1.14737
0.844889
0
0.549824
1.11014
0.582146
0.787045
1.03951
0.490776
0.549184
0.297012
0.416866
0
0.618389
0
0.330505
0.656312
0
0.261255
0.590755
0.266329
0.494341
0.628004
1.39913
0
0.611558
0.888569
0
0.537383
0
0
0.702095
1.85191
0
0.385165
0
0.526407
0
0
0
0.246327
0
0
0
0.636398
0.485201
0.97241
0.676033
0.450073
0.314558
0.562869
0.291059
0.653167
0.492034
0.799214
0
0.409855
0
0.396395
0
0.357207
0.879718
0.467998
1.31289
0
0.51296
1.41091
0.617402
0.652732
0.87028
0.386605
0.802152
0.297651
0.44029
0.226706
0.231366
0
0
1.19211
0.233716
0
0
0.558021
0
0.642094
0
0.514132
0
0.197823
0
0.571781
1.00004
0.62189
0.805284
0.324448
0.564823
1.05314
0.513171
0.392249
0.660312
0.417329
0.473512
0
0
0.313881
0
0.731518
0
0.563356
0
0.597289
0
0.515158
0
0.60934
0.597265
0.691197
0
0.707067
0.128357
0.687229
0.488398
0.498085
0.925823
0.536091
0
1.02669
0.311684
0.81142
0.633949
0.501146
0
0.532742
0.522997
0
0.880147
0
0.728534
0
0.459127
0.885114
0.557083
0
0.547317
0.670718
0.546258
0
0.472892
0
1.08379
0
1.1597
0
0.758646
0.73208
0.553475
0.95807
0.707776
0.886242
1.05105
0.588644
0.915235
1.16259
1.07824
1.5817
0
0.27174
0
0.849552
0
0.794855
0.573815
0
0.755057
0
0.374348
0.195463
0.312777
0.395781
1.19536
0
1.66911
0.978243
0.0653116
0
0.844978
0
0.843701
0.565365
0.606995
1.0691
0.358353
0
0.248956
0.63327
0.677217
0.334558
0.645304
0.485734
0.428236
0.6091
0.775828
0
0.541864
0
1.47055
1.09522
0.455794
0.753905
0.529656
0.893581
1.63613
0.866403
0.352589
1.2702
0.805484
0.563655
1.23857
0.85635
0
0.904014
0
0.541925
0
0.488008
0.73172
0.840576
0
1.13631
0.396347
0.588912
0
0.48934
1.12666
0.59693
0.940019
0.964635
0
0
0
0.733038
1.10092
0.287744
0.336283
0.27725
0.577083
0
1.15881
0
0.37552
0.358011
0
0.763086
0
0.169153
0.290463
0.807445
1.28545
0.444661
0.416016
1.08492
0
0
0.092478
0.510169
0.770805
0
0.791668
0
0
0.861717
0
0.785776
0.693088
0
0.621177
0
0
0
0.205259
0.613119
1.21729
0.778207
1.30133
0.673199
0.630416
1.00594
0
0.62631
0.589367
0.628966
0
0.482393
0.790132
0.786801
0.420717
1.02658
0
0.648988
0.614182
0.721429
0.721625
0
0.573382
0.494434
0
0.382439
0.899499
0.995601
0
0.725388
1.12547
0.718061
0
0
0.412978
0.700697
0
1.30238
0.798053
0.355455
0
0.9304
1.34241
0.321321
0.789491
0.475677
0.479473
0
0.423606
0.649789
0.591111
0.287708
0.739953
0.15046
1.25065
1.28012
0.598871
0.761961
0.933641
0.721395
0
0.562593
0
0.941173
1.26409
0
0.353282
0.392891
0.688011
0
0.509835
0.541111
0
0
0.908421
0.477187
0.419564
0.790065
0.873935
0
0.370526
0
0
1.31854
0.586791
0
0.232899
0.559526
0.447129
2.1243
0.675168
0.658576
0.660928
0
0
0.989808
0
0.864669
0
0.16288
0
0.690291
0
0.356866
0
0.909445
0.487248
0.737046
0.910478
0
0
0.327312
0.29311
0
0.642435
0.609614
0.650913
0.65396
0.808373
0
0.553717
1.26865
0
1.03273
0.689247
0.497353
0
0.948042
0
0.771678
0
0.692027
0.0540982
0.874764
0.786381
0.603802
0.600149
0
0.546303
0.209077
0.947964
1.02484
0.846149
0
0.344968
1.16359
0.451741
0.765133
1.06794
0
0.377582
0.513234
0.728497
0.941951
0
1.05112
0.41207
0.531143
0
0
0
0.615676
0.715489
0.394018
1.05153
0.859938
0.528333
0
0.970198
0.828984
0.725963
0.472219
1.28923
0
0
0.749166
0
0
0
0.379878
0
0.347756
1.5815
0.733111
0
0
0.685767
0.722149
0.543182
0.670018
0.390875
1.49308
0.207519
0.561558
0
0
0.701896
0.860744
0.599418
0
0.732183
1.00913
0.74169
0.52986
0.79986
1.62241
0.866775
0
1.18856
0.629051
0
0.387644
0.760709
1.21934
1.31361
0.856213
0.868118
0
0
0
0
0
0
0
0
0
0
0
0
0
0
0
0
0
0
0
0
0
0
0
0
0
0
0
0
0
0
0
0
0
0
0
0
0
0
0
0
0
0
0
0
0
0
0
0
0
0
0
0
0
0
0
0
0
0
0
0
0
0
0
0
1.69173
0
0
0.706621
1.44325
0
0.831461
0
0
0.249947
0
1.05554
0.833769
0
1.11858
0
1.3561
0.274931
0
0
0
0
1.36053
0
0
0
0
0.527704
0.910072
0
0.63346
0
0
0
0
0
0
0
0
0
0
0
0
0
0
0
0
0
0
0
0
0
0
0
0
0
0
0
0
1.30116
0
0
0
0
1.01128
1.44217
0
0.23547
1.05099
0
0.784495
0
0.472112
1.49671
1.20718
0
0
0.75387
0.876646
0.921953
1.01562
0.92526
0
0
0.453492
0
0.660239
1.36254
0.347173
0
0.927506
1.04831
0.807375
0.532661
0
0.486754
0.301628
0
0.737798
0.450347
0.258776
0
0.312863
0
0.613982
0
0
1.69126
1.13954
0.74638
0.13208
1.1413
0
0.398378
0
0
0.5334
0.455611
0.802208
0.801027
0.734015
0.595565
0.754685
0.822603
0
0.481315
0.165122
0
0.445787
0
0
0.806409
0.381785
0
0.339956
0.24309
0.201334
0.544807
0.633081
0.190748
0.621895
1.12653
0.796859
0.552267
0.472922
0.860265
0.771174
0.468039
1.49607
0.928232
0.380213
0
0.405402
0.78233
1.61191
1.82832
0.398167
0.684859
0.248903
0.49274
0.648277
0.566172
0.32613
0.5953
0.769001
0
0
1.27337
1.29529
0.84915
0.63008
1.06809
0
0.432512
0.502431
0
0.515909
1.57301
0.755143
0.787661
1.14265
1.02308
0.388444
0.46772
1.06076
0.57629
0.493205
0
0.672591
0
0.489235
1.1488
0
1.03357
0.524118
0.459618
0.418479
0.735053
0.185473
0
1.03162
0.79284
1.99774
0
0.508202
0
0.374107
0
0.332513
0
0.558378
0
1.00034
1.0782
1.96829
0.595808
0.177895
0.735181
0
0.678705
0.32408
0.432611
0.461724
1.15238
0
1.1722
1.45493
0
0
1.00618
0
0.77425
0
0.857203
0
1.49547
0.679926
0
0.592068
0.52279
0
0.0936251
1.10048
0.870462
0.949208
0.52081
0.522081
0
1.53174
0.998455
0.904007
0.875022
0.795594
0.291168
0.31006
0.758588
1.13253
0.707145
0.717724
0.494645
1.06475
0.503052
0
0.295813
0.13474
0
0
0.524282
0.492405
0.37656
0.908112
0.678501
0.410675
0
1.10012
0.522232
0.807819
0.867646
0.807606
0.200559
0.576443
0
0.566399
0.221134
0.61964
1.07401
0.634188
0.753504
0
0.591179
0
0.891589
1.45121
0
2.55367
0.493467
0.0570896
0.267168
1.10091
2.98165
0.662577
0.596459
1.29504
0.814405
1.96809
1.02285
0.700444
0.681651
0
1.22969
0.599172
0
0.386563
0.514424
0.398549
0.598725
0.485445
0.917977
0.564805
0.277157
0
0.641418
0.210825
0.654293
1.08334
0.683159
0.292605
0.284562
0
0.12602
0.548245
0.400034
0
0.592843
0
0.654346
0
0
0.76213
0.278179
0.505946
0.475654
0
0.665455
0.352397
0.344037
0
0.502771
0.419064
0.890718
0.333273
0.473855
0.530641
0
0.300863
1.0709
0
0.568058
0.273818
0
0.187615
0.340681
0.439007
0
0.397574
0
0.440789
0.550648
0.600626
0.491822
0.518611
0.55238
0.3097
0.52178
0
1.00772
0.581507
1.02913
0
0.4427
0.67429
0.62237
0.864237
1.18284
0.492207
0.39991
0.636892
0
0.413403
0.61954
0.740646
0.366269
0.602497
0.550591
0
0
0.498599
1.07654
0.707177
0.362538
0
0.33159
0.8518
0.474748
0.526212
0.254776
1.30123
0.905173
0.456021
0.811822
0.529626
0.544333
0.624965
1.48627
0
2.39997
0.476734
0.522635
0.549661
0
0.490111
0
0
2.4654
0.69823
0.548124
0.542481
0
0.466284
0.137253
0
0.697984
0
0
0.871924
0
0.423239
0
0.505944
0.464453
0
0.238632
0.785377
1.16138
0.221472
0.22853
0.484706
0.406588
0.70905
0
0.634995
0
0.577386
0.890176
0
0.431529
0
0
0.586312
0
0.474064
0.422311
0
0.789847
0.432735
0.410791
0.548487
0.704542
0
0.561054
0
0
0.35226
0.661518
0.546981
0
0.559521
0
0
0
0.323449
0
0
1.03238
1.2032
0.518433
0.405388
0.787013
0
0.946946
1.23413
0.468263
0.886641
1.14896
1.44024
0.53066
1.29861
0
1.16309
0
0.901691
0
0.556958
1.06425
0.249493
0.299724
0
0.708877
0
0.613534
0.647479
0.606312
0.302582
0.276928
0
0.439153
0.766653
0.716913
0.468435
0.754151
0.613391
0.594046
0
0.835117
0
0.72933
0
0.761793
0
0.556417
0.314654
0
0.324261
0.320754
0
0.137734
0.238079
0.291472
0.540906
0.247985
0.799594
0
0.54849
0.333501
0.900081
0.798741
0.556967
0.256977
0
0
0.310203
0.745292
0.607833
0
0
0
0.722201
0.899044
0.844338
0.67945
0
0.562015
0.945353
0.172834
0.32356
1.80359
1.19698
0.416959
0.614719
1.38112
0.711881
0.592716
0.893297
0
0.89439
0.672362
0.751146
0.659245
1.87737
0.84932
1.02249
0.774856
1.14354
0.798246
0.834757
0.505404
0.808611
0.55749
0.376953
0.520326
0.531168
0.221901
0
0.696569
0.401733
0.879283
0
0.933455
0.196986
0.987754
0.827006
0.252915
0
0.170563
0.258193
0
1.01886
1.14449
0.558513
0.466455
0
0.364587
1.0392
1.11987
0
0.615735
0
1.10448
0.802015
0
0.767039
0.528158
0
1.14317
1.76595
0.744205
0.918931
0.856978
0.543885
1.32241
0.923284
0.768763
0.344248
0.230877
0
0.597268
0
1.40016
0.583791
0
0
0.667218
0.816954
0
0.72652
0.835192
0.429938
0.559976
0.576812
0.473366
0.672116
0.89131
1.0342
0.684681
0.981647
1.02184
1.58022
0.880496
0.473714
0.257319
0.688439
0
0.569763
0
0.799898
0.411108
1.02524
0.778483
0.636735
0.662478
0.716536
0
0
0
0.470478
1.25105
1.12242
0.873715
0
0
0.366918
0
0.660974
0
0.282616
0
0.517086
0.856591
1.27305
0
0.335016
0.37636
0.242022
0.934149
0.65806
0.691777
0
0.320554
0.894316
0.822186
0.929292
0.479023
0.595275
0.372263
0.645756
0
1.22878
0.546624
0
0.608604
0.671211
0.636429
0.338152
0.749339
1.86547
0
0.177535
0
0.178243
0.875957
0.445364
0.641975
0
0.485157
0
1.09804
1.34432
0.511456
0.629171
0
0.589665
0.982019
0.398486
0.726175
0
0.534834
0
0.318064
1.28231
0.747236
0.469843
0.676495
0
0.480931
0
0
0.0775664
0.331031
0.816094
1.09235
0.722313
0
0.599005
1.50192
2.0748
0.683197
0.384872
0
0.761544
0.672172
0.761118
0.70923
1.27588
0.301285
0
0.204117
0
0.766068
0.753314
1.1441
0.155034
1.06787
0
0.893676
0.431268
0.143325
2.2715
0.843401
0.165401
0.272254
1.39678
0.473255
0.837257
0.956773
0.617015
1.13048
0.748026
0
0
0
1.52065
0.617353
0
1.05203
0.927247
0.395876
0.304055
1.75085
0.41992
1.10344
0.936693
1.25423
0.861991
0.889894
0
0.694489
0.945596
0.628377
0.856139
0.237513
0
1.48889
0.40746
0.47511
0
0.431556
0.736097
0.44956
1.119
0.607455
0
0.30847
0.675453
0
0.962404
0.432206
0
0.514304
0
0.181703
0.692096
0.436049
1.72684
0.70003
0
0.597894
0
0.516659
0.463085
0.508431
0.438528
1.81966
0.928987
1.71432
0.735338
1.14757
1.30426
0.512113
0.40471
0.512996
0
0.361583
0.681397
0.536144
0.10619
0
0.569013
0.452132
0
0.748741
0
0.693756
1.33226
0.975616
1.1057
0.612054
0.713518
0.648687
0.825786
1.07821
0.425484
0.24923
0.858754
0.921493
0
0.601595
0.83357
0.431188
0.712643
0.807242
0.751932
0.800694
0
1.97687
0.939118
0.358844
0.289145
0.513644
0.535418
0.411582
0
0.595052
0
0.688531
0.190307
0.835259
1.14145
0
0
0.580145
1.46494
0.252006
0.309489
0.743512
0.888166
0.680823
0.633623
0
0.767427
0.431603
0.910614
0.789726
0.747789
0.559548
1.00282
0.597401
0.583399
0.642585
0.532235
0.426765
0.382715
0.684543
0.563058
0.178513
0.19062
0.203623
1.33574
0
0.380279
0.548552
0.499597
0.454665
0.808553
0.481077
0.619593
1.31642
0.560364
0.744103
0.694503
0.601554
0.458434
0.920677
0.550745
0
0.674131
0.334923
0.679832
0
1.07392
0.345014
0.556387
0.397196
0.756618
0.673321
0.352351
0
0
0.902584
0.817194
0.649919
0
0
0
0
0
0
0
0
0
0
0
0
0
0
0
0
0
0
0
0
0
0
0
0
0
0
0
0
0
0
0
0
0
0
0
0
0
0
0
0
0
0
0
0
0
0
0
0
0
0
0
0
0
0
0
0
0
0
0
0
0
0
0
0
0.333964
0.366116
0
0.37418
0.773741
0.86519
0.582377
0.958814
0.267458
0.560706
0.934153
0.535698
0.341507
0.474811
0.468264
1.224
0.406689
0.429239
0.687562
0.61229
0.541364
0
0.517558
1.46468
0.353863
0.536602
3.36012
0.545627
0.585661
0
0.512728
1.7148
0.277958
0.330492
0
0.313772
0.811435
0
0.386443
1.57885
1.66177
0.053294
0
1.97377
0.514055
0
0.290707
0.5571
0.16955
0.766958
0
0.388623
0.143283
0
0.363672
0.637721
0
0.707515
0
1.16357
0.302036
0
0.815487
0.815621
0
0.678184
0.375739
0.543835
0.422927
0.478736
1.78243
0.460903
0.685988
0.836819
0.659883
0.906436
0.716879
0.570676
0.547137
0.948739
1.28255
0.851446
0.374914
0.417386
0.550164
0.774884
0.653139
0
0.744518
0
1.87408
0.96933
0
0.849589
1.12337
0.254305
0.555853
0.662379
0
0.603791
0.338208
0.814635
0.356271
1.38173
0.641241
0.402684
1.19904
0.759459
0.984155
0.973164
0.355075
0.78186
0.609804
0.535414
0
1.03559
0.699592
0.820967
0.699327
0
0.618061
1.04925
0
0.663954
0.522481
0
0.555677
0.3929
0.345411
0.705305
0.891361
0.373486
0.886678
0
0.634716
0
0.61297
0.273558
1.04544
0.717201
0
0
1.32739
0.801307
0.452273
0.433354
0.49369
0.739144
1.35481
0.51162
1.0356
0.736023
0
0.631824
1.01583
0.772321
0
0.626651
0.209372
0.484243
0.589207
0.426464
0.727972
0.847457
0
0
0.373821
0.672991
0.520804
0.922618
0
0.989069
0
0.408937
0.747373
0
0.39608
0.372892
0.638009
0.557784
0.814339
0.639283
0.924539
0
0.519137
0
0.337633
0
1.51022
1.08561
0
0
0
0
0.188957
0
0.564027
0
0.285415
0
0.441507
0
0.367278
0.78347
0
0
0.813067
0.429101
0.575142
0.581887
0.719874
0.899185
1.1495
1.61467
0.905182
0.559082
0.812979
0
0.479423
0
1.68019
0.863761
0
1.30517
0.719805
0
0.490962
1.01537
1.40941
0.601031
0.716191
0
0
0.267037
0.362266
0.851876
0
0.503756
0
0.494447
0
0.959064
0.848167
1.35604
0
0.660545
0.440785
1.22287
0.548741
0.85091
0
0.387633
0.598768
0.247828
0.685113
0
0.41124
0.635922
1.1494
0.135169
0.546555
0.813487
0.284651
0.292423
1.03386
0.680247
0.75643
0.222467
0
0.553686
0.840929
1.07436
0.699016
1.02886
1.26566
0
0.753637
0
0.160951
0.0381168
0.763871
0
0
0.933234
0
0
0
0.815292
0.956341
0.736873
0
1.37806
0
0.505353
0
0.692293
0.904888
0.259581
0.364805
0
0.733467
0
1.38502
0.866484
0.623977
0.48551
0
0
0.482333
0.552961
0.547022
0
1.07266
0
0.453168
0
0
0.623678
0.303471
0
0
0.922183
1.00428
0.880253
0
0
0
1.28651
0
0.325632
1.01438
0.521555
0.772363
0.712936
0
0.37056
0.602835
0.572611
0.644894
0.743006
0.605735
0
0.334145
1.75565
0.621159
0.621152
1.02862
0.251439
0.227416
1.37734
0.765629
0.337608
0.261376
0.77169
0
1.10399
1.53661
0.295661
0.316936
0.932855
0.617581
0.547435
0
0.603052
0
0
0.416956
0
0.969173
0.1776
0
0
0.756845
0.773286
0.59702
0.881953
1.34348
0.899766
0.122468
0
0.227069
0.453765
0.480635
0.452101
0.812793
0
0.647884
0
0.457214
0
0.398596
1.48172
0
0
1.58301
0.718047
1.12316
0
0
0
1.00904
0
0.871333
0.575748
0
0.828934
0.171734
0.660058
1.43807
0.483256
0
0
0.686849
0.904805
0.291158
0.42912
0.635168
0
0.251391
0.960024
0
0.524068
0.602095
1.00683
0.859759
0.656268
0.355449
0
0.797438
0.487674
0.421623
0.433852
0.774719
1.34609
0
0.855032
0.567242
0.267815
0.139383
0
0.575706
0
0.873135
0.477079
0.566754
0.311465
0.0551685
0
0.191929
0.680607
0
0.449564
0
0.899018
0.788642
0.608745
0.857557
0.587466
0.633274
0
0
1.11891
0.322995
0
0
0.0607448
0.457096
0.623993
0.36387
0.830714
1.14518
0.924016
0.235211
0.268178
0.943502
0
0.656688
0
0.718868
0
0
0.51851
0.419379
0.501821
0
0.733815
1.82013
0.502904
0
1.23295
1.24681
0.903424
1.31459
1.35053
0.366238
0
0.68081
0.572615
0.525322
1.50113
0
0.506245
0.590881
0
0
0.130971
0
0.428083
0
0.865199
0
0.829961
0.115426
0.14582
0.213441
1.30301
0.844421
0.504824
0.748081
0
1.4049
0.586024
0.903282
0.636241
0.840732
0
0.90874
0
0.676287
0.783499
0.436803
0.532197
0.917679
0.447513
0.422587
0.466524
0
0.293072
0
0
0.641873
2.19617
0.782925
0
0
1.04732
0.641138
0.235338
0.408247
0.658688
0.332801
0.505871
0.287654
0.552749
0.447874
0
0
0.652429
0.735114
0.345795
0.614524
0
0.669417
0.693834
0.810712
0
0.576211
0.319202
0
0.541372
1.26924
1.26387
0.756926
0.617267
0
0.555678
0.141048
0
0
0.615332
0
0
0.595747
0.761103
0.857756
0
0
0.764124
0.944842
0
1.03822
0.963285
0.749802
0.532494
2.21938
0.448899
0.928495
0.314071
0
0.676787
0.644494
1.61587
0.689688
0.789546
0.922221
0.462854
0.503285
0.322725
0.421124
0.426935
0.656416
0
0
0
0.566834
0.484305
0.652143
1.3386
0
0.732933
0
1.40352
0.609502
1.26526
0.824469
0
0.661809
0.0943625
0.155006
0.726692
1.14701
0.485981
0.431445
0.588464
0.577899
0.423001
0
0.848596
0.588142
0.379886
0.880779
0.564317
0.970656
1.31525
1.26605
0
0.640767
0.764806
0.538717
0.608183
0.503991
0.522132
0.747361
1.22639
0.689999
0.3884
0.50577
1.82376
1.88798
0
0.353018
0
0.852545
0
0.462808
1.49659
0.2325
0.534948
0.342447
0.243418
0.493625
0.459201
0.514408
0.543381
0.540432
0.619131
0
0.549172
0
0
0.815672
0
0.879076
0.477648
0.541782
0
0.613998
0.174514
0.428306
0.226784
0.47388
0.509093
0.490411
1.1755
0
0.417067
0.431406
0.545729
0
1.10697
0
0.630801
0
0
0.615693
0.498364
0
0.51681
0
0.798566
0
0.539805
0
0.613681
0
0.600559
1.64724
0.761358
0.830205
0.456761
1.18904
0.555114
0
0
0.656595
0.243494
0.638805
0
0.481156
0.951409
0
1.13955
0.216748
0.638139
0.179879
0.446549
1.8783
0.877354
1.52358
0
0
1.71658
0.746209
0.71288
0.137819
0.617897
0.533607
0
0.793785
1.00858
0.85479
0
1.19994
1.38505
0.571701
0.778732
0.202314
0.951827
0.51527
0.649753
0
1.02886
1.02199
0.123059
0.638563
1.13518
0
0.503982
0.844343
0.647516
0.0496424
0
0.692698
1.39509
0.52725
0.637475
1.18246
0.594094
0.450778
0.694944
0.548529
0.500908
0.564937
1.19066
0.655617
0.803809
0.512535
1.14158
0
0.557005
0
0
1.74804
1.31627
1.08723
1.06569
0.7285
0.543115
0.44092
0.290713
0.557735
1.01819
0.582049
0.750128
0.308331
0
0.331098
1.10903
1.28162
0
0.88647
0.48692
1.21622
0
1.00192
0.911969
0.708719
0.40971
0.906662
1.01116
0.118115
0.796954
0.689334
0.721568
0.641959
0
0.522499
0
0
0.535894
0.218232
0.91301
2.7229
0.648055
2.20615
0.416496
0.542576
0.704232
0.929497
0.523309
0.691634
0.949387
0.616828
0
0
0
0.740689
0
0.135986
0.624916
0
0.788678
0.61873
0
0.738258
0.271022
0
0
0.518212
0.439748
0.876048
1.95515
0.682337
0.686948
1.12634
1.3544
0.469629
0.441178
0.861833
0.839127
0.138299
0.430872
0.429747
0.765367
0.533635
0
0.643871
0
0
0
0.877491
0.973975
0.887751
0.508285
0.831755
0
1.57034
1.24842
0
0
0.620022
0.744465
1.29119
0
0
1.14849
0
0
0.443672
0.820337
0.270552
0.349357
0
0.816868
0
0
0.543235
0
1.17129
1.276
1.35099
1.03535
1.47346
1.90956
2.75571
0
0.89786
0.378049
0.321454
1.53811
0
0
0
0.473972
0.496022
0.929164
1.02715
0.72041
0.737465
0
0.579107
1.24945
0.337259
1.61299
1.16949
0.589534
0.321611
1.19124
0.761161
0.279216
0
1.06082
0.101797
0.446004
0.57417
0.389709
0.651976
0.571957
2.26375
0
0
0.702919
0.4468
0.800635
1.25828
0
0.728467
0.918874
0.665849
0
0
0
0
0
0
0
0
0
0
0
0
0
0
0
0
0
0
0
0
0
0
0
0
0
0
0
0
0
0
0
0
0
0
0
0
0
0
0
0
0
0
0
0
0
0
0
0
0
0
0
0
0
0
0
0
0
0
0
0
0
0
0
0
0
0.349906
0.43481
0
0.585141
0.451923
0
0.537624
1.51846
0.442195
0.570814
0.932935
0.622745
0.33222
0
0.572362
1.47294
0.328986
0.371152
0
0.523284
0.347321
0
0.384629
0.942381
0.301803
0.449821
0
0.384579
0.493383
0
0.541516
0.801082
1.37818
0.618394
0
0.655819
0.33939
0
1.36734
0.434622
0.153786
1.24427
0
0.400047
0.907626
0
0.216557
0
0.557387
0.42321
0
0.775438
0.343065
0
0.690034
1.48171
0.345191
0.868204
0
0.369241
0.584942
0
0.38138
1.24422
0.629891
0.292337
0
0.559475
0.770012
1.08385
0.714639
0.282359
0
0.717708
0.498568
0
0.587675
0.818311
0.44767
0.612314
0.502361
0.86307
0.541037
1.04539
1.64442
2.51954
0.78123
0.999583
0.911971
0.627872
0.724578
2.1657
0.709643
0.172482
0.31004
0.447886
1.18934
0.363533
0.139955
0.225999
0.231407
0.653574
0
0
1.04861
0
0.537094
0.801541
1.18021
0.74768
0
1.17532
0.15312
0
0
0.540262
0
0
0.66591
0
0.843362
0.66403
0.532849
0
0
0
0
1.02778
0
0
0
0.540544
0
0.329085
0
0.407806
0.783268
0
0.709634
0.51542
0.664924
1.24013
1.36453
0.193718
0.394978
0.602117
0.50109
0.666702
0
0.570509
0