<?xml version="1.0"?>
<VTKFile type="RectilinearGrid">
<RectilinearGrid WholeExtent="0 32 0 32 0 32" Origin="0 0 0" Spacing="1 1 1">
<Piece Extent="0 32 0 32 0 32">
<PointData>
</PointData>
<Coordinates>
<DataArray type="Float32" format="ascii">
0 0.524874 1.04975 1.57462 2.0995 2.62437 3.14924 3.67412 4.19899 4.72386 5.24874 5.77361 6.29849 6.82336 7.34823 7.87311 8.39798 8.92285 9.44773 9.9726 10.4975 11.0224 11.5472 12.0721 12.597 13.1218 13.6467 14.1716 14.6965 15.2213 15.7462 16.2711 16.796 
</DataArray>
<DataArray type="Float32" format="ascii">
-5.03879 -3.62163 -2.20447 -0.787311 0.629849 2.04701 3.46417 4.88133 6.29849 7.71565 9.1328 10.55 11.9671 13.3843 14.8014 16.2186 17.6358 19.0529 20.4701 21.8872 23.3044 24.7216 26.1387 27.5559 28.973 30.3902 31.8074 33.2245 34.6417 36.0588 37.476 38.8931 40.3103 
</DataArray>
<DataArray type="Float32" format="ascii">
0 0.524874 1.04975 1.57462 2.0995 2.62437 3.14924 3.67412 4.19899 4.72386 5.24874 5.77361 6.29849 6.82336 7.34823 7.87311 8.39798 8.92285 9.44773 9.9726 10.4975 11.0224 11.5472 12.0721 12.597 13.1218 13.6467 14.1716 14.6965 15.2213 15.7462 16.2711 16.796 
</DataArray>
</Coordinates>
<CellData>
<DataArray type="Float32" Name="Scalar" format="ascii">
0
0
0
0
0
0
0
0
0
0
0
0
0
0
0
0
0
0
0
0
0
0
0
0
0
0
0
0
0
0
0
0
0
0
0
0
0
0
0
0
0
0
0
0
0
0
0
0
0
0
0
0
0
0
0
0
0
0
0
0
0
0
0
0
0.150817
0.257968
0.347794
0.18603
0.345833
0.895726
0.139907
1.17774
0.340893
0.312346
0
0.0536352
0.278328
0
0.359195
1.25389
0.338324
0.247452
0
0.179348
0.371271
2.37309
0.461063
1.00142
0.142417
0.44112
0
0.241137
0.308819
1.21493
0.30836
0.662531
0.159205
0.953158
0
0.198044
0.628506
0
0.0523745
0
0
0.205024
0
1.40603
0.333599
0
0.937248
0.621846
0.156859
0.299833
0
0.231475
1.27703
0
0.0777008
1.28346
1.05508
0.123943
0
0.871843
0.0978698
0
0.613085
1.03036
0.184016
0.511245
0.546286
0
0.608077
0
0.405867
0.602645
1.30634
1.7717
1.16175
1.45591
0.302964
0
0.575266
0.434323
0.826392
0.979316
1.22947
0.826764
0.300189
0.675547
0.588819
0.317071
0.382845
0.773984
0
0.580119
0.421314
0.448145
1.04894
0.385245
1.50415
0.426958
0
1.65401
0.631731
0
0.560829
0
0.800981
0
0.379948
1.13668
0.225769
0.389958
0.478967
0
0
1.237
0
0.526883
1.01782
0
0.431511
0.241657
0.959593
0.897462
0.56374
0.771601
0.391273
0.996687
0
0.422792
0.648605
0.576243
1.07471
1.07961
1.11655
0.325041
0.590349
0
0.817054
0.871648
0.651997
0
0.840127
0.458412
0.435312
0
0
0.579903
0.299992
0.105234
0
0.737422
0
0.452466
0
0.432956
1.03138
0.63708
0
0.985232
0.481565
0
0.415406
0.342541
0
0.720337
0.362841
0.297024
0
0.762521
0
0.615651
0.852334
0.65747
0.606025
0.607795
0.583867
0.603416
0.66078
0
0.653447
0.65606
0
0.645177
0
0.869396
0
0.520566
0.583134
0.201082
0.462726
0
0.696259
0
1.03236
0
0
0.52035
0.501543
0.280622
0
0
0
0
0.473515
0
0
0.118294
0.411747
1.0639
0
1.07022
1.1838
0.652184
0.551264
0
0.811529
0.398328
1.07441
1.41887
0.567578
0.567803
0.46843
0.573449
0.393175
0.373812
0
0.389833
0
0.427664
0.21992
0.319891
0.523381
0.19439
0.432929
0
1.12641
0
0
0.455368
0
0.506253
0.624513
0.78346
0.434783
0
0.503687
0
1.11199
0.929558
1.16595
0.593714
0.204929
0.64371
0.527906
0.46679
0
0.269762
0.468242
0.632829
0.545857
0.409563
0.465976
0
1.49909
0.683142
0
0.466816
0.399649
0
0.70412
0.505863
0
0
0
0.896081
0.505732
0
0.356326
0
0.915697
0.594463
0.124286
1.06665
0.60464
0
0.244658
0
0.140591
0.824075
0.448166
0.183695
0.446629
1.39053
0.648332
0.625731
0
0.332702
1.34335
0
0.448995
0.810263
0.951918
0
0
0.803014
0.850558
0.179191
0.292096
0.507844
0.681721
0.673185
0.888373
0
0.637957
0.453207
0.566383
0.38996
0
0.203897
0.595633
0.663805
0
1.50118
1.65611
0.817923
1.40505
1.02257
0.489229
0.652145
0.789287
0.661843
0
0
0.329874
0.581677
0.918874
1.0785
0
0.51329
0
1.19843
0
0.644978
0.975289
0
0
0.81108
0
0.513953
0.396664
0
1.23296
1.0477
0.176387
0.254844
0
0
0.807539
0
0.636196
0
1.17901
0.634964
0.428413
0.477512
1.82896
0.63283
0.417361
1.43551
0.485803
0
0.908208
0
0.253122
0.738821
0.894284
0
0
0.961063
0
0
1.2624
0.670033
0.443133
0.895979
0
0.714675
0
0
1.13217
1.09897
0.414899
0.729493
0.436599
0.772218
0
0.358394
0
1.75409
0.986506
1.64318
0.693127
1.34685
1.14953
1.2023
0.697898
0
0.438181
0
0
0.813086
0
0
0.177131
0.714549
1.15891
0.894784
0.387631
0.516744
0.365753
0.773426
0.597336
0
0
0.481657
0.377471
0.615181
0.349349
0
0.716601
0.428857
0.492066
0.979151
0.877935
1.09165
0
0.482638
0.153295
1.01142
0.123697
0
0.606164
0.513019
0.323065
0
0
0.392041
0.350729
0.318229
0
0.744785
0.892465
0.419013
0.378814
0
0.563928
0.625431
0
0.598009
0
0.729588
0.34281
0.338679
0.454084
0
0.438344
0
0
0.520082
0.329897
0
0.63224
0.467866
0.657634
0
0.459183
0.303668
0.850045
1.0536
0
0.402656
0.527145
0.866819
0.583573
0
0.499192
0.142324
0
0.509988
0.473848
0
0.191038
0
0
0
0.513234
0.414535
0
0.671766
0.561017
0.0979261
0.331266
0.535211
0.83498
0.0989128
0.870103
0.611032
0
0.600362
0
0.126615
0
0.382409
0.580012
0.371511
0.543429
0.38881
0.525498
0
0.431891
0.501437
0.725326
0.629189
0
0.433729
0.442937
0
0.62448
0.555273
0.817106
0.739363
0
0
0.689662
0.635056
1.28795
0.458152
0.811459
0.813755
0.925282
0.732607
0
0.273754
0
1.03806
0.388122
0.262281
0.401297
2.00905
0.657999
0.60907
1.04804
1.26091
0.704004
0.346103
0.835701
1.55553
3.33235
0.574051
0.678895
0.802085
0.566496
0.763877
1.05392
0.551315
0
0
0
0.487851
0.206402
0.60084
0.626919
0
0
0
0.644197
0
1.03381
0
0.807999
0.254156
0.40748
0.286623
0.373967
1.21834
0
0.966513
1.82989
0.825743
1.62363
0.410241
0.929795
0
0.995129
0.458064
0.789331
0.359491
1.36804
0
0.913908
0.523826
0.502966
0.333364
0.483209
0.388565
0
0.930897
1.03607
0
0.420505
0
0.66303
1.45325
0
0
0
0.851362
0.313062
0.717955
0.314617
0.591245
0.449869
1.06072
0.502344
0.569705
0.57756
0.768636
0.785771
0.632436
0.6809
1.22145
0.79454
1.59413
0.938313
0
0.613776
1.05571
0.168629
0.954177
0.760326
0.489427
0
0.457782
1.80409
0.606339
0.639024
1.24797
0
0.783344
0.598032
0.436733
0
0.506414
0.687828
1.00001
0.485872
0
0.467702
0.402843
0.81671
0.500647
0.74196
0
0.681555
0.877582
0.711643
0.527796
0.453266
0.590349
0.770016
0.849963
0
0.661523
1.75455
0.576749
0.646887
0.519952
0
1.02704
0.720831
1.01822
1.46659
0.32335
0
0.607384
0
0.4563
0.48444
0
0.470829
1.3101
0.604238
0
0
0
0.581113
0
0.787478
0
0.960901
0
0.487636
0.64112
0.955187
1.03332
0.521629
1.61315
0.758975
0.63167
0.117355
0.500709
1.16854
0.481766
0.321191
0.696256
1.131
0.340733
0.595135
0.211977
0.850499
0.585356
0
0.524704
0.845751
0.35916
0
0.307252
0.129361
0.704553
0.551014
0
0.641444
0.737902
0.429639
0.588223
0.614584
0.867154
1.30689
0.950375
0
0.518732
0.532351
0.120419
0.479802
0
0.609922
0.305828
0.5539
0.944741
0.757941
0.894012
0.43091
1.24253
0
0
0.572231
0.357401
0
0.572568
0
0.44641
0.851071
0.880138
0.696694
0.500897
0.549372
0.827142
0
1.19937
0
0.389228
0.603598
1.61302
0.644009
0
0.494444
0.554205
0.199053
0.253145
0.184126
0.710604
0.604516
0.675863
0.503855
1.53457
0.41428
0.629929
1.07494
0.562619
1.08108
1.00447
0.952613
0
0.139345
0.60444
0.419751
0
0.358576
0.67228
0
0
0.816019
1.03469
0.32251
0.670988
0
1.01755
0
0
0
0.41112
0
1.11706
0.495825
0.323293
0.375596
0
0
0.524074
0
0.479222
0.952863
0.566755
0
0.995792
1.05465
0.725449
1.12504
0.263416
0
0
0.492999
0.437129
0.398922
0.363362
0.718025
0.805834
0.834451
0.329278
1.04618
0
0.503983
0
0.436314
0
0.390652
0.824921
0.787951
0
0.715418
0.535492
0.762684
0.458721
0.525524
0.549773
0.699367
0.370655
1.2057
1.14206
0.597056
0.554296
0
0
0
0
0.401096
0
0.276983
0.423716
0.854389
0
0.684256
0
0.606505
0.604123
0.552973
0.489455
0.685912
0.630155
0.540383
0
0.533989
0
1.246
0
0.991621
0
0
1.32591
0.568714
0.780019
0.883541
1.3424
0.346579
0.347854
0
0
0
0
1.01709
0.528769
0
0.495487
1.12046
0.660075
0.355603
0.62651
0.505109
0.477922
0
0
0.669181
0
0.720005
0.636435
0
0.421491
0
0.556119
0.686654
1.06397
0
0
0.481004
1.14915
0.390189
0.428927
0.381287
0.791387
0.0143486
1.44976
0.4806
0.617929
0.811781
1.78248
0.61063
0.729814
0.48722
0
0.84339
1.66954
2.08005
3.48082
0.52108
0.594696
1.2058
1.13588
0
0
0.874944
0
0.700984
0.482761
0.489923
0
0.631283
0.396064
0.914867
0.975614
0.641479
0.747356
0
0
0
0
0
0
0
0
0
0
0
0
0
0
0
0
0
0
0
0
0
0
0
0
0
0
0
0
0
0
0
0
0
0
0
0
0
0
0
0
0
0
0
0
0
0
0
0
0
0
0
0
0
0
0
0
0
0
0
0
0
0
0
0
0.379088
0.729735
1.17043
0.503276
0.495715
0
0.38709
1.00696
0.325165
0.359556
0
0.533956
0.398748
0
0.705847
1.72446
0.507548
0.621343
0
0.45427
0.576125
0
0.496298
1.03567
0.294523
0.480149
0
0.541587
0.471268
1.8994
0.630842
1.21566
0
0.219096
0.705391
1.26502
0.365687
0
1.08222
1.03604
0.456103
0.861732
0
0.267129
0.571257
0
0.427614
1.51022
1.77217
0.123046
0
0.788921
0.582181
0
1.34099
1.04773
0.393831
0.873399
0
0.185293
0.696099
0
0.771217
0
1.85815
0.385596
0.510171
0.573318
1.30509
0.470734
0.616604
0.495214
0.827797
0
0.978833
0
0.333885
0.391569
0.680592
0.516433
0.367754
0
0.709085
0.794367
1.21348
0.844516
0.762398
0.514533
0.367775
0.723443
0
0.35351
0.652085
0.471353
0.496587
0.233903
0.510899
1.82387
0.645225
0
0
0
0.756991
0.514462
0.843446
0.974996
0.778727
1.0228
1.18907
0.529494
0.435879
0.323985
0.306985
0
0.602716
0.251718
0.700082
0.627477
0.677886
0
0.172696
1.67457
0.601887
0
0.43143
0.394746
0.571961
0.421594
0.259761
0.506594
0
0
0.463766
0
0.142664
0.787523
0.820292
0
0.513164
0.429389
0.414571
0.683466
0.257996
0.616592
1.23586
0.816947
0.347757
0.716871
0
0
0
0.304304
0.544455
0.68324
0.145998
0.75871
0.482083
0.720264
0.310369
0.440511
0
0.388609
0.701307
0.701145
0.843014
0
0.743083
1.17977
0
0.315218
0
0.29313
0.350979
1.07451
0
0
1.03549
0.535178
0
1.16088
0.574455
0.579995
0.660086
0.360528
1.11808
0.833689
0.605275
0
0.566312
0
0.673191
0.924321
0.508962
0.702983
1.10841
0
0
0.699461
0.739687
1.15307
0.316257
1.02718
0.534564
0.742202
0.594128
0.14339
0.665631
0.290764
1.03182
0.371357
0.433451
0.548827
0
0.709824
0.676552
0.632168
0.677748
0
0
0.889011
0
0.563493
0.293755
0.668576
0
0.802005
0
0.306696
0
0.227546
0
0.894794
0
0
0
0.259529
0.189021
0
0.255422
0
0
0.751944
0
0
0
0.573586
1.02837
0.639269
1.18173
0.564315
0.534703
0
0.262848
0.459239
0
0.466858
0.986591
0.65438
0.626942
0.842543
0.884709
0.718817
0.586196
0.655871
0.858994
1.36224
0
0
0.509772
0
0.4322
0.518782
0.514369
0.389619
0.461145
1.27775
0.0160762
1.22802
1.01829
0.605549
0.43384
0
0.491019
0
0.219513
0.458742
0.985347
0.562346
0.753333
0
0.36776
0
0.600107
0
0.514545
1.62962
0
1.11068
0.589321
0
1.01339
0.153241
0.194334
0.348121
0
0.597786
0.557842
0.250523
0.387669
0.693963
0.709864
0.596156
0.609618
0.597266
0.748667
0.527704
0.447613
0.981415
0.941324
0
0.539842
0.396235
0.752187
0.291568
1.79859
0.524069
0.659765
0.972695
0
1.11778
0.942738
0.539843
0.368512
0
0
0.245807
0
0.708722
2.74039
0.797809
0
0.431787
0
0.358222
0.62185
0.912699
0.298088
0.320367
0.281376
1.25258
0.61509
0.435312
0.245153
0.308665
0.749254
0
0.900048
0.667242
0
0
0
1.09072
1.00127
0.584948
0.514972
0.933033
0.79582
0.828613
0
0
1.48179
0.811287
0.567675
0.604456
0.627153
0.636203
0.868733
0.595033
0.688688
0.791441
1.97157
0.137169
0.59883
0.512561
0
0
1.18143
0.781402
2.08356
1.10922
0.795571
0
0.59991
1.03942
0
0.656493
0.37242
0
0.952129
0
2.06508
1.40252
1.33381
0
0.286487
0.301467
0.786891
0.384463
0.359564
0
0.613657
0.918732
1.67343
0.774933
1.43393
0.351889
0.607452
0.251043
1.4473
1.00113
0.915868
1.22777
0
0.185356
0.56904
0.673777
0.665427
0
0
0
0.899103
0.51088
0
0.584227
0.502111
0.631255
0
0
0.214168
0.581935
0.462225
0.682121
0.335979
0.7565
0.83482
0.666027
0.976972
0
0.267708
0.635274
0.278026
0.444803
0
0.559599
0.70858
0.638894
0.460237
0.726998
0.309957
0.560358
0
0.300555
0
0.72314
0.731104
0.656242
1.7326
0.569097
0.767324
0.910514
0.814214
0.693879
0.75744
0.616586
0.497315
0.562329
0.838477
0.98114
0.521911
0
0.330032
0.593518
0.445782
1.59453
0.540791
0.802736
1.08727
0
0.411495
0
0.563072
0.358452
0.95959
0.581115
0.394853
0
0.693365
0.439252
0
0.819964
0.588644
0.673391
0
0.852332
0.555074
1.08665
0.461527
0.744123
0.589153
1.0364
0.722261
0.464611
0.406266
0.923667
0
0.602228
0.630895
0.864301
0.445006
1.13665
0.931924
0
0.594683
0.537561
0.627277
0.193621
0.758153
0.568231
1.09688
0.607411
0.306768
0.655475
0
0.336504
0.234091
0.307236
0
0.446981
0.363973
0.928347
0.997556
0.943058
0.349195
0.725198
0.945981
0.645695
0.365209
0
0
0
0.254396
1.06039
0.468466
0.239592
0.579345
0.770443
0.612115
0
0.496398
0.15054
0.342065
0.245124
0
0.615029
0.470085
0.500953
0.37294
0.623137
0
0.43574
0.432382
1.26114
0.87271
0
0.183858
0
1.14939
0.826734
0.911919
0.916298
0.516082
0.96897
0.631289
0
0.500664
0
1.80243
0.985099
1.24134
0.301167
0
0.53674
0.771455
0
0.929744
0
0.519777
0
0.751888
0.685602
0.706689
0.603682
0
0
0.708995
0
0
0.480662
0
0.140071
0.444433
0.575126
0
0.585748
1.45701
0.780253
0.410007
0.282501
0.671658
0
0
0
0.29921
1.64545
0
0.370845
0
0.489539
0.613547
0.43622
0.275437
0.869523
0.674178
0.287832
0.580211
0
0
0.505486
0
1.00802
0.208393
0
1.1808
0.450448
0
0.485887
0
0.967687
0.613218
0.940208
0.649327
1.02624
0.34862
0
0
0.38597
0.686699
0.390333
0.821253
0.732585
1.02281
0
0.407834
0.602361
0
0
0
0
0.25586
0.238576
0.379943
1.20582
0
0.393731
0
0.587869
0
0.593872
0.719569
0.904213
0.918929
0
0.683943
0
0
0.662231
0
0
0.12631
0.510058
0.811138
0.509723
1.20063
0.544702
0
0.576735
0.875483
0.6629
0.703706
1.39917
1.22618
0.535863
0.805056
0.558294
0.997187
0
0.995107
0.249017
0.971182
0
0
0.600379
0
0.746843
0.757415
0.389156
0
0.872468
0
0.932787
1.18264
0.46406
0.339483
0
0.499793
0.214796
0.766063
0.416287
0.963736
1.07153
0.467877
0.412113
0.994325
0.845894
0.651713
0.944337
0
0.476726
1.93083
1.1815
0.403448
0.985565
0.641311
0.785654
0.23266
0
0.724621
0.784374
0.585268
0.612518
0
0
0.561673
0.502518
0
0.806429
0.405569
0.212251
0.503222
0.803897
0.850148
0
0
0
0.84891
0
1.06828
1.04374
0.477247
0
0.158225
0.911865
0.486019
0.707874
0.921302
0
0.756211
0.61509
0.771243
0.544468
0.753433
1.41634
0.716931
1.01314
0
0.900047
0.811536
0.407106
0.670946
2.00087
0.542702
0
0
0.659872
0.444288
0.574971
0
0.991899
0.745793
0
0.680816
0.62621
0.383574
0.268778
0
0.364679
0
0.586416
0.713241
0.593997
0
0.263729
1.78902
0.665652
0
0.651467
1.41222
2.31018
0
0.618632
0.191032
1.42155
0.334159
0.600763
0.73707
0.461103
0.63403
0.216535
0.52766
0.539857
0.187421
0
0
0
0
1.93258
0.596928
0
0.860382
0.372848
0
0
0.297779
1.07767
0.974366
1.11066
0.913955
0.879343
0.787863
0.76573
0
0.812424
0
0.545501
0
0.60319
0.492962
1.30935
0
0.717048
0
0
0.495422
0
0.79769
0
0.968315
0.759051
0.877535
1.58586
0.452199
1.23115
0.26191
0.474505
0.127407
0.521724
2.17991
0.602091
0
0
1.18835
1.57907
0.636037
0
0.503547
1.70922
0.558739
0
1.12317
0.94518
0.454501
0
0.513317
0
0.693365
0.316527
0.668165
0
1.21737
1.72751
0.980277
1.28104
0.317665
0.603373
0.309807
0.233038
0.321079
0
0
0.382403
0
0
0
1.00088
0.572292
0.498817
0
0.607535
0.534081
0.794842
0.733321
0.38075
0.443528
0.856565
0
0.563413
0.776244
1.14177
1.26359
1.24354
0
0.786475
0
0.757501
0.536737
0
0.885507
0.80961
0.886075
0.740534
0.941497
0
0.415013
0
0
4.21702
0.614433
0
0.301129
0.422751
0.531861
0
0.892197
0
1.11304
0.384071
0.678818
0.70809
0
0.501451
0
0
0
0
0
0
0
0
0
0
0
0
0
0
0
0
0
0
0
0
0
0
0
0
0
0
0
0
0
0
0
0
0
0
0
0
0
0
0
0
0
0
0
0
0
0
0
0
0
0
0
0
0
0
0
0
0
0
0
0
0
0
0
0
0
0
0
0
1.67162
0
0
0
0
0.558893
0
1.44856
0.306644
0
3.38088
0
0
1.04503
0
1.48976
0
0
1.61573
0
0
0.779596
0
0
0
0
0.898502
0
0
0
0
0
0
0
0
0
0
0
0
1.10976
3.77781
0
1.43393
0.42093
0
1.62736
0
0
0
0
0
0
0
0
0
0
0
0
0
0
2.15333
0.868119
2.1461
1.45662
1.0328
0
0.485135
1.01888
0.222167
0.798611
0.91877
1.2205
0
0
0
0
0.824851
0.244501
0.668847
0.839298
0.480707
0
2.83255
0.90673
0
1.31795
0
0
0
0.416337
0
0.260409
0.726477
0
0
0.807749
1.1696
0.792013
0
0.481634
0.708925
0.479304
0
0.997892
0.693402
0.644729
1.23349
0.476743
0
0
0.231948
0.563328
0.645034
0.772911
1.29178
0.705562
0.648008
0.952341
0.905116
0.724931
0
0.696744
0.759166
1.62398
0
0.524551
0.427554
0.473229
0
0.41324
0.369512
0.455017
0
1.13152
1.04084
0.928963
1.40605
0.707895
1.51306
0.425974
0.797435
0.182799
0.576403
0.773256
0
0.549462
0
0.363639
0.388858
0
0
0.505029
0.205023
0.31065
0.567923
0
0.624881
0
1.35236
0.978944
0.559857
0.375412
0
0.93144
0
0.438696
0
1.11273
0
0.535894
0.755441
0.395202
0.430298
0
0.499766
0.657994
0
0.230704
0.543514
0
0.182058
0
0.734261
1.08069
0
0.391516
0
0
0.775607
1.09404
0.939008
0.29848
0.259587
0
0.386151
0.764163
0
0
0.409334
0
0.647476
0.809109
0.258763
0.784071
0
0.384843
0.431036
1.05712
0
0.667742
0.762998
1.94527
1.76009
0.890791
0.673438
0.438963
0.827743
0.811967
0.835838
0
1.07009
0.427295
0
0.376316
0.260059
0.737626
1.21644
1.21901
0
0.578817
0
0.510286
0
0.574227
1.11044
0.314986
0.79904
0
0.991929
0.883684
0.557699
0.923452
0.528164
0.453917
0.467429
0.484777
0.49411
0.610262
0.670935
0.695649
0.953068
1.21604
0.696041
0
0.403347
0
1.005
0
0
1.7072
0
0.573617
0.829355
0.567377
0.757824
0
0.348706
0
0.681861
0.375162
0
0.88961
0.771653
1.25496
0.581936
0.680529
0
0.754835
0.405801
0.698482
0
0.678893
0.610459
0
0.642786
1.43851
0.440057
0
0
0.352245
0
0
0.590834
0.988811
0.723956
0
0.381083
0
0.382479
0
0.687413
0.198455
0
0.422036
0.557016
0.708773
0
0
0.618989
1.34469
0
0.51856
0.416473
0.545971
1.47682
0.65623
0
0.32269
0.346688
2.4437
0.784367
1.39957
0.854732
0.851579
0.47601
0.799817
0.560289
0.615204
0.91297
1.10239
0
0.555608
1.02291
0.364861
0.628119
0
1.54044
0.614258
0.557971
0
0
1.13678
0
0.756546
0
0.568787
0
1.0471
1.15881
0.396551
0
0.766487
0.842955
0
0.531998
1.57964
0.750452
1.00446
0.439797
0.514591
0.336871
1.24351
0.144275
0
0.685093
0.323306
0
0.374687
0.389091
0
0.776065
0
1.33479
0.495176
0.930015
1.25075
0.766757
0.454626
1.2695
0.291919
0.303052
0
0.711053
0.661926
0.445705
0.822872
1.08216
0
0.560163
0.791476
0.43026
0
0.767116
0.550674
0.839593
0.781692
0.25001
0.472791
0.566869
0
0.508449
0.778589
0
0.141098
0
0.903624
0.645303
0.948456
0.390076
0.39707
0
0
0.633086
0.548515
0
0.851484
0
0.557142
0
0.68043
0.557935
0.509194
0
0.768044
0.796486
0
0.270927
0.644647
0.717348
0.354549
0
1.35354
1.143
0.680291
0
0
0.204226
0.270288
0
0
0.67718
0.708814
0.939173
0.736284
0.210309
0.615126
0
0.579016
0.167083
0.888957
0.426363
1.06395
0
0.603829
0.510109
0.471699
0.635298
0.456305
0.357384
0.419141
0.540533
0.415908
0
0.497697
0
0.53282
0
0.403764
0
0.665263
0
1.47907
0.600153
0.101759
0
0.546716
1.42322
0.555586
0
0.532354
1.11027
0
0.624689
0
0.709403
0.246268
0.524204
0
0
0
0.418738
0.615985
0
0.502233
0.426433
0.958001
0
0.230328
0
0.0711569
0.219652
1.35241
0.406929
0.937318
0.814774
1.03772
1.40637
0.586647
1.04925
0.406717
0
0.418891
0
0.410734
0.456652
0.817189
0
0.862327
1.00596
0.918737
0
0
0.401536
0
0.632012
0.427969
0
0.33818
0
0.140559
0
0.358556
0.71088
1.98301
0
0.471175
0.668269
0.852573
1.19288
0
0.982911
0
0.781879
0.498949
0.474673
0.469507
0.648315
0.409905
1.85097
0.6176
0.82235
0
0.57618
0.926016
0.469999
0.359611
0.31749
0.444335
0.965551
0.929669
0.376414
0
0
0.128317
0.558489
0.536933
0.663195
0
0.606809
0.256592
0.305944
0.630236
0
0
0
0.768703
0
0.654711
0.733407
0.342824
0.793406
0
0.883741
0
0.902001
0.573159
0
0
0.776429
0.862784
0.910517
0.662768
0.0924484
0.674025
0.759557
0
0.405442
0
0.490096
0
0.817381
0
0.449409
0
0
0.414552
0
0
0
0.413836
2.05631
0.232472
0.654807
0.476055
0
0.685697
0
0.5349
0.412454
0.666868
1.37896
0.682121
1.3075
0.49371
0.572318
0.499351
0.606953
0
0.438924
0.186959
0.384989
1.22494
0
0.387922
0.878685
0.363514
0.903041
0.338976
0.814351
0.569718
0.887967
1.20665
0
0
0.245097
0
0.543941
0.442725
0.9801
0.932202
0.485038
0
0
0.429597
0.798169
0.310127
0.316463
0.279264
0.162523
0.243944
0.516237
0.643498
0.52224
0.758497
0.474646
1.14393
0
0.512507
1.08783
1.33047
0.405164
0
0
0.76248
1.25015
0.546499
0.106226
0.992677
0.704214
0
0.58926
0.640001
0.338449
0.265907
0.378454
1.01769
0.475107
0.399222
1.07918
0.767029
0.477035
0.229562
0
0.440766
0.497395
1.63643
0
0.399836
0
0.632788
0.57708
0.651621
0.708151
0.754121
0.817268
0.519366
0.260628
0.665994
0.34233
1.44158
0
0.496058
0
0.401504
0
0.493744
0.22249
0
0.790538
0.414097
0
0.627732
0
0.691798
0.785962
0.948085
0.760784
0.341794
0.921354
0.364642
0.439672
0
0
0.507745
2.23301
0.882161
0.339451
0.903176
0.638967
0.689104
0.667036
0.500256
0
0
0
0.205525
0.75635
0.467112
0.494294
0.148169
0.669894
0.708023
0.359236
0.570222
0.528407
0
1.7192
0.480729
0.533148
0
0.650631
3.00516
0.13196
0.202498
0.560007
0.951958
0.487418
0
1.09515
0.710302
0
0.701612
0.288625
0.42381
0.966673
0.535276
1.00167
0
0.382262
0.932655
0.488721
0.215076
0.591099
0.609216
0
0.592808
0
0.557561
1.9034
0
0.660981
0
0.734977
1.51107
0.591668
0
0.563372
1.32219
0.707592
0.387959
0.726153
0
0.357688
0
0
1.42754
0
0.352229
1.26377
0.942359
0
0
0.629888
0.900371
0.732701
0
0.754814
0
0
0.746881
0.692373
0.306751
0
1.13117
1.05288
0
1.18377
0.708702
0.655938
0.436373
0.557769
0.957193
0.588939
1.0225
0.542737
0.445543
0.302744
1.14571
0
0.542756
0
0.693495
0.537829
0.925042
0.898949
1.79001
0.664389
1.77341
0.888398
0
0
0.995181
0
0
0.456194
1.63515
0.97765
0.462084
0
0
0.714093
0.743212
1.2754
0
0.459774
0.707576
0.335938
0.860241
0
0.578538
0
0.488073
0
0
0.490565
0.803871
0
0
1.17519
1.35103
0.200917
0
0.843422
0.184651
0.416594
0.782986
0.600549
0
0.34624
0
1.04613
0.580581
0
1.35257
0.772899
0
0.979729
0
0.629781
0.518194
0.83301
0.704809
0.557617
0.721817
0.265633
0.633759
0
0.478474
0
0
1.1042
0.996955
1.08694
0.482456
0.997377
0
0.506156
1.58721
1.55587
1.23142
1.5558
0
0.479031
0.319443
1.35399
0.440672
0.653512
0.816997
1.15512
0
0.325256
0.793014
0
1.35665
0.447369
1.04431
1.39103
1.099
0.579577
0.35766
0.504801
0.615695
0.602401
0.426501
0
0.418115
0
0.515946
0.829316
0.981106
0.20518
1.66911
0
0
1.3598
0.916071
0
0
0
0
0
0
0
0
0
0
0
0
0
0
0
0
0
0
0
0
0
0
0
0
0
0
0
0
0
0
0
0
0
0
0
0
0
0
0
0
0
0
0
0
0
0
0
0
0
0
0
0
0
0
0
0
0
0
0
0
0
0
0
0
0.344792
0.50626
0.692676
0.543087
0.491949
0
0.383103
1.39567
0.352361
0.66351
3.3277
0.586872
0.384921
1.38663
0.551624
1.142
0.275169
0.338065
0
0.432452
0.656835
0.904651
0.522961
0.944689
0.343253
0.526152
0
0.394062
0.339515
0
0.480838
1.07384
0.109246
0
0
0.301118
0.984391
0.570237
0.299996
1.14238
0.754392
0.426826
0
1.68877
1.23274
0
0.735609
1.80501
0.553711
1.01015
0
0.547415
1.17137
0
0.231112
1.07179
0.9181
0.478701
0.510078
1.06719
0.386026
0
0.843185
0.298489
0
0.282237
0
0
1.24622
0.679203
0
0.594437
0.665406
0.398162
1.3306
1.09528
0.404648
0.61898
0.428037
0
0.332416
0.529787
0.464136
0.87908
0.582181
0
0.802738
1.45482
1.0452
1.00699
0
1.01478
0.212021
0.772638
0.503342
0.682794
0.211193
0.355041
0.832808
1.03491
0
0.519781
0.990191
0.281468
0.694362
0.503636
0.40725
0.58406
0
0
1.61256
1.17039
0.578429
0.55645
0.424696
0
0.652688
0.31877
0.174091
0.513311
2.34606
1.6894
1.13038
0.751922
0.943562
0.914256
0.641337
0
0.647696
0.78955
0
0.866611
0.471697
0.613641
0.332157
0
0.737781
0.724998
0.961571
0.39615
0.773911
0.345328
0.692767
0
0.485943
0
0.322493
0.643844
0
0
0.386468
0.406585
0.895444
0.7749
0.580201
0.600532
1.54212
0
0.655045
0.502156
0
0.544678
0
0.356305
0
0.182219
0.374924
0.695561
0.889156
0.593449
0.330952
0.825005
0
0.802821
0
0.709977
0.865365
0.273541
0.657284
0.582043
0.667839
0.664302
0
0.263101
1.16781
1.29888
0.600125
0.543858
0.648945
0.684488
0.589744
0.420383
0.639988
0.228825
0.669044
0
0
0.48979
0.441895
0.474598
0.83735
0.443221
0.645303
0.819095
0.510476
0.273875
1.02588
0.797788
0.541859
0
0
0.9023
0
0.18311
0
0.53682
0.646354
0.517105
0
0
0.295872
0.632096
1.14816
0
0.635051
0.779516
0.585038
0.0653041
0.18311
0
0.704039
0.468415
0.798234
0.600499
0
0.406748
0.398174
0.32343
0.566312
0.46006
0.978855
0.75067
1.53956
1.41292
0
0
0.697362
0.250445
0.325688
0.518994
0
0.274111
0
0
0.396155
0.563909
0.446768
0
0.858263
0
0.740368
0
0.505192
1.0502
0.918012
0
0
0.349649
0
0
0
0
0.522246
0
1.1203
0.451676
0.9988
0
0
0.613824
0.355054
0.651229
2.15213
0.220929
0
0.690469
1.47239
0.604368
0.208428
0.866876
0.971773
0
0.344257
0
0.654839
1.04469
0.657865
0
1.33618
0.575491
0.348222
1.51113
0.606703
0.229294
0.387801
0
0.605535
0.887252
0
0.666964
0.395803
0.489071
0
0.809299
1.0537
0.665234
0.323266
1.18355
0.827882
0.4128
0.93925
0.477524
0
0.509327
1.69444
1.23026
0.590289
0.910309
1.53394
0.751465
0.401028
1.10988
0
0.655624
0.356263
0.514672
0
0
0.780168
0.706275
0.286934
0
0
0
0.725471
0.589245
0.631894
0.204285
0.351676
0.378712
0.369919
0.539574
0.386174
0.238729
0.330328
0
0.358273
1.01276
0.574834
0.83713
0.765309
0.643948
0.574399
0.377281
0.242876
1.35499
1.09561
0.248882
0.444611
0
0.565992
1.0211
1.08457
1.19491
0.995115
0.669627
0.840112
0
0.671103
0
0.528249
0
0.412834
0
0.79246
0.73856
0.383839
0.705341
0.321647
0
0.408091
0.542385
0.338676
1.35187
0
0
0.439481
0.248125
1.55408
0.457603
0
0
0.87208
0.768906
0
0
0.3127
0
0.324143
0
0.602426
0.696985
0
0.567492
0.888145
0.619599
0
0.345203
0
0.680687
1.73343
0
0.546956
1.40082
0
0.543332
0.679826
0.693429
0.632099
0.595968
0.382731
0.759922
0
0
0.271983
0.440739
0.507639
0.652532
0.537724
0.70957
1.36103
0.688637
0.481251
1.09063
0.550208
0.708673
0.953581
0.911787
0
0.59416
0.907332
0.380598
0
0.325354
0.637315
0.742221
0.734302
0.597775
0.617045
0.457997
0.215494
0
0.460095
1.09436
0.675035
0.895811
0.657343
0
0
1.03512
0
0.842481
0.952192
1.14449
0.630446
0
0.599861
0.477358
0
0.310225
0.578026
0.843409
0.678313
0.827352
1.11265
1.01501
0.546034
0.544483
0.061708
0
0.382259
0
0.278954
0
0
0.641083
0.597349
0
0.327614
0
1.09766
0.514802
0.623325
0.099697
0.391792
0.84132
0.989986
0.959682
0.973295
0.334019
0.498746
0.948663
1.03914
0
0.440416
0
0.786389
0.652926
0.613408
0.505226
0.434254
0.601918
0.4523
0.565886
0.700842
0.51622
0.355377
0
0.313834
0.769121
0.760935
0.652496
0.347523
0.25653
0
0.384649
0
0.554865
0.686108
0.557802
1.13734
0.771493
0.769344
0.916978
0.575157
0.766878
0.688417
0
0.509432
0
0
0.53465
0.366852
0.795325
1.06515
0.514767
0
0.703897
0
0.359506
0
0.449685
2.23587
1.15392
0
0.614716
0
0.299118
0
0
1.0177
0.414521
0.743073
0
0
1.39772
0
0.762396
0.74856
1.0155
0
0.758709
0
0
0.618113
0.336204
0.706399
0
0.493209
0
0.666903
0.401992
0
0.233178
0.300341
0.186668
1.00294
0
0.588873
0
0.899475
0.693706
0.292069
0
0.984479
0
0.259981
0
0.34781
0
0.349753
0.918203
0.484555
0
1.16323
0.806049
0.574451
0.610371
0.551505
1.09828
0
0
0.190911
1.06969
1.57207
0.538061
0.286764
0.458362
0.568345
2.9942
2.21112
0
0
0.342993
0
1.18441
0
0.166872
0.5009
0.48995
0
1.241
0.697246
0.336175
1.11262
0.595095
0.743687
0
0.677793
0
0.390265
0
0.803223
0
1.38343
0.343008
0.363893
0.241528
0.281649
0.325527
0.438972
0
0.506347
0.801446
0.577839
0.739111
0.437841
0
0.509865
0.517377
0
0.0506939
0.215792
0.936371
0
0.656828
0
0.460428
0.579184
0.434639
0
0.644882
0.977655
0
0
0.605467
0.898194
0.896082
0.554761
0.876908
0
0.0663066
0.685009
0.865818
0.571642
0
0.40762
0.170047
0.784175
0.413183
0.456048
0
0.524124
0.62606
0.604761
0
1.17729
0.188808
0.623389
0
0
0.465251
0
0.784219
0.862293
0.580895
0.935582
1.01478
0.581613
1.73629
1.2242
0.8527
0.540311
0.406864
0.193373
1.18096
0.942829
0.942276
0
0
1.14959
1.26197
0.751725
0.515404
0.698237
0
0
0.488604
1.00588
0.676734
3.10749
1.22909
0
0.833228
0.30574
0.738187
0.482992
0.502072
0.66292
0.375201
0
0
0
0.534386
0
0.760601
0.228168
0.437748
0.507489
0.643902
0
0
0
0.78353
0.799084
1.32355
0.739504
0.565775
0.859506
0.316957
0.394767
0.576907
0.867916
2.4977
0.239023
0
0.763785
1.12977
0
1.19053
0
0
0.328859
0
0.959149
0.600776
0.688765
0
0
1.2927
0
1.22175
0.717068
0.710408
0.413493
0.132429
0.324925
0
0.268531
0.485313
1.18969
0.79836
0.752318
0.51059
0.64223
0
0.950973
0.311767
0.306006
0.628976
0.368699
0.971041
0
0.339654
0.634077
1.10292
1.6229
0
0.94524
0
0.409895
0.552057
1.05052
0.241748
0.247095
0.332128
0.442737
3.01617
0.599507
0.329912
0.688366
1.00555
0
0
0.981974
0.845352
1.04565
0.625203
0.955466
0.196307
0
0.924126
0.872574
0.67601
0.730563
0.610079
0
0.815261
0.825071
0.612621
0.755311
1.03741
1.60607
0.514686
0.846957
0
0.836933
0.497604
1.95051
0.872623
1.96501
1.28822
0.620155
0.663122
0.437733
0
0
1.17313
0.516005
1.48643
0.749008
0.40878
0.938809
0.447709
0.482055
0
0.540603
0
0
0.934001
0
0.512846
0.581208
0
0.940468
0.850366
0.332505
0
0.497308
0
0.181712
0.264147
0.311583
0.679041
0.710718
0
1.11461
0.704393
0
0.590784
0
0.383503
0.523858
0
0.627373
0
0
1.39683
0.75464
0.921404
0.759337
2.22062
0.360283
0.31136
0.370179
0
0.636579
0.604501
1.386
0.700843
0.855791
0.707413
0.61002
0
0.575202
0
0.888635
0.101199
0.880871
0
0.362874
0
0.152132
0.611703
0.946513
0.620095
0.659156
1.54099
0.366915
0.469005
0.285322
1.03397
0.707445
1.37509
1.37943
0.927028
0.413494
0.483453
0.603747
0.304629
0.742464
1.42413
0.483669
0.629463
0
0.621409
0.781236
1.73732
1.36541
0
0
0
0
0
0
0
0
0
0
0
0
0
0
0
0
0
0
0
0
0
0
0
0
0
0
0
0
0
0
0
0
0
0
0
0
0
0
0
0
0
0
0
0
0
0
0
0
0
0
0
0
0
0
0
0
0
0
0
0
0
0
0
0
0
0.324057
0.612353
0.347847
0.465243
0.570391
1.65189
0.52246
1.21363
0.468244
0.491619
0
0.596795
0.569781
0.298796
0.546398
1.26369
0.3651
0.38063
0
0.369581
0.599909
0
0.4758
1.44807
0.33322
0.487998
0.675495
0.605665
0.377384
0
0.553325
0.741437
1.83743
0.553742
0
0.76064
0.235595
0
0.227701
0.25532
0.0717783
1.26792
0.616858
1.10131
1.14166
1.11475
0.421064
0
0
0.344415
0
0.601152
0.517389
0
0.433635
1.03004
0.280517
1.10068
0
0.585373
0.204772
0
0.342964
0.959597
0.534031
0.944369
0.662445
0.817963
0
0.730215
0.464397
0.631197
0.43193
0.523611
0.601692
0.514519
0.634244
0.588846
0.64273
0.405571
0.405527
0.587808
1.27538
0.727636
0
0.764852
1.29488
0.397518
0
0.752086
0.753283
0.856112
0.478652
0.959744
0.283556
0
0.290063
0
0.462554
0.936805
1.03011
0.593794
0.808571
0.683354
0
0.619447
0
0
0
1.34793
0.975009
0.460653
0.723705
0
0.520725
0.67881
0.495298
0.302264
0.360209
0.61458
0
1.25533
0
1.2561
0.512267
0.296961
0.492526
0.520625
1.08983
1.28482
0.724677
0.851382
1.35384
0
0.359081
0
0.751193
0.347391
0.737073
0
0.960172
0
0
0.5006
0.301149
0.453777
0.0551483
0
1.14302
0
0.430545
1.27309
0.47993
0
0
0.88917
1.59269