<?xml version="1.0"?>
<VTKFile type="RectilinearGrid">
<RectilinearGrid WholeExtent="0 32 0 32 0 32" Origin="0 0 0" Spacing="1 1 1">
<Piece Extent="0 32 0 32 0 32">
<PointData>
</PointData>
<Coordinates>
<DataArray type="Float32" format="ascii">
0 0.524874 1.04975 1.57462 2.0995 2.62437 3.14924 3.67412 4.19899 4.72386 5.24874 5.77361 6.29849 6.82336 7.34823 7.87311 8.39798 8.92285 9.44773 9.9726 10.4975 11.0224 11.5472 12.0721 12.597 13.1218 13.6467 14.1716 14.6965 15.2213 15.7462 16.2711 16.796 
</DataArray>
<DataArray type="Float32" format="ascii">
-5.03879 -3.62163 -2.20447 -0.787311 0.629849 2.04701 3.46417 4.88133 6.29849 7.71565 9.1328 10.55 11.9671 13.3843 14.8014 16.2186 17.6358 19.0529 20.4701 21.8872 23.3044 24.7216 26.1387 27.5559 28.973 30.3902 31.8074 33.2245 34.6417 36.0588 37.476 38.8931 40.3103 
</DataArray>
<DataArray type="Float32" format="ascii">
0 0.524874 1.04975 1.57462 2.0995 2.62437 3.14924 3.67412 4.19899 4.72386 5.24874 5.77361 6.29849 6.82336 7.34823 7.87311 8.39798 8.92285 9.44773 9.9726 10.4975 11.0224 11.5472 12.0721 12.597 13.1218 13.6467 14.1716 14.6965 15.2213 15.7462 16.2711 16.796 
</DataArray>
</Coordinates>
<CellData>
<DataArray type="Float32" Name="Scalar" format="ascii">
0
0
0
0
0
0
0
0
0
0
0
0
0
0
0
0
0
0
0
0
0
0
0
0
0
0
0
0
0
0
0
0
0
0
0
0
0
0
0
0
0
0
0
0
0
0
0
0
0
0
0
0
0
0
0
0
0
0
0
0
0
0
0
0
0.189278
0.331556
0
0.557439
0.398271
0
0.391662
1.24403
0.218139
0.219591
0
0.196075
0.327558
1.32583
0.29286
0.98521
0.348757
0.376663
0
0.433707
0.369867
0
0.232663
0.848814
0.0923315
0.317249
0
0.205297
0.296396
0
0.477912
1.05381
0.0738229
0.346291
0
0.250081
1.89428
0
0.272683
0.37343
0.329708
0.144986
0
2.53839
0.0665727
0
0
1.02813
0.221633
0.857176
0
0.378015
1.01388
0
0.30242
0.512295
0.390488
0.141336
0
0.439783
0.183182
0
0.427261
0.576252
0.745488
0.703603
0.791238
0
0.780308
1.78644
0
0.363593
0.586087
0.795383
0.560027
0.688257
0.677307
0.814451
0.740302
0
0
1.03507
1.00934
0.532777
1.16115
0
0
0.935624
1.30302
0.78429
0
0.664043
1.54099
0
1.34376
0.940502
0.794919
0.0943627
0.408564
0
0.734915
0.552357
0.519096
0.980096
0
0
1.00967
0.367288
1.23971
0.751111
1.0831
1.33116
1.05122
0.903848
1.02314
0.533145
0
0
0.580526
0.715287
0.60955
0.424975
0.62522
1.23819
0
0
0.746604
1.56892
0.536816
0.294495
0.546813
1.08113
0.669843
0.454101
0.277408
0.694809
0.716534
0.624001
0.48148
0
0
0.764103
0.225912
0.733299
0
0.821876
0.760724
0.986028
0.794435
0
0.813433
0.477688
0.751268
0.701968
0
0.611992
0.857662
0.700461
0.640448
0.773599
0.409273
0
0.713882
0.920649
0.907549
0.509826
0.660156
1.0831
0.997496
0
0.0535977
0
0.235421
0
0.451198
1.01727
0.673464
0.632631
0
0.663744
0
0
0.689278
0.60642
0.582049
0
0.541502
1.35131
0.843291
0.540815
1.6576
1.20838
0.736936
0.619015
0.898131
0.535846
2.37129
1.04087
0
0
0.874391
0.142922
0.892343
0.23839
0
0.910977
1.27697
0.477086
0.293915
0.109353
0
0.621966
0
0
0
0.242587
0
1.34545
0.946287
0.0903577
0.807782
0.547197
1.32466
1.4009
0.894041
0.875605
0.720209
0.802199
0.953167
1.3202
1.53815
0.577291
0.654247
0.823245
0.872185
0.587741
0
0
0
0.278183
0.393726
1.30631
0.731673
1.15478
2.49096
0.527916
0
0.440134
0
0.873094
0.300482
0.58598
0.369574
0.235466
0.834909
1.02548
0.709057
0
0
0.261748
0
0.813045
0
0
0.770613
0
0.629346
0
0.339413
0.868324
0.398747
0.474767
0
0
0.435734
0.548718
0.771149
0.492178
0.720572
0.840214
0.916114
0
0.766853
0.352896
0.977298
0.675068
0.702285
0.42455
0
0
0.645741
0.994411
0
0.713137
0.605445
1.03255
0.527112
0
0
0.352933
0.694204
0.23173
0.565391
1.00211
0.987897
0.875489
0.863572
0.105533
0
0.783805
0
0.641069
0.746376
0.440361
0
0.955251
3.53562
0.593754
0.599683
0
0.247283
0.706723
0.822423
0
0.669163
0.668632
1.01938
0.465379
0.695641
0.141555
0.369956
0.892758
0
0.409094
0.520442
0
0.564647
0
0.31135
0.480895
1.10312
0.459879
0
0
0.423112
0.381371
0
0.829012
0
0.527137
0
1.02812
0.694411
0
0.710037
0.576947
1.10429
1.12759
0
0
1.0158
1.46455
0.441487
0.652065
0.574325
1.24505
0.637464
1.1402
0.5379
1.22386
0
0
0
0
1.88719
0.490753
0.768711
0.897582
0.450982
0.379441
0
1.16496
1.20964
0.437484
0.341342
0.300906
0.519513
0
0.335116
0
0.624671
0
1.0567
0.199813
1.12596
0.609021
1.21978
0.677575
0
0.597238
0.103749
0.72808
0.534116
0.377625
0.637323
0
0.327154
0.259997
0.878102
0
0.431038
0.319689
0.460567
0
0
0.499059
0.389009
0
0.800914
0.34699
0.283281
0
1.24213
0.469762
0.325296
0.956079
0.221274
0.401889
0
0
0.59849
1.91171
0.944029
1.1563
0
0.806591
0.912705
0
0.798378
0.879059
0.593133
0.760525
0.735257
0.524682
0
0
0.769654
0.424884
0.376337
0
0.616844
0
0.807294
0
0
0.480293
0
0.360632
0.377116
0.605627
0.474058
0.734455
0
0.871397
0.0769397
0
0.125018
0.52066
1.09108
0
0
0
0.477062
0
0
0
0.31158
0
0.469097
0
0
1.2105
0.668679
0.360336
0.391694
0.667152
0
0.161659
0
0.241684
0
0.604004
0
0.9434
0
0.745648
0.582481
0.676139
0.503137
0.715723
0.682422
0
0.812059
0.313959
0.478237
0
0.190267
0
0.298279
0
0.542914
0
0.35741
0.335569
0
0.370997
2.5548
0.775428
0.767782
0.9739
0
0.605838
0
0
0.642232
0.562985
0.663142
0.615518
0.658886
0.647037
0.345201
0.36736
0.965661
0.202199
0.429166
0.666013
0
0
0.724562
0.703792
0.811456
1.13551
0
1.08927
0.278234
0
0.859132
0
1.43857
0.676332
1.01138
0.838392
0
0
0
0.561327
0.543288
0.561129
0.711077
0.753742
0.83849
0.519522
0
0.801147
1.09243
0.771489
0.740468
1.09966
0
0.398502
0.499135
0.950068
0.777854
0
0.356718
0
1.66563
1.05239
0.320392
0
1.89664
0
0.811924
0.65759
0
0.376961
0.337912
0.597285
0.802199
0.887731
0.559183
0.606506
0.781657
0
0.626451
0
0
0.555412
1.08068
0.999343
0.763046
0.558192
0
0.931292
0.548981
0
0.646592
0.542821
0
0.81863
0.186251
0.655557
0.597413
0.587663
0
1.05956
0
0.419365
0.932752
0.825041
0.505268
0.709187
0.560184
0
0.507232
0.817539
0.296023
0
0.33431
0.487655
0.574354
0.246482
0.42113
0.452098
0.719144
0.548711
0.171686
0.465051
1.47728
0.498684
0.059422
0
0.467256
0
0.834239
0.969388
0.504178
0.766945
0
0.560404
0
0.522128
0.458573
0
0.493094
0.776005
0.44411
0.486588
0.160073
0.93531
1.1357
1.01617
0.709191
0.874539
1.05646
1.01026
1.58356
0
0.651428
0.129329
0.600999
0
0.428802
0.990221
0
0.804079
0.854284
0.503241
0.389374
0.409631
0.551669
0.362251
0.647807
0.134483
0.685015
0.514598
0.657837
0.770814
0.838518
1.14019
0.981389
0.759481
0
0.650818
0
0.477377
0
0.928132
0
0.442525
0.440783
0
0.371271
0.707796
0.834418
0.289852
0.491635
0
0.632126
0.634069
0.953843
0
0
1.01473
0.760995
0.649763
1.4207
0.714087
1.5556
0.843493
1.15271
0.632967
0.701804
0
0.957316
0.76426
0.390141
0.707827
0.408041
0.381149
0.639536
0.426113
0.259874
0
0
0.294723
0.852397
2.66229
0.392698
1.17776
0
0.424467
0.379373
0
1.10658
0.511738
0.533633
0.462195
0.887613
0
0
0
0.972086
0
0
0.2854
0.189543
0.367291
0.273568
0.384943
0.465094
0
0.32543
0
0.422777
0.679163
0.480832
0
0
0
0.333504
0.320065
1.56598
0
0.864874
0.212277
0
0.357423
0
0.591026
0
0.471446
0
0.600282
0
0
0
0.268206
0
0.490405
0
0.608224
0.236581
0
0
0
1.32512
0.619638
0.833485
0.438071
0
0.777613
0
0.200855
0.76443
0.766521
0.783911
0.4389
0.928277
1.53716
0.611132
0.204188
0
0.753836
0.583471
0
0.644462
0.249001
1.22308
0.99982
1.50371
1.17461
0.659191
0.594331
0.360751
0.467418
0.847457
0.396154
0.465615
0.453954
0.589938
0.935939
0
0.220674
0
0.492584
0
0
0.873029
1.31409
1.53024
0.324574
0.475932
0.468477
0.947334
0
0.579183
0
0.428949
0.757789
0.670678
0
0.582952
1.13552
0.488243
0.762313
0.509148
0.641494
0.827487
0.34391
0.655257
0.812617
0
0.524989
0.763681
0.904198
0.461928
0.572215
0.546142
0.461622
0.659624
0.44332
0
0.311481
0.708766
0.583431
0.911341
0.570527
0.848456
0.0819561
0
0.433233
0.489684
0.291882
0.636212
0.698327
0.571292
0
0.376297
0
0.387694
0.733002
0.38217
0
0.327796
0.767622
0
1.44916
0
0.532947
0
0
0.572521
0
0.527196
0.380629
0.49569
0.829903
0.551691
0.521892
0
0.361821
0.510835
0.551859
0.328553
0.610224
0.482256
0.0458616
0.734762
0.85147
0.794908
0.508199
0
1.38385
1.14514
0.227776
0.277915
0.617236
0.26817
0.282406
0
0.654356
0.405169
0
0.255766
0.284808
0.485234
0
0.534329
0.529702
0.866957
0
0.388376
0
0.58216
0.612832
0
0
0.493666
0.658627
0.670083
0.680339
0
0.317324
0.568467
0
0
0.0817815
0.550062
0.382623
0
0
0
0
0
0
0
0
0
0
0
0
0
0
0
0
0
0
0
0
0
0
0
0
0
0
0
0
0
0
0
0
0
0
0
0
0
0
0
0
0
0
0
0
0
0
0
0
0
0
0
0
0
0
0
0
0
0
0
0
0
0
0
0
0.383327
0.817325
0
0.427933
0.370146
1.15946
0.584049
0.853578
0.321973
0.444225
0.815018
0.631667
0.817532
1.18631
0.474252
0.86386
0.287781
0.578637
0.597069
0.452416
0.654868
1.86723
0.626049
0.639638
0.321836
0.420968
0.637105
0.757312
0.616734
1.10606
0.479237
1.94419
0.897351
0.368491
0
1.029
0.213605
0
0.581299
0.602226
0.180915
1.325
0.744374
0.451011
1.56031
0
0.225259
1.95744
1.30886
0.471022
0.695796
2.10695
0.323805
0
0.53637
0.543184
0.168397
0.501301
0
0.431634
1.64511
0
1.12176
0.967944
0.735242
0.903601
1.11903
0.725345
1.22555
0.843228
0.851279
0
0.714122
0.697817
0.821252
0.828652
1.03339
1.05878
1.44908
0.929399
0.921508
0.888161
3.67199
0.934381
1.71824
1.09461
0.882352
0.329047
1.21218
0.635849
0.634934
1.91031
0.731592
0
0.824955
1.05661
0.528061
0
0
0.512692
0.204809
0
0.337617
1.13626
0.655885
0.726359
0
0.873436
0.378455
1.13161
0
0.998635
1.13611
1.447
0.672718
0
0.759492
1.47335
0.886069
1.11051
0.664599
0
1.49819
0.806525
0.911249
0.906533
0.582008
0.489584
1.13925
0.410131
0.320967
0.481004
0.820052
1.05488
1.25805
0.608951
0.641733
0
0.611509
1.33267
0.848208
0.383704
0
1.90427
0
0
0.767457
0.90039
1.03343
0.270284
1.05403
0.565679
1.08817
0.604238
0.507024
0
0
0.835511
0
1.48327
0.618913
0.175957
0.73879
0.88873
0.907786
0.484442
1.11025
1.84523
0.36489
0.393518
0.508156
0.675995
0.4128
2.42083
0.541951
0
0.28895
0.578951
0.743039
0.666887
0.814167
1.18292
1.51842
0
0.607015
0.462819
0.517073
0.246337
0.783911
0
0.607127
0
0.480962
0.638784
0.601262
0
0.186051
1.09214
0.742606
0
1.05983
1.1696
0.909935
0.350677
1.20715
0.815933
0.632268
0
0
0.371991
0
0.568608
0
0.805158
0
0.714527
0.915053
1.21299
0.439972
0.97995
0.596774
1.19369
0
0.999792
0.765052
0
0
0.515363
1.02504
0.702636
0.65051
0.805082
0.290733
1.16941
0.977988
0.712874
0.362147
0.47955
0
0.363469
0
0.829873
1.21973
0.3793
0
0.656881
0
0.637442
1.00066
0
0
0.795564
0.429462
0.618509
1.79663
0.646964
0.934802
1.32602
0.765374
1.11474
0.799209
1.37254
0.583652
1.28807
0.64781
1.1896
0
0.708616
0
0.41839
0
0.33234
0
0.536785
0
0.580284
0.56298
1.04643
0.941054
0
0.336867
0.399619
0.376272
0.363194
0.401556
0
0
0.585866
0.464949
0
0.321057
0
0.917433
0.655473
1.29931
0
0.501824
0.370767
0.928424
1.45838
0
0.646881
0
0
0
1.0047
0.952806
0.189302
0.141708
0.836911
0.644159
0.436629
1.19916
0.869712
0.950913
0.669157
1.64505
0.965554
0.640987
0.421526
0.572667
0
0.23567
0.342776
0.584111
0
1.68344
0.56199
1.03134
1.67116
0.688267
0.636747
0.600099
0.388922
0.554102
0
0
0.685298
0
0.634433
0
0.968793
0.606812
0
0
0.565413
0
0
0
0.371929
0
0
1.14316
0.640112
0.929007
0.781938
1.01849
0.656234
0.301877
0.490149
0.265931
0.671165
0.831377
0.370863
0.773519
1.02382
0.477261
0
0.532313
0.89489
0
0.504382
0
0.39605
0.533258
0.641184
0.932761
0.761148
1.5016
0.61508
0.391785
0
1.66466
0.924223
0.33205
0.782923
0.125895
0.308563
0.418829
0
0.522563
0.371474
1.06062
1.20794
0.995149
1.06357
0.366414
0.235312
0.360498
0.561025
0.662413
0.902533
0.273019
0.418317
0.302612
0.861781
0.966023
0.846196
0.585225
0
0.699296
0
0.663537
0.156006
0.607259
0
0
1.11679
0.691829
0
0.701451
1.11113
0.785825
0.576628
0.497666
0.378594
1.30545
0.726944
0
0.704615
0.485464
0.699029
0
1.27604
0.652479
0
1.21803
0.169652
0.670799
0
0.594824
0.828372
0.308603
0.741886
0.633497
0.296621
0.623745
0
0.623568
0
0.482836
0.399938
0.625652
0
0.441587
0.564427
0.599711
0.360059
0.475685
0
0.389479
0
0.559401
0.540159
0.431999
0
0.809925
0.56289
0.68757
0.447609
0.369772
0.660737
0.685055
0
0.472572
0
0.768981
0
0
0.189802
0
0.775404
0
0.671399
0.647326
0.601786
0.861608
0.568171
0.707841
0.366419
0
0.713034
0
0.575344
0
1.39023
0.39503
0.462973
0
0.547697
0
1.45186
0
0
0
0.70836
0.724007
1.40307
0.533092
0
0.683934
0.34214
0.281865
0.478214
0.78266
2.37626
0.579273
0.903503
0
0.745315
0.512711
1.33391
0.672858
0.681079
0.81672
0
0.395808
0.52863
0.405426
1.64291
0.637905
0.330465
1.86916
0.658999
0
0.388615
0.688637
0.550403
0.904181
0.624984
0.293538
0
0.666286
0.335703
0
0.39237
0.442921
0
1.18154
0.86587
0.661166
0.301964
0.316679
0.411285
0.411224
0.537643
0.581716
0
0
0.802337
0.572155
0
0.355345
0
0.724046
0.448688
0
0.819863
0.546689
0
0
0
0.90122
0.882622
0
0
0.559554
0.463846
0.188523
0.389914
0.870061
0.954148
0.662065
0
0.307896
0.792316
0
0.55701
0
0.577879
0.54702
0.34486
0.712697
0.961698
0.322856
0.517939
0.293927
0.682048
0.520962
0.743498
0
1.06607
0.818237
0.826422
0.278966
0
0.934549
0.30389
0.140351
0.353851
0
0.544783
0
1.04406
0
0.312625
0
0.481208
0.945706
0.785032
0.270205
0.92039
0
1.01043
0.558925
0
0
0.421623
0.627419
1.66355
0.54546
0
1.41768
0.331502
1.18369
0.521461
0.959398
0
0.571763
0.400643
1.07007
0.1885
0.734999
1.3498
0.473668
0.996621
0
0.676683
0.740514
1.32559
0.418737
0.412818
0
0.806206
0
0.529197
0.928372
0.254446
0.468753
0
0
0.893971
0.720031
0.877814
0.77952
0.688286
0.759812
0.373032
0.38565
0.5023
0.433764
0.577079
0
0.595484
0.653527
0.506109
0.647179
0
0
0.973345
0
0.759054
0.882076
0.316605
0.428775
0
0.327576
0.331349
1.29436
1.11306
0
0.959007
0.29954
1.04689
0
0.525112
0.385324
0.518463
0
0.160132
0.400878
0.709027
1.77982
0
0.423894
0
0.322872
0.586013
0.335999
0
0
0.454482
0
0.420579
0.0583261
0.584517
0
0.594648
1.01067
1.17984
0
0
0.504677
0.490149
0.400414
0.520549
0.107829
0
0.202473
0.142236
0.351449
0.764641
0
0.521197
0.525625
0.302914
1.87515
0.850604
0
0
0.551751
0.198413
0.417761
0.549296
1.89742
0.633075
0.683357
0.437321
0
0.522481
0.197676
0.431839
0.783026
0.530868
0.337006
0.302509
0
0.180063
0
0
0.671188
0
0
0
0.587169
0
0.522536
0.43201
0.489307
1.16465
0.637333
0
0.355279
0.670607
0
0.802085
1.7505
0
0
0.449646
0.760234
0.535286
0.146975
2.52427
2.59367
0.581085
0
0.721847
0.260719
0.504826
0.134534
0
0.475294
0
0.359365
0.727979
0.283856
0
0
0.275461
1.15437
0.906025
0.345936
1.20953
0.938561
1.23643
0
0
0.704986
0.637815
0.723223
0.522213
0
0.483712
0.101326
0.411946
0.642752
0
0.505263
0
0.785882
0.556527
0.873482
0
0.340552
0.487394
0.981403
0.766858
0.372071
0
0.201041
1.02162
0.798632
0.412567
0
0.222409
0.753659
0.40601
0.954938
0
0.705701
0.288478
0.729645
0.595897
1.35052
0
0.977772
0.527182
0.441422
0.695457
0.930262
0.690072
0.563387
0.652894
0.641486
0.401938
0
0.632664
0
0.662741
0
0.724425
0.840818
0.601989
0.895022
0.472252
0.389845
0.267826
0
0.494338
0.848869
0.321296
0.20629
0.519997
0
0
0.371924
0.759407
0.727467
0.588875
0.446958
0.548561
0.362588
1.15823
0
0.57047
0
0
0.232001
0.454809
0.078175
0
0
0.642817
0.438246
1.52486
0.999441
0
0.585458
0.627634
0.677979
0
0.521299
0.238706
0
0
0
0.547931
0.48725
0
0.653676
0
0
0
1.02608
1.05989
0.59971
0.111951
1.47369
0.436119
0
0.66181
0.182686
0.324734
0
0.25177
0.0820497
0.580841
0.692851
0.252341
0.585494
0
0.525545
0
0.355519
0
0.694495
0.743396
0.367556
0.90442
0.853221
0.489491
0.178567
0.543546
0
0.533837
0.293941
0.668038
0.652711
0.416065
0.184265
0.674361
0.580019
0
0
0.42148
0.365277
0.77753
0.698903
0
0
0
0
0
0
0
0
0
0
0
0
0
0
0
0
0
0
0
0
0
0
0
0
0
0
0
0
0
0
0
0
0
0
0
0
0
0
0
0
0
0
0
0
0
0
0
0
0
0
0
0
0
0
0
0
0
0
0
0
0
0
0
0
0
0
0
0.293551
1.40233
0
0
0
0
0
1.75788
0
0
0
0
0
1.359
1.60632
0
0
0
0
0
0.776229
0
0
1.59006
0
0
0
0
0
0
0
0
0
0
0
0
0.976804
0
0
0
0
0
0
0
0
0.89202
0.700245
0
0
0.666472
0
0
0
0
0
0
0
0
0
0
0
0
0.27913
0.156458
0.815259
1.5303
0.82129
0
0.855324
0.653981
0.729156
0
0
0
0
1.4697
1.3156
0.410509
0.352664
1.48434
0.813649
0.658535
0.337763
0
0
1.44311
0.758628
1.59935
0.861775
0.964693
0
1.05154
0
0
0.889781
0.34553
1.14951
1.38794
1.21145
1.19093
1.61714
0
0.710228
1.18339
0
1.69188
1.7685
1.79304
1.11965
0.568655
1.15339
3.5816
1.46978
0.868874
1.26628
0
1.48195
1.88613
0.792427
0.889887
0
0
0.951746
1.33346
0.420168
0.711911
0.760931
2.81774
0.906456
0
0.519018
0.434579
0.483916
0.414428
0.820159
0.463996
0.992996
2.18624
0
1.13445
0
0.460309
0
0.751778
2.51869
0
0.656857
0.689175
0.503065
0.377249
0.277704
0.974281
0.768012
1.48331
0
1.68778
0
0.761754
1.19462
0.524183
0.699696
0.480382
0.850199
0
0.996523
1.49032
0
0
0
0
0
0
1.64493
1.84492
0.695528
0
0.356384
0
1.67737
0
0.950353
0.587612
1.47935
0.815819
0.852525
0.520576
0.424755
0.154117
1.01908
0.541445
0.86916
0.566345
0
0.491698
0.786207
0
0
0.436299
0.622841
0
0.434998
1.12693
1.91326
0
0.505132
0.837148
0
0.265943
0.615419
1.21992
0.838592
0.485747
0.752185
0
1.07769
0
0
0
0.625136
0.674378
0.652477
0.861401
0.911679
0.400685
1.01157
0.740427
0.335801
1.03408
0.280268
0.641498
1.10229
0.967429
0
0.805514
1.34347
0.732388
0.227086
1.35417
0.652493
1.22742
0.716131
0.836766
0.733732
1.68945
0.822983
0.733539
1.25403
1.68818
0.664014
1.04778
1.17929
0.445851
0.774649
0
0
0.374898
1.21987
0.560179
0.890675
0.566329
0.918409
0.233721
0
0.704464
0.85813
1.13028
0.296245
1.04133
1.61008
0.669757
0
0
1.92793
0.858014
0
0.263821
1.18772
0.571571
0.67397
0
0.280472
0.447391
0
0
1.02364
0
0.866419
0.256776
0.23853
0
0.497841
2.66779
0.483664
0.557351
0.582314
1.10827
0
0.840605
0.41582
0.844365
1.04286
0.426785
0.623901
0.651262
0.9184
0.645315
1.14767
1.22086
0.617048
0.625652
1.00908
0.709332
0.832318
0.869492
1.00422
0.904638
1.53377
0
0
0.750947
0
0.645704
0
0.734801
0.853387
0
0.944181
1.48108
0.390636
0.354333
1.39438
0
0.373883
0
1.12479
0.500276
0
0.572131
0.860894
1.22742
0
0.421427
0.74263
0.471427
0
1.01881
1.27215
0.482614
0.399111
0
1.36774
0.850184
0
0.419738
0.843409
0.589582
0
1.26729
1.02994
0.3768
0.464083
0
0.779878
0
0.366964
0.923655
0.150742
0.620504
0.885157
0
0
0
0.532813
0.230579
0
0.40092
0.391903
0.575266
0.731909
0.489215
0
0.512248
1.17282
0.853755
0.407257
0.622944
0.563101
0
0.713714
0.53594
2.01228
0.627811
1.53439
0.885352
0.766195
0.637746
0.282307
0.508261
0.307273
0.812456
0.365132
0.71691
0.878006
0
0.898591
0.723245
1.26261
0.545349
0.440454
0.657058
0
0
0.131447
0.890799
0.404656
0.46125
1.06713
0.731971
0
0
0.658598
1.05076
0
0.957972
0.892874
0
0.854442
0.893287
0.744616
0.742573
0.54016
0.399278
0
0
0.120357
0.842286
0
0.610144
1.3077
0.266005
0.595317
0.470193
0
0.477683
0.235633
0.370176
0
0
0.430259
0.553246
0.495889
0.39793
0
0.977185
1.09889
0.265898
0.704405
0
0.215544
0.285768
0
0.95332
0
0.558002
0.467621
0
0.830032
0.471551
0.62875
1.03398
0.575556
0.473539
0.126096
0.704118
2.18809
0.0663283
1.017
0
0.519047
0.729747
0.559994
0.697373
2.1891
0.802018
0
0.401905
0.923262
1.63235
0.870963
0.322673
0
0.711419
0
0.985575
0.465488
1.13754
0.606487
0.244988
0
0.365075
1.20375
0.842522
0
0.648811
0.707282
0.778184
0.562152
0.401081
0
0.683277
0.341979
0.540778
0
0.522585
0.809854
0.768014
1.00083
0.262452
1.15782
0.541638
1.03047
0.265815
0.890266
0.785533
0.26744
0.360919
0.393851
0
0
0.856474
0.445713
0.592246
0.997323
0.349162
2.53541
0.351059
0
0.57717
0
1.01289
0.596974
0
1.54776
0.566527
0
0.477129
0.319684
0.771802
0.479683
0
0.888925
0
0
0
1.13301
0.921294
0.718504
0.768209
0.702896
0.297078
0.319632
1.19255
0.882717
0.97213
1.05122
0
0.275961
0.244339
1.12242
0.291439
0.35929
0.569874
0.291027
0.618822
2.07657
0
0.645596
0
0.228913
0.639712
0.745154
0
0.761345
0.711663
0.792432
0.725822
1.1123
0.604415
0.526575
0.587545
2.069
0.865529
1.19824
0.404179
0
0.903141
0.588553
0.870008
0.650718
1.00279
0.522741
0.58174
0.933457
0.96445
0.509303
0.96527
0
0
0
0
0.784777
0
0.859262
0.334008
0.563923
0.766805
0.656614
0
0.209645
0.332409
0.688374
1.63067
0
0
0.305271
0.381308
0.290872
0.353048
0.50045
0
0.436829
0.512433
0.699576
0
0.447189
0.984137
0.663156
0.771962
0.462887
0.697241
0
0.684615
0
0.855638
1.00182
0
0
0.323935
0
0.552948
0
0.698912
0.371426
0.323566
0
0.403319
0.579636
1.06025
0.501752
0
0.309898
0
0
0.424392
0
0.439924
0
0.459051
0
0.269653
0
1.00427
0.726916
0.408185
0
0.828245
0.771742
0.52862
1.58657
0.803138
0.540732
1.18293
0.12941
0.455506
0.589317
0.449602
0.833657
0.582407
0.178027
1.15205
0.482134
0
0.815821
0.560957
0.809772
0.489011
0
0.518238
1.00045
0
0.500999
0.523858
0.806553
0
0
0
0.557252
0.730947
0.454031
0
0.662586
0
0
0.910347
0
0.368858
0.497322
0.429311
1.11815
0.571923
0.606246
0
1.0853
0.922511
0.583336
0.735594
0.362664
0.834116
1.07953
0.841649
0
0.332908
0
0
0.686396
0.326662
0.744059
0.305801
0.344325
0.720562
0.250833
1.18383
0.51839
0.286957
0
0.698612
0
0
0
0.995822
1.10015
0.662352
0.239227
0.537919
1.03454
0.680655
0.592693
0.520808
0
0.593949
0.55038
1.2155
0.719005
1.28894
0.0333667
0.347368
0
0.133288
2.14535
0.609441
0
0.47767
0
0.449336
0
0.394317
0.251311
0.494635
0.223222
0.254271
0.820415
0.36941
0
0.0397453
0.701918
0.663717
0
0.41372
0.38499
0.408823
0.743311
0.543356
0
0.822315
0.847929
0.868896
0.365459
0.675873
0
0.625636
0.659954
0.594862
0
0.535379
0.55472
0
0.866127
0.471358
0.222076
0.562034
1.00508
0.396055
0.16919
0.970942
0.189404
0
0.72455
0.576008
0.957321
0.634877
0.706696
0.944917
0.229321
1.02883
0.57612
0.255708
0.485445
0.56306
0.360596
0.349732
0
0.313181
0.233252
0.175429
0.619121
0.889182
0.519597
0
0.739443
0
0
0.428394
0
0.503993
0.553517
0.487519
0.482953
0.397437
0.477777
0.842758
0.691305
0.405607
0
0
0.363817
0.601623
0.385337
1.03502
0.958784
0.498764
0.654791
0
0.532209
0.709332
0.604729
0
0.212846
0.456927
0.445018
0
0
0.439805
0
0.314337
0.358254
0.771885
0.624712
0
0.361593
0.561221
0.541945
0.892025
0.965052
0.408844
0.666684
0.341905
0.417015
0.49632
0
1.10588
0.585361
0.69396
0.597354
0.605106
0
0.977338
0.6659
0
0.284033
0.380981
0
0.55122
0
0.285492
0.232879
0
0.474535
0
0.528821
0.474944
1.03642
0
0.679218
0.681684
0.446164
0.770044
0.194564
0.366581
0.340829
0
1.11354
0.659346
0.458493
0.345694
0.425636
0.419867
0.137119
0.543929
0.186465
0.293048
0.413063
0.529785
0.423799
0.778302
0.330002
0
0.407992
0
0.424882
0.419068
0.743466
0.668866
0.327955
0.597726
0
0.717187
0
0.487596
0.194413
0
0.131885
0.277068
0.503325
0.914728
0.31666
0.435374
0.499109
0.552001
0
0
0
0
0
0
0
0
0
0
0
0
0
0
0
0
0
0
0
0
0
0
0
0
0
0
0
0
0
0
0
0
0
0
0
0
0
0
0
0
0
0
0
0
0
0
0
0
0
0
0
0
0
0
0
0
0
0
0
0
0
0
0
0
0.347337
0.629344
0
0.611211
0.347617
0.595739
0.471705
1.06179
0.143828
0.702039
0
0.499888
0.368566
1.92392
0.404382
1.28353
0.347729
0.341805
0
0.41736
0.362109
0
0.681279
1.07235
0.236896
0.462181
0
0.59757
0.331045
0
0.49835
1.83312
0.294764
1.25657
0
0.277212
0.939462
0
0.451834
1.64257
0.398712
0.293856
0
0.909047
0.592157
0
0.607217
1.67089
0.710115
1.26147
0.214391
0.640355
0.703077
0
0.22083
0.748948
2.21006
0.335657
0
1.36264
0.394329
0
1.09191
0.916495
0.695799
0.281848
0.692648
1.19126
1.72276
0
1.69343
1.02632
0
0
0.71356
0.0727308
1.57843
0.743476
0.697577
0.669849
0
0.678319
0.740485
0.0744473
0.538004
1.7863
0.939587
0.781259
1.75143
3.55496
0
0.768938
0.426925
0.656425
0.532921
0.424303
0.948593
1.44994
1.05134
1.11341
1.54867
0
0.81237
0.688469
0.216762
0.611451
1.29714
0
2.24793
0.816016
2.20845
1.43692
0
1.04284
1.25306
0.967738
0.626028
0.373712
0
0.670331
0.980928
0
0.937056
0.926266
0.273968
0.399926
1.22824
0.554231
0.732262
0
1.04956
1.15765
1.30445
0
0.739511
0
0.78024
0.84905
0
1.18828
0.586797
0.615027
0
0
0
0.894016
0.487994
0.691684
0.545469
0.772709
0.784923
0.498244
0
0.732016
1.44443
0.440215
0
0.544919
0.258842
0.609489
0.515326
0.613428
0.525176
0.55073
1.07751
1.2602
1.46808
0
0.509744
0
0.422962
0.690457
1.14401
0.720555
0.502643
0.619973
0
1.43214
0.561847
0.434363
0.504347
0.880734
1.29978
1.28609
0.96505
1.04109
0.457751
0.357736
0.287196
0
0.344902
0.640289
0.570677
0.457002
0.590989
0.944772
1.14968
0.854374
0.754801
0
1.04256
0.646808
0.655642
0.592072
0.544119
0
0
0.828012
0.578626
0
0.508673
0
1.34761
1.03625
0.414977
0.868527
1.49916
0.517459
0.499494
0.231716
0
0.881775
0.382292
0.582555
0.291961
0
0.938132
1.10264
1.27926
0.506033
0.146483
0
0.874618
0.625881
0.749741
0.552392
0.661893
0.640189
0.10585
0
0.916099
0.94041
0
0.267186
0
0.7401
0.70046
0
0
0
0
0
0.670556
0.697681
0.672968
0.20324
1.01123
0.736707
0.301543
0.438931
0
0.236735
1.21415
0.450898
0.5235
0
0.47318
1.40841
1.86426
0
0.614011
0.486419
1.24918
0.679732
0.565131
0
0
0.745138
0
0
0
0.687027
0.680321
0.50622
1.36047
0
0
0.558353
0.993736
0.676405
0.972497
0
0
0
1.15623
1.23931
0.787903
0.260836
0.726812
0.26856
0.538564
0.867138
1.36245
0
0
0.224367
0.575877
0.946985
0
0.448749
0.876536
0.650907
0
0.76714
0.54808
1.05235
0
0.788189
0.798289
1.36319
0
0.824352
0
0.760604
0.510764
0.698992
0
0.614003
1.50463
0.760242
0
0.66492
1.08549
0.654052
1.13501
0.665627
0.71396
0.95263
0.884227
1.05256
0
0.0431299
0.45551
0
0
0.476784
0.231252
0.725204
0.436834
0.471669
0.382228
0
0.474136
0.851699
1.1814
0.994767
0.903287
0.794713
0.634404
0.958299
0.634629
0
0.573977
0
0.74138
0
0.275895
0.0170189
0.374473
0
0.834165
0
0.671245
0
0.677173
0.233629
0.640763
0.289073
0.915905
0.748425
0.312653
0
0.418035
0
0
0.672928
0
0.398877
0.436541
0.628686
0
0.930822
0.871615
1.59016
1.47014
0.777
0.723784
0.495415
0.799395
0
0
0.640617
0.589769
0.439721
0.634281
0.522416
0.763213
0.368025
0
0.372627
0.633598
0.894068
0.26337
0
0.80236
0
1.05334
0.988236
1.02119
0
0.927076
0.952894
0
0.541013
0.759103
1.01156
0.657444
0.882809
0.486522
0.44518
0.448363
0.648347
0.297781
0
0.254125
0.677059
0
0.650719
0
0
0.903774
0.739236
0.551022
0.647225
0
0.789849
0.536027
1.05682
0.236064
1.10188
0.700996
2.36333
0.509809
0.454322
0
0.935596
0.893149
0.44918
0.297168
0.99764
0.739516
0.573073
0.400897
0.487721
0
0.261512
0.600679
1.43839
1.30577
0
0.520571
0.413853
1.07728
0.694827
0.755852
0.424641
0.750613
0.203603
0
0.517874
0
1.05913
0
0
0.892453
0.845563
0.163454
1.02219
0
1.35592
0.117213
0.639637
0.791968
0.641011
0.840736
0.841174
0.535641
0
0.394055
0
0.763726
1.25214
1.51679
0
0.798903
0.875373
0.339413
2.45836
0
0.354375
0
0.377463
0.277623
0.448309
0.470621
0
0.333804
0.960975
1.09786
0
0.636955
0
0
0.428916
0.963939
0.353247
0.632826
0
0.167314
0.229753
0.355733
0
1.50583
0
0
0.320168
0.351581
0.948208
0.553844
0.763389
0.454938
0.847719
0
1.01682
0.598215
0.951434
0.177735
0.315141
0.640296
0.60834
0.575506
0.66053
0.496697
0.904599
1.05782
0.390594
0
0.387416
0
0
1.29493
0.476289
0.522735
0.55307
0.874711
0.662876
0.770752
0.651338
0
0
0.51714
0.407198
0
0
0
0.442625
0.824045
0.744599
0.647012
0.540055
0.928089
2.55232
0.98214
1.70423
1.15228
0.552534
0
0.771884
1.04591
0.167468
0.853423
0
0.319723
0
0
0.658711
0
0.651382
0
0.813
1.25566
1.2479
0.717333
0.544047
0.326029
0
0.586843
0
0.337702
0.967544
0.407866
0.45538
0.726156
0
1.19911
0
0.559695
0
0.388276
1.39198
0.616512
0.406178
0
0.637507
0.29182
0.670276
0
0
0.819818
0
0.594945
0.69709
0
0.618155
0.32247
0.707998
0
0
0.66252
0.772371
0
0
0.0509493
0.49122
0.752131
0
0
0
0.541878
0.658061
0.564045
0.30755
0
0
1.79584
0.813391
0.991865
0.314061
0.807209
0
0.334812
0
0.608327
0.434643
0.940342
0.681104
0.487429
0.387084
0
0.307618
0.105353
0.597416
0.829062
0.424101
0
0.586723
0
0
0.732278
0
0
0
0.986882
0.256147
0.264924
0
0
1.03325
0.618364
0
0.291447
0.702064
0.178649
0.372187
1.39243
0
0.965644
0.606636
0.578923
0.589597
0
0.307779
0.553548
0
1.00861
0.680417
0.510348
0.385159
0.478466
0.648136
0.628405
0
0.925843
0.917943
0
0.628653
0
0.468973
0
0
0.666469
0.444797
0.431521
0.375638
0
0.269263
0.678381
0
0.565778
0.953539
0.646055
0
0.449774
0
0.493525
0.477274
0.454587
0
0.629306
0
0.351881
2.30644
0.639913
0.677156
0
0.377521
0.104163
0.613177
1.10851
0.909033
0.94773
0.801016
0.913945
0.231238
1.00948
0.436318
0.602926
0.109939
0.331622
0.653551
0.396759
0.4259
0
0
0.52173
0
0.630953
0.108502
0.541228
1.01305
0.356409
0
0.446625
0.452733
0.534933
0.300881
0
0
0.968181
0.232244
0.367304
2.04913
1.3106
1.1474
1.65749
0.589069
0.539078
0.625231
0.846512
0.363217
0
0.570513
0
0
0.349731
0
0.54075
0.494949
0.606836
0.636593
0
0.615978
0
0.751348
0.562185
0
0.816909
0.92879
0.499475
0
1.46524
0.510361
0
1.07015
0.519067
0.114448
0.161555
0.475283
0
1.01025
0
0.254591
1.38697
0.170373
0
0.509177
0.4345
1.29683
1.26458
0
0
0.598927
0.393683
0.522987
0.36452
0.512693
0.988063
0
0.87561
0.367025
0.2056
0.5053
0
0.356455
0
0.669003
0.559341
1.25017
0.411922
0.578329
0.599437
0.3297
0.115963
0
0.475601
0
0.366698
1.1255
1.80465
0.776971
0.374835
0.890497
0
0.561889
0
0.542313
0.726428
1.09312
0.513176
0
0.581674
0.29561
0.495556
0.893579
0.657598
0.648462
0
1.07158
0.476167
0.55818
0.528682
0.220039
0.869166
0
0.758319
0
0
0
0.245209
0.311042
1.15711
0
0
0
0.783077
0.911304
0.581156
0.57792
1.09574
0.696341
0.886435
1.46282
1.00396
0.49042
0.658262
0.938782
0
0
0.183143
0.496971
0.311361
0
0.381555
0.621314
0
0.656513
0.411601
0
0.532035
0
0.609445
0
0.325943
0
0.168063
0.549486
0.422441
0.684142
0
0.460613
0
0.319916
0
0.243707
0.597558
0
0
0.26748
0.612913
0.481537
0
0.249923
0.506912
0.300965
0.646145
0
0.392633
0.56906
0
0
0.410146
0.305157
0.314855
0
0.615167
0.571092
0.608703
1.27849
0
0
0
0
0
0
0
0
0
0
0
0
0
0
0
0
0
0
0
0
0
0
0
0
0
0
0
0
0
0
0
0
0
0
0
0
0
0
0
0
0
0
0
0
0
0
0
0
0
0
0
0
0
0
0
0
0
0
0
0
0
0
0
0
0
0
0.275393
0.666494
0.542507
0.637604
0.751364
0
0.356061
1.00841
0.420401
0.461973
0.612148
0.492053
0.465497
0
0.751819
0.940755
0.244224
0.445782
1.13254
0.676937
0.586348
0
0.39042
1.04161
0.334302
0.643395
0
0.70256
0.695732
0.646335
0.738883
0.509726
1.0077
0.347461
0
0.975117
0.171455
0
0.395455
0.610632
0.16732
0.96608
0
0.280164
1.15573
0
0.277268
1.19433
0.802305
0.391579
0
0.807922
0.735588
1.16578
1.20723
0.54459
0.203777
1.04762
0
0.253182
0.668323
0
0.181585
0.767119
0.464769
1.71663
0.713784
1.00202
0
1.79772
1.6795
0.629482
0.676201
0
0.643962
0.521066
0.842018
0
0
0.714776
1.26912
0
1.02314
0.61755
0
0.844332
0.638137
0.458046
0.991977
0.701321
0
0.519009
0.766277
1.21773
0.497118
0.901758
0.430853
1.31001
0.806354
0.553422
0.730136
0.773802
0
0.749125
0.320162
1.30719
1.72722
0
1.58876
0.374667
0.765277
1.13813
0.430088
0.520195
0.948643
0
0.255511
0
0.723857
0
0.725786
0.295323
0.282404
0
0
0.529991
0.407774
1.18779
0.368681