<?xml version="1.0"?>
<VTKFile type="RectilinearGrid">
<RectilinearGrid WholeExtent="0 32 0 32 0 32" Origin="0 0 0" Spacing="1 1 1">
<Piece Extent="0 32 0 32 0 32">
<PointData>
</PointData>
<Coordinates>
<DataArray type="Float32" format="ascii">
0 0.524874 1.04975 1.57462 2.0995 2.62437 3.14924 3.67412 4.19899 4.72386 5.24874 5.77361 6.29849 6.82336 7.34823 7.87311 8.39798 8.92285 9.44773 9.9726 10.4975 11.0224 11.5472 12.0721 12.597 13.1218 13.6467 14.1716 14.6965 15.2213 15.7462 16.2711 16.796 
</DataArray>
<DataArray type="Float32" format="ascii">
-5.03879 -3.62163 -2.20447 -0.787311 0.629849 2.04701 3.46417 4.88133 6.29849 7.71565 9.1328 10.55 11.9671 13.3843 14.8014 16.2186 17.6358 19.0529 20.4701 21.8872 23.3044 24.7216 26.1387 27.5559 28.973 30.3902 31.8074 33.2245 34.6417 36.0588 37.476 38.8931 40.3103 
</DataArray>
<DataArray type="Float32" format="ascii">
0 0.524874 1.04975 1.57462 2.0995 2.62437 3.14924 3.67412 4.19899 4.72386 5.24874 5.77361 6.29849 6.82336 7.34823 7.87311 8.39798 8.92285 9.44773 9.9726 10.4975 11.0224 11.5472 12.0721 12.597 13.1218 13.6467 14.1716 14.6965 15.2213 15.7462 16.2711 16.796 
</DataArray>
</Coordinates>
<CellData>
<DataArray type="Float32" Name="Scalar" format="ascii">
0
0
0
0
0
0
0
0
0
0
0
0
0
0
0
0
0
0
0
0
0
0
0
0
0
0
0
0
0
0
0
0
0
0
0
0
0
0
0
0
0
0
0
0
0
0
0
0
0
0
0
0
0
0
0
0
0
0
0
0
0
0
0
0
0.0373663
0.480314
0
0.221958
0.289823
0
0.0994475
1.4177
0.0335256
0.264697
0
0.319556
0.22926
0
0.353428
0.795393
0.271869
0.46171
0
0.356273
0.255166
0
0.356508
1.5933
0.247228
0.411579
0
0.314153
0.428507
0
0.315348
0.676988
0.031052
0.802678
0
0.235866
0.855816
0
0.429579
1.8294
0.641555
0.436624
0
1.02648
0.16394
0
0.84795
0.218356
0.0278478
1.04691
0
0.17397
0.678087
0
0.458859
1.08409
1.0102
0.080468
0
1.28728
0.364104
0
1.07289
0.642173
1.1607
0
1.25259
0
0.700972
0.689384
0.759889
0.808267
1.21726
0
0
0.636782
0
0.497531
1.26208
0.503519
0.45573
0.672895
0.638906
0.456421
1.20337
0.717254
0.436675
0.748875
1.05882
0.75349
0.541582
0.779219
0.768237
2.1014
1.22367
0
0.760173
0
1.2286
0.8021
0.649977
0.659114
0.299652
0.925587
0.995638
1.05371
0
0.70866
0.550194
0.240071
0.562622
0
0.21055
0.584311
0
0.510579
1.21872
1.09169
0.518008
0.569271
0.353383
0.639558
2.2639
1.54241
0
1.18966
0
0.228796
0.659692
0.731162
0.758035
0
1.34564
0
0.394067
0.457195
0.747428
1.03526
0.566555
0
0.468737
0.314806
0.719158
0.996303
0.598385
1.17347
0
0.898183
0.830188
0.779408
1.27764
0.711475
0.559628
0.580161
1.18883
0.623773
0
0.605744
0
0
0.529195
0
0.41527
0
0
0.706411
1.21729
0
0.452914
0.541139
0.651294
0.373181
1.29508
0.199378
0.521597
0
1.567
0.0615524
0.769168
0
0.840142
0.544451
1.12257
0.964438
0
0.496164
0
0.446487
0
0.846936
0.893739
0.944336
0.735947
0.712559
0
0.626805
1.34764
0
0.611453
1.48382
0.537023
0.252559
0
0.681174
0
0.620761
0
0
0.800282
0.533421
0
0.840287
0.247602
1.72544
0.977851
0.489034
0.728121
0.579122
0.672651
0
0.823463
0.358455
0.190608
0.514887
1.75187
0
0.61163
1.72525
1.30175
1.856
0.582107
0
0.576211
0.310501
0.564047
0.556623
0.457296
0.876849
0
0
0.501198
0.455345
0.572652
0.765061
0.551529
0.423773
0.856048
0.56539
0.778807
1.34958
0.490365
0
1.0926
1.10165
0.825344
0.940705
0.437758
0.39434
1.5257
0.672233
1.11245
1.2028
0
0.528484
0
0
0.55383
0.607693
0.742753
1.15631
0.673269
0.681518
0.263411
0
0.534448
0.139646
0.638759
0.393951
1.00689
0.609935
0.456751
1.35908
0.316031
1.14365
0
0.61719
0.785583
0
0.414932
0
1.06577
0.66917
0.878626
1.01243
0
0
0.427129
0.301741
0
0
0.439111
0.443995
0.719937
0.531358
0
0.771692
0
0.193376
0.69857
0.275707
0.951425
2.71506
1.15834
2.74459
0.992848
0.521193
0.617568
0.645274
0.571396
0.223124
0
0
0
0
0
0.795784
0.549796
0
0.450958
0.504924
0.658564
0.292174
0.475546
0.53858
0.668829
0
0.465402
0.479769
0.646447
0.678564
0.72502
0
0
0.367712
0.363645
0.581401
0
0.315355
0
0.531691
0.862792
0
0.487104
0
0
0.337239
0.43289
0.380828
0.381764
0.775736
0.440143
0
0
0.49624
0
0.47675
0.228546
0.277463
0.488342
0.548304
0.58956
1.19665
0.479723
0.427094
0
0.611977
0
0.521172
0
0.543931
0.86661
0
0.417692
0.519862
0
0
0.363232
0.644811
0.514937
0
1.13954
0.689069
0.587041
0
0.455185
0
0.608505
0.540389
0.664134
1.12744
0.920257
0
0.599223
0.610019
0.73745
1.40068
0.503249
0
0.674822
1.65351
0.564391
0.946532
0
0.845371
0.748646
0.672622
2.00545
1.144
1.11677
0.736364
0.920695
0.566229
0.548943
0.492567
0.484881
1.68748
0.500122
0.575424
0.781502
0.850914
0
0.65606
0.765178
0
0.132802
0
0.89668
0
0.559882
0
0.45587
0.635406
0
0.458059
2.17412
0
0
1.44887
0
0.755809
1.48222
0.674731
0.974536
0.357716
0.601333
0.213707
0.792174
0.883605
0.236452
0.741227
0.21952
0.5641
0
0.382564
0
0.514881
0
1.10713
0.479701
0.4702
0.621676
0.553472
1.44468
0.487043
0
0
0.350545
0.720694
0.170886
0.424548
0.694938
0.710763
0
0.546001
0
0.436015
0.27848
0.268433
0
0.111363
0.802103
1.59614
0
0.319575
0.390352
0.702292
0
0.689412
0.26276
0.577288
0
0.382653
0.309415
0.532774
0.450816
0.412387
0
0.404265
0
0
0
0.443647
0.782265
0.507411
0
0.631905
0.538252
0.618823
0.636549
0.455247
0.616373
0.711224
0
0
0.999704
0.674808
0
0.52053
0
2.02889
0.929836
0.850629
1.13025
0.617425
0
1.11869
0
0.658459
0.365125
1.13608
0.600531
0.74024
0.642012
0.755955
0.345546
0.584854
0
0
0.485541
0.951877
0.625182
0.477246
0
0.340497
0.3118
0.215039
0.744377
1.00572
0.929156
0.426073
0.410181
0.417461
0.768612
0.558626
0.424029
0.893821
0
0.53761
0
0.654993
0.427226
0.699964
0
0.987644
0
0.174624
0.585301
0
0.527054
0.849294
1.25979
0.702261
0
0.792243
0
0
0.204693
0.595818
0.270556
0.325619
0.42409
0
0.583314
0.32022
0.408918
0.5796
0.635894
0.463565
0.423566
1.224
0.67328
0
0.513222
0
0.334978
0.415035
0.390326
0.604362
1.577
0
0
0.560916
1.3497
0.52963
0
0
0
0
0
0
0
0
0
0
0.742599
1.15365
0.705575
0
0.440724
0
0.800303
2.21056
1.02181
0
0.607995
0.533848
0
0.511035
0
0.302069
0
0.630403
0.209256
0
0.451367
0.422302
0
0.327842
0.556616
0.550751
0.782154
0.629277
0.149998
0
0.364609
0
0.573032
0.763941
0.35851
0
1.61363
1.06254
1.48181
0.711059
0.697841
0.437549
0.331707
0.499187
1.12951
0.667848
0
0.543171
0
1.80022
1.59528
3.56505
0.754529
0.958294
0
0.80504
0.275283
0
0.535097
0.832919
1.29565
0.14106
0.618628
1.05994
0.570894
0.305492
0.853323
0
0.681367
0.42227
0.625204
0.642796
0.522434
0.427535
0.512366
0.606661
0.277741
0.438385
0.69464
0
0.486611
0.217488
0.670153
1.71088
0
0.285026
0
0.545854
0
0
0
0
0.508726
0
0.583501
0
0
0
0.612306
1.13131
0.727913
0.446481
1.85243
0.82189
0
0.429844
0
0.734801
1.07092
0.904444
0.396266
0.839698
0
0.291697
1.98961
0.237873
0
0.817078
0.0141279
0.82034
0.463067
0.397979
0
0.503391
0.4869
0.528842
0
0.481362
0.66662
0.299266
0.797104
0.0993269
0.251976
0
0.311391
0.574356
0.865919
0.256667
0.399572
0.577203
0.89452
0.387567
1.05956
0
0.459737
0
0.744036
0.851886
0.595024
0.545838
0
0.640896
0
0.918455
0.47569
0
0.848505
0.49241
0.626379
0.383347
0.337557
0.189558
0.965424
0.910985
0
0.475368
0.372157
0
0
0.758727
0.405472
0.706393
0.398299
0.370951
0.865877
0
0
0.514806
0.749505
0.687388
0.500225
0
0.750809
0.989495
0.619026
0.595327
0.406604
0
0.60259
0.786093
0.628773
0.809957
0.860721
1.45038
1.09623
0.483997
0.664057
0
0.747076
0.392371
0
0.838532
0.650711
0.409785
0.448243
0.257153
0.342502
0
0
0
0.344254
0.409196
0.390649
0.790211
0
0.420822
0
0
1.03442
0
0.857921
0
0.764591
0.229209
0
0.699646
0
0.158435
0
0.762877
0.727475
0
0.936028
0
0.708763
0.765958
0.84432
0
0.808146
0
0.440046
0.259871
0.394121
0.62577
0.593306
0
0
0.358524
0.422757
0.791039
0
0
1.09111
0
0.566517
0.154181
0
0.282899
0.524628
0.220686
0.886614
0.321472
0.568279
0.578006
0.502751
0.800525
0
0.495708
0
0.511423
0.254862
0.777989
0.125574
1.28851
0.50642
0.570567
0
0.471995
0.259357
0.579211
0
0
0.641388
0.753828
3.47301
0.940642
0.910912
0.538499
0
0.215034
0
0.531293
0
0
0
0
0.270013
0.431486
0
0.634778
1.14469
0.361251
0
0
0
0.354735
0.473281
0.8958
0.461438
0
0.501432
0
0.883399
0.719681
0
0.350541
0.372077
0
0
0.320923
0.480618
0.537582
0.279555
0.30848
0
0.412587
0.659725
0
0.266892
0.453181
0
0
0.50492
0.53324
0
0
0
0
0
0
0
0
0
0
0
0
0
0
0
0
0
0
0
0
0
0
0
0
0
0
0
0
0
0
0
0
0
0
0
0
0
0
0
0
0
0
0
0
0
0
0
0
0
0
0
0
0
0
0
0
0
0
0
0
0
0
0
0
0
0
0.318772
0.604293
0.251104
0.436736
0.724458
1.54237
0.527193
1.0697
0.350369
0.551111
0
0.452276
0.472742
0
0.79227
1.01275
0.30681
0.599272
0
0.376909
0.553151
0
0.492981
0.788007
0.411455
0.456094
0
0.50156
0.484106
0
0.633842
0.86732
0
0.195564
0
0.736573
0.556219
0
1.21173
0.911648
0.314817
0.853799
0
0.347518
0.594586
0
0.808166
0.405983
1.90329
0.298001
0
0.990639
0.174234
0
1.04179
1.89123
0.416511
0.974385
0
0.852337
0.624665
0
0.240113
0.841563
0.484344
0.811423
0.282804
1.15567
0.853952
0.865132
1.00117
0.960855
0.464392
0.504151
0.954219
0.555587
0.787588
0.680445
0
0.949107
0.864879
0.473681
0.150109
0.836904
1.85773
0.586054
1.39537
0.979273
0.405606
0
0
0.426076
0.457648
1.50092
1.43666
0.369767
0.305849
0.352779
0.322519
0.588573
1.91041
0
0
0
0
0.34715
0.880958
0
0
0.200346
0.192486
1.46752
0
0
0.993787
0.990597
0.388743
1.27657
0.453816
0.300095
0
1.87064
0
1.43262
1.05745
0.619465
0.210994
0.841342
1.11071
1.10341
1.14661
0
0.724432
1.23879
0.867174
0
1.23673
1.16153
0.813856
0.939846
1.0994
1.84226
0
0
0.556994
0.900319
0.545696
0.720519
1.12412
0
1.29057
0.233988
0.705392
0
0
1.18217
0
0.523706
0.858985
0.596268
0.679652
0
0.673668
0.688523
0.417078
0
0.940487
0
0.615288
0
0.55635
0.643231
0
0.531096
1.38692
0.219182
0.645383
0.514014
0.440306
0
0
0.604166
0
0.434449
0.237997
0.691807
1.29249
0.707733
0.617599
1.04479
2.585
0.84499
0.586015
1.04476
0.355619
0.183182
0.726216
0
0
1.12211
0.469422
0.271083
0
0
0.612281
0.482594
0.864654
0.478227
0.458463
0.549267
0
0.445683
0.296723
0.896245
0.86994
0
0.252657
0.954343
0.638916
1.16914
0.894359
1.25957
0.39786
1.3244
0.153198
0.539191
2.57531
1.80073
0.759872
0.359375
0
0
0
0
0
0.486651
0
1.10959
0
0.791825
1.64092
1.24196
1.10395
1.09285
0.931525
0.78084
0.770948
1.13295
0.176083
0.800701
0.702934
0.482809
0
1.41134
1.00175
0
0.660791
0.134844
0.669483
0
0.591024
0.522681
0.405723
1.00925
0.0700761
0.458707
0
1.03122
0.673803
1.05665
0.646649
0.537967
0.623183
0.553148
0.676908
0.43653
0
0.591338
0
0.751741
0.462494
0.660452
1.57832
0
0
0.434948
0
0.36851
0.621942
0.691394
0.908315
0.880291
0
0.46337
0.744519
0.751192
0
0
0
0.57398
0.426901
0.735143
0
0.889049
1.56089
0
0
0.93237
0.394756
0.534159
0
1.18346
0
0
0
0
0.592545
0.539865
1.40922
0.414411
0.273886
0
0.441088
0
0.5834
0
0.168366
0.447121
0.861592
0.935157
0.641737
0
0.554979
0.395916
0.453004
0
0.524758
0.459073
1.18353
0
1.18818
0.238989
0.414478
1.80101
0.672465
0.349049
0.258056
0.295815
0.89763
0
0.775456
0
0.69238
0
0.451919
0
0.785093
0
1.10245
0.372604
0.520223
0.7905
0.794775
0
1.32135
1.0456
0.615218
0.526766
0.637995
0.764581
1.04512
0.54762
0.419653
0.435263
0
0.175112
0
0.790115
0.606081
0.407713
0.663273
0.319213
0.356078
0
0.47052
0
0.618745
0
0.564831
0.660108
0.435518
0.0512824
1.08765
0
0
0.86936
0.560498
0.654705
0.255216
0
0.636822
1.4463
1.11644
1.22778
0.372583
0.277354
0.756431
0
0.483103
0
0
0.462846
0.924004
0.541923
0
0.76391
0.60579
0
0.789694
0.276211
0.829275
0.323458
0
0.576314
1.1325
0.641997
0.552178
0
0.504275
0
0.799476
0
1.8531
0
0.521422
1.12983
0
0.756057
0
0.602445
0.565518
0.462177
0.423576
0.339176
0.540905
0.537756
0.816647
0
0.479449
0.660989
0.822466
0
0.867137
0.72814
0
0
0.717996
1.03013
0.162486
0
0.766311
0.393897
0.221405
0
0.349921
0.555165
0.559679
0.871377
0
0.80844
0.797467
0.613876
0.382142
0.519905
0.362363
0.594388
0.45138
0
1.15352
0.388752
0
0.637838
0.725195
0.710675
0.391888
0
0.803011
0.58159
0.654953
0
0
1.08058
0.585647
0.841855
0
0.336964
0.662152
1.27798
0.686985
0.38784
1.48983
0.505442
1.48297
0.622251
0
0.494666
0.893628
0.7722
0
0.487062
0
0
0.50467
0.537819
0
1.46565
0
0.622159
0.135779
0.627039
0
0.670896
0
0.851185
0
0
0
0.6869
0
0
0.643698
0.851798
0.631001
1.41687
0.537142
0.581957
0.530287
0
0
2.02468
0
0
1.54091
0.879917
0.769596
0.28662
0.285506
0.405837
0.848487
0
0
0.512015
0
0.288247
0.855359
0.620459
1.61202
1.1685
0
0.605365
0.432967
0.587328
0.565788
0.442131
1.20675
0.952103
0.964867
0.534078
0.353199
0.393053
0
0.412421
0.578002
0.524345
0.647971
0.485026
0.863963
1.06299
0.873853
0.731397
0
0.172268
0.512025
0.646119
0.18414
0.486863
0
1.36454
0.781659
0.499018
0.27093
0.954171
1.35595
0.621472
1.71998
1.19268
0.318201
1.1261
0
1.56379
1.0052
0.321625
0.405339
0.328341
0.768265
0
2.62522
0.751603
0
0.408283
0
0.858536
0
0.474376
0.56704
1.14894
0.784946
0
0.467899
0.526829
0.784279
0
0.844531
0.654655
0.496787
0.960665
3.07938
0.765584
0.458496
0.560415
0.823937
0
0.693774
0.713399
0.690125
0
0.380149
0.76074
0.629929
0.50621
1.03427
0.266827
0.258572
0.473001
0.305447
0.717274
0.324023
0
0.658378
0.557664
0.387998
0.255252
0.616322
0.405929
0.445831
0.462198
0.53032
0
0.366085
0.763005
1.29193
0
0
0.398201
0
0.993227
0.350646
0.316901
0
0
0.564
0.688363
0.535247
1.17468
1.1402
0.431755
0
0.508371
1.15627
0.249612
0.102749
1.07301
0
0.139221
0.639055
0.519614
0.792663
0.561532
0.592115
0.977509
0.625943
0.564234
0.438115
0
0.425544
0.675381
0.306756
0.507292
0.315752
0.777081
0.315652
0
0
0.37491
0.457733
0.538159
0.694801
1.04662
0.8192
0.66159
0.783613
0.358638
0
0.369848
0.421775
0.434301
0.78887
0
0.654604
0
0.484063
0
0.353548
0.265829
0.6045
1.13959
0.203169
0.382738
0.401358
0
0
1.21923
0
0.615129
0.760209
0.846511
0.544777
0.370969
0.390519
0.801915
0.723643
0.596636
0.852536
0.595052
0
1.13262
0.646247
0
0.526838
0.153665
0
0.540201
1.04066
0.564972
0.787845
0
0.609314
0.327955
0.238844
0.471809
0
0.342889
0.744868
0
0.805298
0
0.588837
0.38107
0.770033
0.764667
0.925246
0
0
0.798105
0
0
0.817719
0
0.37468
0
0.753772
0
0.855963
0
0
0.842033
0.469545
0.45123
0
0.875893
0.292606
0.587417
0
0
0
0.48545
0.262797
0.395582
0
0.561184
0.597471
0.550444
1.43783
0.68719
0
0.69037
0.387278
0.342892
0
0.604365
0
0
1.30715
0.323359
0.699941
0
0
0.277861
0
0.349226
0.279291
0.60544
0
0.49833
0.39073
0.587037
0
0.463154
0.760022
0.720118
0
0.902678
0.626486
0
1.31837
1.37802
0
0
0
0
0.54254
0.394041
0.732738
0.573331
0
0.566815
0.312405
0.678677
1.13626
0
0
0.691984
0.45529
0.634131
0
0.510045
0.520756
0.329148
0
0
0.631219
0
0.667833
0
0
0.962803
0.235837
0.400325
0
0.803439
0.127616
1.17704
0
0
0.649664
0.902023
1.58105
0
0.943815
0
0.668531
0
0.503428
0.21338
0.420553
0
0
0.326002
0.680426
0.243403
0.42134
0.4641
0.831673
1.10223
0
0
0.778919
0.638329
0
1.03768
0.713859
0.47602
0
0
0.483393
0
0.808989
0
1.01548
0.670505
1.0255
1.43538
0.506338
0
0
0.871337
0.44929
0.89735
0.368708
0.60408
0.389604
0.390014
0.178647
0.725101
0.302673
0.241803
0.716805
0.95996
0.346467
0.0715871
0.648728
0.196261
0
0.696459
0.73216
0.283489
0
0
0
0.259788
0.172046
0.324376
0.426402
0.707577
1.15697
0.49899
0.446009
0
0.557393
0.686254
0.239865
0.360226
0.305716
0
0.550197
0.443469
0.38209
0.848348
0.292542
0.912341
0
0
0
0
0
0
0
0
0
0
0
0
0
0
0
0
0
0
0
0
0
0
0
0
0
0
0
0
0
0
0
0
0
0
0
0
0
0
0
0
0
0
0
0
0
0
0
0
0
0
0
0
0
0
0
0
0
0
0
0
0
0
0
0
0
0
0
0.560098
0
0
0
0
0
0
0
0
0
0
0.115233
0
0
0
0
0
0
0
0.817942
0
1.25462
0
0
1.96915
0
0
0
0
0
0
0
0
0
0
0
0
0
0
0
0
0
0
0
0
0
0
0
0
0
0
0
0
0
0
0
1.47364
0
0
0.935836
0
0.338901
0
0.792159
0.0538118
0
0.676374
0.97082
0.299396
1.16264
0
0
0
0.467567
0
1.23036
1.28877
2.6809
0.923208
0.675059
1.14883
0.699112
0.429984
1.2766
0
0.732402
0.778142
0
0.376086
0
1.22653
1.46358
0
0
0.694012
0
0.719204
0
0.935806
0.281972
0.245473
1.30344
1.56789
1.47528
0
0.584567
0.566979
0.500705
0.801605
1.26434
0
1.18768
0
0
0
0
0.533635
0
2.10895
0.567409
0.461253
0.623972
0
0
0.619849
1.39798
0.730942
1.24359
0.716749
0
0
0.962795
0.760141
0.781241
0.405839
0.638176
0
0.307718
0.994069
0.491478
1.03438
0.70474
0
0
0
0.586726
0.705005
0.578556
1.26136
0.899617
1.16284
0.456861
2.24917
0.854496
0.588099
0
0.324711
1.55834
0.723409
0.601166
0.346265
0
1.0745
0.907944
0
0.464787
0.495501
0.267319
0.426191
0.837484
1.32109
0.739594
0
0.537849
0
0
0.950859
0.469892
0.471198
0.463696
0.739772
0.613394
1.32852
1.08679
1.2893
0.651115
0.896281
0.905944
1.05278
0
2.36085
0.913416
0.971929
0.534103
0.428681
0.634616
1.15734
1.07875
0.41141
0.437395
0
0.837833
0.497403
2.09737
0
0.620746
0.532929
0.542778
0
0.66351
0
0.689588
0.567649
0.568634
0
0.424512
0
1.05076
2.3104
0.634011
0
0.241481
0
1.92567
0.832942
0
0
0.404746
0.780631
0
0.531472
0
0.958798
0.9916
1.25699
0.483407
0
0
0.437119
0.45861
0.297788
0.424897
0.973452
0.821035
1.46456
0.96973
0.123284
0
0.749916
0.526332
0.760853
0.487007
0.526256
0
0.428443
0.68664
1.09326
1.08127
0
0.777361
0.862215
0.383233
0
0
0.523413
0.33073
0.403049
0.661002
0
0.440677
0.265763
0
0.278899
0.420422
0.282916
0.685279
1.05066
0.329467
0
0.267864
0.592914
0
0.847648
0.457456
0.956825
0
0.499612
0
0.653724
0.970139
0.822844
1.39485
1.28302
0.717364
0.397176
0.623786
0
0
0.495554
0
0.552537
1.01867
0.705054
0.366985
0.881335
0.306719
0.531742
0
1.21899
0.601834
0.873289
1.04338
0.452034
0
0.596727
0.662175
0
0
0
0.0788063
1.31695
0
0.708706
1.53869
0
0.683934
0.383745
0.595531
0
0.975972
0.428635
0.337393
0
0.574401
1.03688
0.531476
0.460206
0.47187
0
0.46945
1.08912
0.670869
0.657797
0
0
0.951049
0.794178
0.64193
0.222392
0.602216
0
0
0.270603
0
0.465727
0
0.290071
0.123867
0.686956
0
0.447104
0.745696
0.298335
0.614335
0.310947
1.57085
0.911053
0
0.567511
0
0.846729
0
0.600705
0.517782
0.520391
0.284253
0
0
0.237848
0
0.677458
0
1.00287
0
0.583695
0.409854
0.84876
0
0
0.610618
1.2091
0.390608
0.724557
0.547626
0.800568
0.453673
0.514793
0.715249
0.60952
0.441402
0.53051
0.450322
0
0.538008
0.625792
0
0.773313
0.4798
0
0
0.657327
0.807313
0.378888
1.22711
0.591159
0.566669
0.611866
0
0.20063
0.519137
0.490308
0.895294
0.916498
0.733172
0.461857
0.635687
0.423025
0.22074
0
0.504486
0.613164
0.358583
0.458978
0.805653
0.728451
0
0.724303
0.337505
0
0.951778
0
0.244251
0.884869
0
0.554006
0.949634
1.45208
0.732181
0
0.73062
1.21635
0.254856
0.767636
0.820414
0.702651
0
0
0.652442
0
1.09254
0.512816
0.241716
0.40903
0.381467
0.453259
0.48352
0
0.452909
0.838776
0
0.728778
0
0.561812
0
0.571826
1.13937
0.99036
0
0.525444
0.850588
0
0.476987
0
0
0
0
0
0.843396
0
0.783564
0.491182
0.783213
0.615943
0.571865
1.30619
0.650508
0.765438
0.500557
0.787268
0
0
1.32447
1.02075
0
0.713145
1.81432
0
0.797398
0.527487
0.493444
0
0.332695
0.544636
0
0.664411
0.752513
0.633844
0.726619
1.07674
0
0.0453343
0.580129
0.491012
0.486298
0
0.711089
0.394224
1.19927
1.09253
0.536659
1.52065
0.644152
0.953363
0
0
0.477476
0.638969
0.855454
0.539626
1.06202
1.06311
0.715853
0
0.783666
0
0
0.947416
0.625407
0.563869
0.154287
0
0.326057
0.805755
0
0.66298
0.380557
0.553671
1.34007
0.90229
0
0.448223
0
0.406988
0.833601
1.97492
0
0.14983
0.946529
0
0.620082
0
0
0.396748
0.551862
0
0.379453
0.806583
0.39779
0.341913
1.47014
0.573703
0.262806
1.42193
1.31466
1.01662
1.28455
0.512493
0.417418
0.761087
0.163403
0
0.421005
0.62017
0.529636
0.451031
1.09593
0
0.606694
0
0.886065
0
1.29247
0.208983
0.757513
0.70175
0.448418
0
0.201099
0.750219
0.409853
0.670289
1.52374
1.13282
0.616314
0
0
0.65421
0
0
0.380508
0
0.422623
0
0.471353
0
0.181121
0.665424
0.325777
1.29053
0.439843
0
0.870257
0.671602
0
0
0
1.11106
0.0724236
0.723521
0.60217
0.529023
0
0
0
0.496453
0.28713
0
0.423381
0
0
0
0.151793
0.284307
0.506818
0.202232
0.331499
0
0
1.15347
0.356477
0.992321
1.16968
0
0.462907
0.483477
0.865865
0.821791
1.40703
0
0.299814
0
0.425681
0
0.52692
1.10968
0.700515
0.95294
0.844608
0.641711
0.26966
0.849779
0
0.398108
0.374004
0
0
0.736262
0.434852
0.469885
1.4177
0.707587
0.999623
0.527747
0.643768
0.264226
0.389217
0.325221
0.289919
0.669925
0.397141
1.07899
0
0.603833
0.221512
0
0.28723
0
0.596539
0
0.323382
0
1.02399
0.337448
0.98823
0.317058
0
0
0.468191
0.28949
0
0.31335
0.566799
0.656229
0.443078
0
0
0.399398
0.850954
0.457821
0.426076
0.430473
0.342583
0.747049
0.451052
0
0
0.263006
0
0.446351
0
0.425504
1.27933
0.123927
0.19164
0.818312
0
0.50976
0
0.499497
0
0
0.946985
0
0
0.625069
0
1.17911
0.747057
0.459927
0
0.057411
0.854752
0.702492
0
1.35952
0
0.819423
0.826077
0.393032
0.588743
0.142961
0.553248
0
0.912742
1.04998
0.659418
0.802046
0.595617
0
1.92206
1.48393
0.440603
1.0662
1.28497
0.798553
1.53001
0.364047
0
0.151435
0.44581
0.33235
0.513712
0.427677
0
1.07102
0
0
0
1.3775
1.48068
0.624674
0
0.451875
0
0.453358
0
0.438273
0.366111
0.43963
0.565063
0.636679
1.07537
0.470823
0.342958
0.380184
0
0.364612
0.724209
0.675977
0
0.199867
0
0.286107
0.493037
0.444341
0
0.509123
0.391662
0.47183
0
1.14479
0.521764
0
0.702589
0.634979
0.69372
0
0
1.07345
0.426042
0.458434
0
0.531417
0
0.572985
0.550513
1.09909
0.144367
0.491561
0
0
0.21212
0.579571
0.907409
0.591159
0.346391
0
0.691431
0
0.478366
0.334269
0.452369
0.531067
0.600163
0.972396
1.08259
0.779075
0.706353
1.65495
0.472665
0.122069
0
0
0.774591
0
0.663674
0.304238
0
0
0.473239
0.183184
1.28781
1.24143
0.342367
0
0.9086
0.544051
0
0
0.64069
0
0.829317
0
0.327732
0.972111
0.433812
0.723109
0
0.519688
0.867726
0
0.972224
0.516932
0.403358
0
0.847861
0
1.85927
0
0
0.647096
0
0.901622
0.685269
0.459127
0
0.680785
0
1.2497
0.544722
0.658759
1.07254
1.01175
1.18668
0.356178
0.978948
0.535663
0.635359
0.38141
0.455046
0.403797
0
0.772266
0
0.271432
0.494423
0
0.339199
0
0
0
0.520168
0
0.588626
0.263782
0.43097
0
0.677813
0
0.681735
0.472927
0
0.214264
0.399813
0.446914
0
0.961788
0
0
0
0
0
0
0
0
0
0
0
0
0
0
0
0
0
0
0
0
0
0
0
0
0
0
0
0
0
0
0
0
0
0
0
0
0
0
0
0
0
0
0
0
0
0
0
0
0
0
0
0
0
0
0
0
0
0
0
0
0
0
0
0
0.410423
0.6126
1.79905
0.535593
0.539441
0
0.3227
1.32237
0.338114
0.315497
0.759605
0.43316
0.520918
0.536478
0.409723
1.50262
0.480637
0.397593
0
0.384999
0.433532
0
0.46927
0.744382
0.336758
0.457397
0
0.703185
0.347281
0.991575
0.432258
1.33083
0.189026
0.72177
0.447625
0.48336
0.699347
0
0.322006
1.01485
1.21177
0.530398
0
0.965181
0.257006
0
0.981997
1.81052
0.600795
0.816959
0
0.113628
0.307689
0
0.251428
0.226636
0
0.508271
0
1.82593
0.44364
0
2.29016
0.569832
0.399319
0.824246
2.59093
0
1.13723
1.70091
0.662704
0.392796
0.489468
1.78422
0.903109
1.19262
0.764877
0.915312
1.45662
0
0
0.564025
0
0.786493
1.20931
1.46889
0.561846
0.643051
0.585827
0.421799
0.630731
0.532739
0
0.521372
0.487992
0.437322
1.35343
0
1.00759
0
0.964452
1.22292
0
0.329193
0.917945
0
0.756034
0.506393
0
0
0.501858
0
0.572684
0.726419
0.553488
0.364843
0.539119
0.793819
0
0
0.949443
0.575984
1.30623
0
1.70858
1.16427
0.467111
0.529931
0.398551
0.451482
0.442046
1.06289
0.479472
1.16536
1.6412
0.721345
0
0
0.895146
0.305913
0.576209
0.0836523
0
0.481261
0
0.278855
0.297077
0.691002
0
0.305485
0
1.39118
1.01921
0.81755
1.81906
2.34485
0
0
1.48778
0.731063
0
0
1.42891
0.33364
0
0.586301
1.0624
0.606576
0.243975
0.686636
0.394459
0.838472
0
0.260643
1.20939
0.656564
0
0.472105
0.62947
0.308446
0.483184
0.689133
0.932706
0.748791
0.265902
0.624493
0
0.793475
0.724029
1.46573
0.0851517
1.53541
0.88025
1.07082
1.31442
0.204371
0.714749
0
1.05101
2.11618
0.813404
0.0749822
0.501827
0.745535
0
0.293347
1.11292
0.632558
0.463839
0
0.312505
1.60325
0.533537
0.885547
0.547491
0
0.468963
0.505703
0.511121
0
0.429516
0.796027
0.41176
0.825388
0.77281
0.789376
1.28197
0.673805
0.62031
0.578399
0
1.26605
0
0.341878
2.76121
1.50018
0
0.7164
0.336759
0.141756
0.483439
1.23218
0
0
0.649937
1.01579
0.538649
0
0.442355
0.37235
0.667984
0.655074
0.889559
0
0.368233
0
1.2511
0
0.829264
0.827842
0.68637
0
0.794661
0
0.491485
0.467209
0.636724
0.313431
0.573712
0.149786
0
0
0.37732
0.425176
1.03017
0.861403
0.708911
0.398332
0
1.0766
0.904045
0.607419
0.500158
0
0.646489
0.95442
0.885327
0
1.02661
0.597927
0
0.670555
0.107493
0.409193
1.18183
0.923257
0.178147
0
1.92293
0.326665
0.272929
0
0.43354
0.935231
0.535805
0.533092
0.793377
0
0.797744
0.965711
0.441411
0
0.905814
0
0
0.84289
0.784551
0.765617
0
0.542602
0.54266
0.726928
0.385488
0.413891
0.51985
0.38313
0.583041
0.432715
0
0.933531
0
0.350527
0
1.00233
0.896288
0.607394
0
0.476771
1.14322
0
0.499747
0.667264
0.860653
0.642199
0.358301
0.608768
0.828873
0.837893
0.439861
0.197187
0
0
0.491102
0.227807
0.463158
0
0
0
0
0
0.367458
0.422327
0.712164
0.614182
0
0.665648
0.38931
0
0.33032
0
0.620507
1.74744
0
0.712824
0
0.592967
0
0.595559
0.367201
0.575927
0.625217
0.369523
0
0.720172
1.44896
0.424363
0.963637
1.33628
0.920328
0
0.755593
0.761736
0
0
0
0
0.479417
0.449538
0
0.515397
0.361786
0.553973
0
0.452812
0.343292
0.575689
0
1.56975
0.379226
0
0.344195
0.454202
0.524614
0
0.375182
1.30862
0.540488
1.36672
0.886555
0.612544
0.71764
0.450721
0.7101
0.401992
0
0.77627
1.0378
1.43329
0.483072
0.509426
0.797008
0.471931
0
1.85653
0
0.446019
0
0
0.478129
0.561665
0.443916
0
0.696664
0.317397
0.250903
0.719185
0.694528
0.167262
0.866761
0.851653
0.481346
1.02529
0.391225
1.87263
0
0.679635
0
0.856098
0
1.2854
0
0.325111
0.646178
0.447382
0.732032
0.188476
0.0476686
0.637232
0.868922
0.924784
0.484853
0.850943
0
1.50751
0
0.577964
0
0.976893
0.759297
0.695315
0.739024
0.599069
0
0.495391
0.466534
0.857095
0.615692
0.60342
0.511535
0.514713
1.07773
1.06098
0.405953
0.583536
0.534632
0.800059
0.832957
0.542851
0.498206
0
0
0.495272
0
0.817849
0
0.248871
0.687026
0.518283
0.937965
0.313488
0.777861
0
0
0.459364
0.227213
1.18249
0.474836
1.16924
0.537829
0.994137
0.315402
0.429929
0.427377
0.555886
2.57545
0.533842
0
0.979798
0.721006
0
0
0.681759
0.482233
0.932901
0.722817
0.807175
0.615499
0.311824
0.554367
0
0.415142
1.00046
1.01002
0.683592
0.733894
0.169812
0.672132
1.11806
0.390255
1.57872
0.562246
0
0.613793
0.512566
0.46024
0
0.515889
0.644934
0.716933
0.94246
0.987886
0
0
0
0.315719
0
0
0.677503
1.26707
0.250401
0.580263
0
0.55359
0.524514
0.792009
0.400075
0.354323
0
0.63924
0
0.508824
0
0.453294
0
0.763674
0.542771
0.537605
0
0
0.208198
0.638853
0.703368
0.817562
0.968709
0.468443
0
0.345246
0.651556
1.44905
0
0.560536
0
0.401437
0.391967
0.738917
0.513295
0
0
0
0.77072
0.484583
0.816724
0
0
0
0.544238
0
1.1286
0.728157
0.852729
0.811952
0.476246
0.513452
0.59091
1.0102
0.763492
0.505538
0.327694
0.291836
0.822182
0.76228
1.19411
0
0.727828
0
0
0
0.492584
0
0.809103
0.641282
0.367886
0
0.549872
0.312283
0.484735
0.49724
0.368336
0.68211
0.377695
0.623501
0
0.523124
0
0.48038
1.40462
0.266304
0
1.11156
0.899553
1.06569
1.04876
0
0
0.992861
0.477023
1.1239
0.685128
0
0
0.78388
0.518938
0
0.700351
0.077417
1.15231
0.758643
0.630446
0.817561
0.898009
0
0.583456
0.325061
0
0.568001
0
0.542397
0.440147
0.826752
0.975229
0
1.08362
0.537267
0.71922
0
0.493327
0
0.445991
0
0
0.251894
0
0
0
0
0.387277
0
0
0.965633
0
0.868894
0
0.34902
0
0.521507
0
0
0.351741
0.496172
0.652493
0.775551
0.844141
0.479573
0.836539
0
0.532079
0
0.45498
0
0.40388
0
0.790565
0
2.56858
0.253328
0.431983
0.730942
0.394901
0.464763
0
0.675975
0.227509
0.668371
0
0
0.650029
0.38198
0.406707
0
1.13195
0
0.350872
0
0
0
0.359492
0
0.645325
0.276055
0.766452
0.573503
0.443495
0.956282
0.598108
0.556652
0.922099
0.64281
1.20414
0.556547
0.519479
0.359197
0
0
0.624956
1.30565
0.435794
0.33742
0.410119
0.612704
1.17308
0.659289
0.835663
0.894194
0
0.424846
0.954225
0.559788
0.854212
0
0.518423
1.61656
0.47895
0
0.503108
0.381312
0.51932
0.393179
0.862771
0.165032
0.612857
0.441226
0.663392
0
0.467126
0
0.548705
0
0.588577
0.253678
0
0.692469
0
0.244695
1.02232
0.92459
1.96697
0.785503
0
0
0.497874
0.345407
0.721494
0
0.058648
0.331259
0.842014
0.438495
0.494793
0.803816
0.510129
0
0.341147
0.267354
0
0
0.831625
0
0
0.658861
0.624889
0.552834
0
0.572057
0
0.229304
0
0.575854
0
0.369273
0
0.635545
1.10827
0.659245
0.916857
0
0
0.400336
0.449648
0
0.356059
0.693797
0.494944
0
0.567504
0
0
0.681234
0
0
0
1.37617
0
0.628512
0.485421
0.727243
0
0.747086
0.536769
0.593122
0.434803
0.569063
0.774415
0.441649
0.690542
0.433823
0.840775
0
0.425397
0
0.522997
0.562312
0.340157
0.248015
0.14378
0.362898
0
0.736773
0.894718
0.386618
0
0.836931
0
0
0
0.650801
0
0
0.289024
0
0.54346
1.19926
0.425931
0
0.441718
0
0.342906
0.52697
0.58906
0
0.433422
0
0.812125
0
0
0.810611
1.05604
0.639927
1.30971
0.749145
0.442552
0.438238
0
0
0.593119
0.776222
0.507033
0.486279
0.212958
0.64961
0.47009
0
0.269454
0.532324
0.445673
0.232396
0.571149
0.574677
0
0.490766
0.303309
0.634362
0.588505
0.804504
0
0.352273
0.813493
0.54145
0
0.533806
0.534205
0
0
0
0
0
0
0
0
0
0
0
0
0
0
0
0
0
0
0
0
0
0
0
0
0
0
0
0
0
0
0
0
0
0
0
0
0
0
0
0
0
0
0
0
0
0
0
0
0
0
0
0
0
0
0
0
0
0
0
0
0
0
0
0
0.225937
0.541682
0
0.419877
0.398323
0.0470345
0.537074
1.65083
0.181315
0.428323
0
0.40833
0.311291
0
0.638258
1.2084
0.191414
0.502175
1.62578
0.685898
0.514898
0
0.446831
0.825989
0.199181
0.408519
1.27965
0.554246
0.479606
0
0.430748
0.987822
0.552404
0.320409
0.859678
0.576589
0.691994
0.655216
0.926769
0.656969
0.24217
0.345641
0.396226
0.519323
1.77522
0
0.415216
1.05782
0.605556
0.267999
0
0.920911
0.699222
0.421048
1.42767
0.685233
0.221271
0.718858
0
0.267051
1.16109
0
0.77505
0.818404
0.569917
1.53451
1.15196
0.688249
0.68154
0.749749
1.11229
0.271661
0.931726
0.265676
1.44896
0.711005
0.740823
0
1.02203
0.892615
1.96501
0.475895
0.705382
1.07797
0.454668
0
0.668042
0
0.80582
0.763537
0.371339
0
0.638248
0
0.280529
0.386172
0
0.826108
0
0
0
0.341614
0.320804
0.840154
1.15018
1.30064
0
0.972801
0.461444
0
0
0
0.635274
0
0
0.932906
0
0
0.420681
0
1.32243
0
0.627778
0.997918
0.735222
0
0.71226
0
0.930569
0
0.400943
0.67223
0.37454
0
0.908483
0.53949
0.756507
1.33793
0.524882
0.752245
0
0.881832
0.7092
0.778106
0.637122
0.434998
0.135751
0.354576
0
0.662699
1.15268
1.23516
0
0.680548
1.21839
0.353913
0.621484
1.09356
1.13941
0
0.321427
0.165158
0.603448
0.651937
0
0.952974
0.323754
1.86006
0.861833
0.85975
1.13182
0.410366
0
0.550313
0
0.48853
0
0
0
0.608206
1.15444
0.657783
1.83223
0.471775
0
0.303262
0
0
1.01305
1.0007
0.756372
0.529414
0.973292
1.79539
0.471831
0
0.546846
0
0.711482
0
1.10686
0.966237
0.86082
0.541407
0.671616
0.807231
0.102752
1.38772
0
0.381569
0.83743
1.07727
0.89038
1.41462
0
0.591059
0.198025
0.181716
0
0.537954
0.334862
0.744043
1.26952
0
0.901601
0
0.386727
1.85978
0.639069
0.555031