<?xml version="1.0"?>
<VTKFile type="RectilinearGrid">
<RectilinearGrid WholeExtent="0 32 0 32 0 32" Origin="0 0 0" Spacing="1 1 1">
<Piece Extent="0 32 0 32 0 32">
<PointData>
</PointData>
<Coordinates>
<DataArray type="Float32" format="ascii">
0 0.524874 1.04975 1.57462 2.0995 2.62437 3.14924 3.67412 4.19899 4.72386 5.24874 5.77361 6.29849 6.82336 7.34823 7.87311 8.39798 8.92285 9.44773 9.9726 10.4975 11.0224 11.5472 12.0721 12.597 13.1218 13.6467 14.1716 14.6965 15.2213 15.7462 16.2711 16.796 
</DataArray>
<DataArray type="Float32" format="ascii">
-5.03879 -3.62163 -2.20447 -0.787311 0.629849 2.04701 3.46417 4.88133 6.29849 7.71565 9.1328 10.55 11.9671 13.3843 14.8014 16.2186 17.6358 19.0529 20.4701 21.8872 23.3044 24.7216 26.1387 27.5559 28.973 30.3902 31.8074 33.2245 34.6417 36.0588 37.476 38.8931 40.3103 
</DataArray>
<DataArray type="Float32" format="ascii">
0 0.524874 1.04975 1.57462 2.0995 2.62437 3.14924 3.67412 4.19899 4.72386 5.24874 5.77361 6.29849 6.82336 7.34823 7.87311 8.39798 8.92285 9.44773 9.9726 10.4975 11.0224 11.5472 12.0721 12.597 13.1218 13.6467 14.1716 14.6965 15.2213 15.7462 16.2711 16.796 
</DataArray>
</Coordinates>
<CellData>
<DataArray type="Float32" Name="Scalar" format="ascii">
0
0
0
0
0
0
0
0
0
0
0
0
0
0
0
0
0
0
0
0
0
0
0
0
0
0
0
0
0
0
0
0
0
0
0
0
0
0
0
0
0
0
0
0
0
0
0
0
0
0
0
0
0
0
0
0
0
0
0
0
0
0
0
0
0.195193
0.248378
0.699535
0.327747
0.288224
0
0.251841
1.81104
0.271868
0.257499
0.899806
0.464686
0.351141
0
0.370106
0.994241
0.215058
0.283485
0.418632
0.356732
0.426137
0.924171
0.364539
0.985248
0.212883
0.435662
0.467805
0.413588
0.370064
1.18349
0.413907
1.33814
0.0347831
0.765489
0
0.627554
0.720043
0
0.110356
0.4355
0
0.180353
1.0228
0.573355
0.681905
1.88843
0.839673
0.323649
0.0605222
0
0
0.137472
0
0
0.139458
0.79196
0
0.0443256
0
0.983716
0.436064
0
2.02576
0.618262
0.87262
1.40428
0
0.29392
0.858921
0.428108
0.348135
1.60348
1.52351
0.19193
0.285145
0.823452
1.0595
0.44339
0.503379
0
0
0.361473
0.828246
0.632321
0.375729
0.133301
0
1.35499
0.535307
0.455119
0
0.587303
0.442387
1.01966
0.656071
0.798623
0
0.760866
0
0.48515
0.596293
0.835863
0
0.822992
0.088764
0
0.438049
0.479284
0
0.815735
0.717971
0.507029
0.780851
0.591682
0
0
0.704028
0
0.478435
0.793863
0
0
0.668108
0.840337
0
0.813713
0
0.190196
0.620384
0.37385
0
0.609455
0.402493
0.438332
0
0.737607
0
0
0.378715
0.625079
0.644565
0
0.562652
0.922689
0.578355
0
0.215986
0
0.341618
0
0
0.564274
0.694299
0.54649
0.41677
0
0.365081
0.578144
0.230508
0.513133
1.63106
0.376261
0
0.513656
0
0.746384
0.913114
0.365094
0.855495
0.660073
0.817801
0.223468
0.905996
0.400079
0
0
0.382155
0
0.40527
0.486027
0.398343
0.9434
0.771963
0.476104
0
0.709393
0.746065
0.131599
0.588381
0
0.537141
0
0.375134
0
0
0
0.358021
0.51961
0.565124
0
0.810739
0
0.211683
0
0.356501
0.597697
1.56675
0.836516
0
0.499465
0.549359
0.730854
0.623006
0
1.25354
0.535566
0.757789
1.04224
1.30663
0.43797
0.525412
0
0.65019
0.705808
0
0.501886
0
0.470321
0.998776
0.787983
0.511577
0.546174
0.271306
0.420327
1.03272
0.446037
0
0.354487
0.903966
0.288675
0
0
0.292899
0.376955
0.509872
0.617189
0.430305
0.981268
1.59283
0.441691
0.447603
0.567637
0.403597
0.425726
0.396434
0.318011
0.42696
0.170388
0.687875
0.501251
0.84035
0.510743
0
0.670698
0.605891
1.77629
0.448042
0.195191
0.677314
0.461505
0.390517
0.297812
1.11614
0
0.95708
0.576562
0
0.38305
0
0.855888
0
0
0.37571
0
0.532847
0.605794
0.822575
0.307323
0.362063
0.410926
0.456552
0.439237
0.777775
0.617506
0.702883
0.453119
0
0.51178
0.574972
0.786964
0
0.942762
0
0
0
0
0.741918
0
0.502786
0
0
0.967417
0.716681
0
0.65989
0
0.341051
0.192687
0.553238
0.466404
0.853657
0.516177
0.487078
0.0771954
0.11507
0
1.20625
0.667562
0
0.447883
0
0.612914
1.46799
0.73741
1.15296
0.52613
1.04524
0
0.953359
0.399608
0.191785
0
0.799652
0.864417
0.54181
0.755379
0.73347
1.77575
1.0584
0.528749
0.410421
0.377786
0
0
0.053496
0.431611
0.713469
0.557958
0
0.478688
0.971408
0.190063
0.43575
0.993916
1.19658
0.454099
0.437039
0.392123
0.683502
0.169059
0.870499
0.42594
0.332393
0.204389
0.192358
0.518879
0.713328
0.49543
1.66202
0
0.484068
0.584421
0.448267
0.687929
0.0722494
0
0.915871
0.438372
0.535532
0.86051
0
0
0.796444
0.581449
0.366897
0.700703
0.628393
1.20874
0.676909
0.396779
0.339484
0.444554
0.802213
0.334408
0.430519
0.466141
0.531357
0.385806
0.786188
0.544648
0.5017
1.05916
0.403722
0.709364
1.49566
0.371435
0
0.726389
0.285499
0
0.62778
0
0
0
0
0.504222
0.284803
0.508274
0.649535
0.524235
0.596277
0
0
0
0.546727
0
0.388578
0.32939
0.396894
0
0.396071
0.771834
0
0.188201
0
0.775302
0
0
0
0
0.567427
0.755103
0.89558
0
0.517518
0.489445
0.383815
0.89864
0.589724
0
0.723834
0
0
0.63227
0.706775
1.6057
0
0.206952
0.245111
0.653175
0.290159
0
0.595695
0.551736
0.527296
0.684528
0
0.281069
0.451341
0.596802
0.48107
0.441518
0
0.294012
0.40367
0.59159
0.259278
0
0
0.790449
0.697602
0
1.02716
0.60292
0.704396
1.08787
0
0
0.387629
0.466292
0.551551
0
0.721736
0
0.544573
0.457864
0.312771
0.49503
0.36316
0.733804
0.613771
0.727962
0
0.842205
0
0.594664
0
0.317105
0.198816
0
0
0.829317
0.515808
0.761454
0.433838
0.392657
0.718602
0.549012
0
0
0.949405
0
0
0.223137
0.935922
0.638156
0.343253
0.663532
0
1.85121
0
0.457476
0
0.695223
0
0.371361
0
0.389671
0.50353
0
0.753849
0.223893
0.334691
0
0.647715
0
0.636245
0.90097
0.92198
0.32744
0.905982
2.69083
1.20677
0
0.630202
0.9027
0.837909
0.526361
0.844173
0.457687
1.10946
1.85677
2.45247
0.780264
0.916706
0.653529
1.94819
0.49235
0.957394
1.96123
2.16011
0.662009
0.255741
0.628802
0.865428
0
2.08731
1.06873
0.707699
0
0.259242
0
1.05198
0.436915
0
0.524712
0.616606
1.29762
0.746596
0.953136
0.524571
0
0.321955
1.35244
0.72224
0.844045
0.940298
0
0.696319
0.979288
1.05565
0.809547
0.839199
0
0.874983
0.408455
0
0.408411
0.430039
0.617075
0
0
0.80911
0
0.43533
0.507166
0.459167
0.44501
0
0.241925
0.552984
0.829633
0.49518
0
0.390405
0
0.834661
1.04986
0
0
0.0944577
0.393422
0.659518
1.09459
0.983006
0.25194
0.353766
0
0.511284
0.289909
0.519525
0.858833
0.654521
0
0.610873
1.09971
0.861228
0
0
1.05879
1.21593
0
0.406548
0.742844
0.693505
0.855582
1.89692
0
0.615378
0
0
1.42584
0.584423
0.400798
1.11383
0.223428
0
0
0.404371
0
0.592557
0.406211
0
0.526056
0
1.53961
1.07812
0.432401
0
1.39812
0.618168
0.726862
1.82185
0
0.462505
0.531544
0
0.212684
0.29906
0.238575
0.4216
0.604451
0.718653
0.94452
1.05835
0.563532
0
0.847334
1.00348
1.18366
0.780941
0
0.39439
0
0
1.16127
0
0.647852
0.883458
0
0
0.291605
0
0.174349
0
0.425081
0
0
0.62311
0
0
0
0
0
0
0.343398
0
0.819012
0.227901
0.529068
0.985388
1.06227
0.224975
0.415348
0
0.511829
1.36418
0.594146
0
1.10895
0.628099
0
0.32946
0.528658
0.840212
0.393492
0.755228
0
0.784824
0.2089
0.800425
0.354322
0
0.379784
0.682942
0.859115
0.956235
0.561182
0
0.715456
0.522435
0
0.517527
1.00328
0
0.421102
0.213284
0.737164
0.563889
0.890802
0.736982
0.555103
1.90824
0.811057
0
0
0
0.68334
0.144664
0.22721
0.537662
0.199279
0
0.459374
0.588384
0.565419
0
0
0
0.549792
0.442697
0
0.769583
0.945392
0
0.862083
0.563209
0
0.325619
0.990808
0.609274
0.394769
0
0.747975
0.485231
0
0.721712
0
0.288826
0
0.31241
0
0.830153
0.494241
0.807443
0.41174
0.97391
0
1.00986
0.375603
0.481637
0
1.29665
1.24567
0
0.716048
1.00182
0.691225
0.659319
1.05597
1.50523
0.338271
0.93092
0.979564
0
0.221299
0.0420232
0.144554
0.606629
0.917942
0.511571
0.577171
0
0.676018
0.917327
0
1.29772
0
0
0.240367
0.545866
0.606581
0.640673
0.433824
0.356151
0.887701
0
0.767462
1.30247
0.994164
0.615496
0.963836
0.358525
0.942587
1.03209
1.08743
1.32751
0.901562
1.44693
0.411911
0.488605
0
0.603867
0
2.12415
1.90118
2.03787
0
0
0.487718
0.739556
1.11236
0.842534
0.67242
1.65041
0
0.948894
0
0
0
0
0
0
0.866819
0
0.702427
1.56011
0.743421
2.02609
0.556763
0
0.319526
1.04361
1.94934
1.45152
0
0.690644
1.00534
0.581306
0.988421
0.508344
1.03485
1.46697
1.20689
0
1.22428
0.7473
1.57731
0
0.653727
0.734673
1.37101
0
1.08511
0.947041
0.775512
0.641166
0.75352
1.1117
0.492421
0.633766
0
0.728196
0.924755
0
0
1.0057
1.21357
1.44447
0.785545
0
1.22541
0.481113
1.27359
0.674404
0.430825
0.48359
0
0.967602
1.71958
0
0
0
0
0
0
0
0
0
0
0
0
0
0
0
0
0
0
0
0
0
0
0
0
0
0
0
0
0
0
0
0
0
0
0
0
0
0
0
0
0
0
0
0
0
0
0
0
0
0
0
0
0
0
0
0
0
0
0
0
0
0
0
0
0.292873
0.678521
0
0.602614
0.272014
0
0.671454
1.15699
0.387094
0.693871
0.359766
0.432962
0.411697
0
0.353092
1.30378
0.0796305
0.498793
0
0.431343
0.515247
0.46422
0.355968
0.939008
0.264681
0.39419
0
0.297745
0.633656
0.141416
0.529821
1.07825
0
0.307649
0
1.26857
0.290385
0
0.248418
0.520225
0.125477
1.54218
0
0.251616
0.58111
0
0.219604
0.858959
0.673623
0.196856
0
0.473922
0.452336
1.00982
1.00861
0.496508
0.213658
0.905566
1.41883
1.25303
1.33038
0
0.58308
0.375431
0.844155
0.636573
0.97354
0.532206
0.279497
0
0.713384
0.306457
0.527744
0.651827
0.457258
0.650136
0.655636
0
0.427559
0.747286
0.576392
0.185484
0.448785
0.687373
0.518875
0
1.10136
0.932211
0.656187
1.07597
0.429094
1.2619
0.717137
0.787179
0
0.736722
0.454751
0.565343
0.658809
0
0.495549
0.508683
0.560909
0.24868
0.282732
0.551355
0.358371
0
0.577236
0.60871
1.50815
0
0
0.456921
0.945363
0.562495
0.383598
0.488199
0.821968
0.485931
0.570562
0.726421
0.620343
0.665482
0.419874
0
0.641337
0
0
0
0.914386
0.512908
0.924433
0
0.649128
0.52096
0.363205
0.455872
0.732952
0.5823
0.558716
0.223102
0.699519
0
0.658197
0.593423
0.415241
0.610765
0.772329
0.555985
0.642033
0.985795
0.665468
1.35197
0.512207
0.0957068
1.03614
0
0.803561
0
0.02801
0.593478
0.738246
0
0.719125
0.745637
0.377151
0.497611
0
0.740824
0.37051
0.492724
0.420062
0
0.656757
0
0.74841
0
0.395139
0
0.292107
0.714204
0.523143
0
0.523479
0.526955
0
0.52078
0
0.769239
0.763051
0.33109
0
0.851272
0.685253
0.483547
1.05438
0
0
1.1081
0.342177
0.188923
0.117025
0.46192
0
0.661711
0.528488
0.364744
0.669306
0
0.387377
0.463107
0
0.347337
0.572198
0
0.0576078
0.698085
0.550366
0.630889
0.530337
0
0.38339
0
0.527541
0.244889
0
0.257524
0.407377
0.810995
0.408936
0.568511
0.713197
0.520007
0.763207
0
0.76758
0
0
0.485575
0.560784
0.455526
0
1.0221
1.23578
0.734187
0.481441
1.56443
1.70878
0.336399
0.616554
0
0.425648
0
1.15693
0.460787
0
0
0.216436
0
0
0
0
0.311873
0.453381
0.828825
0.144115
0.369843
0.262267
0
0
0
0.467268
0.416953
0
0.364175
2.6717
0.718857
0.159196
0
1.22078
0.559681
0.673457
0.444118
0.51298
0.804672
1.10375
0
0.507169
1.82737
0.336173
0
0.54267
0.754688
0.0893972
0
0.29487
0.516698
0
0.137671
0.690477
0.246622
1.09342
0.821383
0.932261
1.15172
0
0.548347
0
1.17497
0.505925
0
0
0.569769
0
0.586215
0
0.565463
0
0
1.81564
0.510165
0.590171
1.18909
0.390269
0.776129
0
0
0.315008
0
0.557151
0.720288
1.28288
1.07254
1.14439
0
0.586849
0
0.511212
0
0.479438
0.366393
0.761001
1.09622
1.56985
2.0413
0.684847
0.448603
0.314001
0
0.971185
0.0842798
0.405033
0.239655
0.715243
0
1.02307
0.406607
0.391855
0.555748
0.402258
0.193218
0
0.362324
0
0
0
0
1.26112
0.807445
0.738726
0.852136
0.571512
0.625881
1.32679
0.62517
0
0
0
0
0.561109
1.03267
1.1008
0.426293
0.115164
0.511978
0
0.318614
0
0
0.42179
1.92839
0.506644
0.251269
0.142669
0.227943
0.415371
0
0.739149
0.56664
0
0.456033
0
0
0.373672
0.10692
1.23452
0
1.00719
0.310236
0
0.455546
0.66522
1.02959
0.678797
0.571331
0.458436
0
0.570491
0.78907
0.440167
0.300053
0
0.390351
0
0.166398
0
0
0.516789
0.736135
0.542696
0.468772
0.476823
0.482381
0.293236
0
0.643943
0
0.539415
0
0.355354
0.743298
0.646521
0.774014
0.776822
0.964133
1.64122
0.403267
0.568487
0.396447
1.11169
0.817821
1.16728
0.417134
0.871025
0.282023
0
0.630571
0
0.585826
0
0.786741
0
0.604547
0.378881
0.508938
0
0.281151
0.593675
0
0
0.406557
0.438666
0.413937
0
0.292852
0.345708
1.02774
0.349879
0
0
0.791987
0.48084
0.302736
0
0.540739
0.624797
1.50112
0.77239
0
0.467846
0.45475
0
0.673508
1.21758
0
0.375003
0.213632
0.794087
0.478933
0.771861
0
0.730452
0
0.768727
0.549052
0
0.454977
0
0.462595
0
0
0
0
1.0867
0.576801
0.61447
0.298762
0.507663
0.528714
1.47274
0.767018
0.506705
0.651333
0
2.30164
0.942861
0
0.252394
0.418589
0.810953
0
0.610569
0.399833
0.248121
0.435238
0
0.931457
1.25386
1.05793
0
0.504017
0
0.363719
0
0.88695
0
0.583846
0.278046
0
0
0
0.271525
0
0
0
0.707836
0
0.67622
1.40173
1.32914
1.27885
1.46069
0.794757
1.01413
0
0.272117
0.485879
0
0
0.795133
1.59422
0.858445
0.647962
0.836368
0.652687
0.831924
0.426913
1.37769
1.14729
1.60817
0.586099
0
1.52209
0.256051
0.727556
0.696474
0.368607
0.321192
0.686073
0.940035
0.327231
0.561666
0.76983
0.768957
0.296655
0
0.591605
0.933168
0
0.570071
0.570559
0.445453
0.256916
0.819036
1.63579
2.32029
1.09282
0.693857
0
1.11761
0.551572
0
0.523069
0.277942
0
0.560029
0
0.762633
0.428795
1.35478
0.579676
3.91787
0
0.215632
1.1971
0.907057
1.15319
0.586122
0.944141
0.461985
0
0.569277
0.244625
0.590254
0.729816
0
1.07123
0.470266
1.20993
0
0.982659
0
0.854446
1.27413
0.738855
0.60427
0.372545
0.158171
0.980885
0.760792
1.81093
0.772623
0.887799
0.517138
1.05152
0.785795
0.921875
0
0.572071
0.967619
0.621156
0.590294
0.842953
0
0
0.520854
0.498081
0
0.400639
0.606113
0.707041
0
0.89882
1.1755
0.506597
0.60016
1.18766
0.502097
0
0
0.625013
0.41409
0.965246
0
1.19725
0.810741
1.3431
0.457273
1.06804
0.452615
0.651657
0.803666
0.844675
0.149995
0.632578
0
0.582835
0
0.1774
0.638728
0
0
0.732104
0.91985
0.978001
1.1594
1.35342
0
0.45734
0.0333886
2.51486
0.610651
0.364398
0.854223
0.221712
0.5838
0.907375
0
0.789643
0.699591
0
0
0.445523
0
0.199964
0.863383
0.687969
0.444217
0
0.710356
0.658783
0.392835
0.92549
1.56255
0.744188
0.497257
0.769685
2.25151
2.09393
0.827597
1.03515
0
0
0.483821
1.20258
0.510871
1.24389
0.238416
0.373505
2.26776
0.786666
0.729435
0.404238
0
0
0.580763
0.515668
0.932169
1.09071
0.702343
0
0.402093
0
0.61318
1.24645
0
0.894268
0
0.49166
0
2.15866
1.03501
0.54819
0.582727
0
0.327591
0
0
1.15176
0.314551
0.884405
0.742692
0.781237
0.759012
0.560096
0
0.555569
0.768029
0.625439
0
0.390408
0.75716
0
0.429915
0.524564
0.10829
0.602678
0.570796
0.996554
0.106977
0
1.11848
0
0.503484
0.572145
0.44573
0.212848
0.83774
0
0.550581
0.318565
0.520942
0
0.431021
0
0
0.334263
0
0.724416
0
1.01446
0
0.638411
0
0
0.527549
0.701649
0.528802
0.456825
0
0
0
0.871231
0.250474
0
0.57024
0.492664
1.30922
1.64913
0
0.658499
0.281729
0.34547
0.189666
0.647698
0.535227
0.279747
0
0
0.667606
1.36847
1.18253
0.863635
0.552963
0.638422
0
0.436403
0.80322
0
0.760098
0.125082
0.674933
2.11132
0.373869
0.86996
1.11377
1.78564
0.846894
0.669669
0.573171
1.39036
0
0
0.739354
0.774665
0.467309
0.716212
0.921557
0.858353
0.61529
0
0.984562
1.05323
0.585699
0
0.785684
1.15926
0.490194
0.427788
0
1.1955
0
0
0.982377
0
0.498129
1.14959
0.675256
0.382824
0.651056
0.513728
0
0
1.26403
2.30133
2.06788
0
0
0.784441
0.641312
0.592959
1.40648
0.717981
0.704992
0.600707
0
0.596346
0
0
0.616012
1.26669
0.828805
1.45033
0.145081
0.709861
0.479935
0
1.62153
1.36636
2.25557
0.494347
0
1.0007
4.18566
0.696448
0.877802
0.823138
0.724017
0
0.423816
0
0.697076
0.225764
0.911843
1.11963
0.927775
0
1.26194
0.999594
0.623037
1.30903
0.725536
0.330827
0.811448
1.12437
0.903713
0.725285
0.73541
1.30391
0
0
0
0
0
0
0
0
0
0
0
0
0
0
0
0
0
0
0
0
0
0
0
0
0
0
0
0
0
0
0
0
0
0
0
0
0
0
0
0
0
0
0
0
0
0
0
0
0
0
0
0
0
0
0
0
0
0
0
0
0
0
0
0
0
0
0
0
0
0
1.71516
0.950427
1.61709
0
0
0
1.62307
0
0.621164
0
0
0.837387
0
0
0
0
1.04842
0
1.31221
0
0
0
0
0
0
0
0
0
0
0
0
0
0
0
0
0
0
0
0
0
0
0
0
0
0
0
0
0
0
0
1.70025
1.02579
0
0
0
0
0
0
0.688598
1.24844
0
0
1.2913
1.11242
0.543781
0
0.417734
0
0
0.84331
0.43677
0.353295
0
0.403986
0
0.47932
0
0.119367
0.648384
0.268598
0.372832
0.662955
1.00441
0
0.293796
0.535541
0.663821
0
0.776801
0
0.0548523
0
0
0.515875
0.449341
1.02175
1.46293
0
0
0
0
0.825014
0.533189
0.349219
0.909638
0
0
0
1.25245
0
1.53238
0
0.384885
0
0.333584
0
0.785221
0.873445
2.29012
0
0.531694
0
0.489119
1.60637
0
1.18116
1.01457
0.688881
1.13484
0.681514
0
0.390729
0.464743
1.23795
0.334902
0
0.949423
0.509578
0.834344
0.801852
0.204089
0
1.36619
0.588339
0.643339
0.444973
0.858613
1.91518
0.105018
0.70487
1.21498
0
0.622835
0
0.430728
1.09326
0.56009
0.83235
0.322311
0.296791
0.900606
0.45287
0.448653
0.326358
0.455316
0.346141
0.267002
0.170369
0.556123
2.10787
3.05894
0
1.22519
0.39517
0.557883
0
0.486957
0
0.479615
0.409306
0.425742
0
1.05608
0.58436
1.39591
1.03412
0.380757
0.309917
0.455616
0
0
0.764132
0.507945
0.547641
0.286052
0.560694
0
0
0.448326
1.02542
0.367374
0
0.595828
0
0.635754
0
0.693625
0
0
0.440916
0
0.729221
0.487609
0
0.173251
0.5577
1.07574
0.334799
0.0890597
0.75064
1.00977
0.726509
0
0.322576
0
0.540688
0.48496
0.367212
0.638853
0.40566
0.773135
0.525225
0.239564
0
0
0.423297
0.406882
0.549169
0.70377
0
0.709401
1.28913
1.49085
0
0.431008
0
0.419409
0
0.372472
0.256696
1.15498
0.549078
0.252789
0.475901
0.639537
0.586668
0
0.771296
0.773393
0
0.176085
0.755846
0.583768
0.559166
0.723011
0.315302
0
0.285402
0.816923
0
1.83748
0.604766
1.47592
1.46705
1.47289
0.730334
0.0383765
0.477144
0.659272
0.332752
1.05571
0.651423
0.508914
0.611342
0.393425
0.392991
0.159537
0
0.347448
0.522594
0.59458
0.626176
0.643689
0.479301
0.350706
0.376862
0
0
0.367811
0.505269
0.628235
0.993989
0
0.370387
0
0.500351
0.592254
1.68361
0
0
0
0
0.433921
0.512098
1.05977
0.701182
1.01635
1.37864
0.814593
0.735369
0.627138
0.309429
0.69488
0
0.441598
0
0.759012
0.53419
0.54256
0.484226
0.839263
0
0.430909
0.163347
0.143347
0
0
0.450691
0.575747
0.556166
0.547126
0
0.335907
0
0.522002
0.661882
0.455241
0
0.304905
0.657895
0.16798
0.506828
0
0.393993
0
0
1.05653
0.286309
0.884806
0.445867
1.0614
0.512218
0.224096
1.22266
0
0.469727
0
0.355504
2.07108
0.834894
0.685763
0.97658
0.502566
0
0
0
0
0.275176
0.849271
0.251044
0.223063
0.411723
0
0.773617
0
0.579922
0.986176
0
0.497986
0
0.40925
0
0.56034
0.749089
0.538915
0.565545
0.428542
0
0.58728
0.723427
0.557873
0.262268
0.50041
0.361814
0
0.777998
0.799287
1.00315
0
0.628049
0.143533
0.436752
0
0.311382
0.502913
0.225837
0.359024
0
0.445508
0.41423
0.394171
0.673388
0.289253
1.08946
0.447774
0.782816
0.773719
0
0.445884
0.378888
0.363178
0
0.553608
0.360467
0.493484
0
0.590484
0
0
0.864372
0.241444
0
0.567045
0
0.53104
0.632544
1.12506
0.666197
0.41356
0.514824
0.67008
0.633147
0
0.887949
0.654805
0.957628
0.310281
0.729264
0.221635
0.816561
0
0.52642
0.812037
0.776948
0.384381
0.443464
0.0955931
0
0.325336
0
1.1976
0
0.793911
0.57126
0.573601
0.330171
0.30609
0
0.419154
0
0.659791
0
0
0
0.562364
0.648778
1.29911
0
0.402251
0
0.618977
0
1.29547
0.678648
0.556622
1.63874
0.625093
0.690691
0.306312
0.679319
0.293131
0.39498
0
0.699478
0
0.62252
0.575908
0.507741
0.504611
0
0.630464
0.410937
0.430665
0.220401
0.244404
0
0.957285
0.393172
0.347973
0.445492
0.84637
0.560926
0.379024
0.748874
0
1.03324
0
0.653919
0
0.415608
0
0.614316
1.33802
1.01783
0
0
0.45536
0
0.804726
0
0
0.718994
0.465883
0
0
0.580078
0
0.661313
0.695071
0.602517
0.507126
0.379621
0
0.771663
0
0.804124
0
0.594845
0
0
0.618837
0.459116
0.876793
0.354051
0.849881
0
0.312925
0
0.895614
0.806902
0.397284
0.433938
0
0.441267
0
0
0.761329
0.669687
0
0.849885
0.760681
1.00254
0.435171
2.29721
1.19204
0.862034
0.947121
1.34048
0.757871
0.205765
0
0
0
0.696852
1.01164
0.76818
0
0.688976
0.665621
0.779309
0.673788
0.624399
0
0.740579
1.41298
0.642905
0
0
0.551696
0.876583
0
0
0.725198
1.21718
0.656975
0.61653
0
0.610867
0
0.885214
0.611945
0.763642
0.609749
0.378103
1.40955
0
0.105384
0.157015
0.32444
0
0.269449
0.385031
1.46971
0
0.450183
1.16275
0.568965
0.929961
0
0.536813
1.02491
0.514526
0.372228
0.533433
0
0.461285
1.16157
0.274189
0
0.685886
0
0
0.847709
0
0
0
0.403933
0.394813
0.482343
0.827083
0
0.705812
0
0.425063
0.432182
0.377651
0.983315
0.538936
1.0156
0.787618
0.458502
0
0.612382
0.753689
0.865446
1.21215
0.655845
0.833664
0.28284
1.28857
0.538878
0.629301
0
0.24182
0.479008
0.792926
0.459573
0.581009
0.876846
0.8168
0.4562
2.02683
0.5469
0
1.32044
0.391512
0.535364
1.4208
0.870938
0.773893
2.67157
2.17596
0.701351
1.15206
0.132123
0.577768
0.376648
1.29013
1.00791
0.835465
0.326618
0.776915
0
0.776211
0
0.875243
0.541905
0.390025
0.560905
0.451574
0
1.72488
0.966464
0.592469
0.886044
0
0
1.37484
0.960687
0
0
1.0299
0.642676
0.777666
0
0.432542
0.485143
0.82849
0.298508
0.479507
0.611578
0.726751
0.655372
0.547871
0.291487
0
0.501298
0.387086
0.711849
0.389482
0
1.54116
1.29198
0.625544
0.535018
0
0
0.611585
0.764419
0
0.593526
1.09246
0.388603
0.811334
1.52809
1.65632
0.885161
0
0.59265
0.375899
0.589316
0
0.88755
0
0
0.307742
0.612366
0.74042
0.534184
0
0.525099
0.415255
0
0.770506
0.431322
0
0
0.720213
0.974566
0
0.732629
1.03396
0.589506
0
1.25619
0.505436
0.794675
0
0
0.499492
0.625392
0
1.57061
0.987573
0.588066
0.169473
0.725426
0.461482
0.827598
0.678601
0.428671
0.514398
0
0.964538
0.318607
0.883802
0
0.48214
0.758183
0.171173
0.631812
0
0
0
1.26288
0.56111
0.713029
0
0.451594
0
0.618529
0.942104
1.13236
0.37377
0.756136
0.696469
1.12732
1.01494
1.09959
0
0.677571
0.584216
1.26092
0.557725
0.788563
0.445996
0.532889
0.357003
0.853354
0
0.894478
0
0
0.358384
0.445844
1.47457
0.753143
0.809206
0.525816
0
1.27415
1.7722
0.268804
0
1.05633
1.25127
1.00803
0.278437
1.25445
1.78309
0.912422
0.946255
0.894843
1.66998
1.49508
1.67009
0.320134
0.598227
0.387515
0
0.467701
0.395293
1.69486
0.701551
0.424387
0.188576
0.691243
0.663252
1.22177
1.26754
1.25538
1.37562
0
0
0
0
0.863199
0.824109
0.440236
1.12108
0.647206
0.803487
0
0.268686
0
1.67258
0.97048
0.720758
0.522281
0.488421
0.821103
0.410462
0.750093
0
0.438445
0.844503
0
0.734167
1.34181
0.686672
0
1.06511
1.02822
1.16452
0.397699
0.453667
1.06213
0.124479
0.574771
0
0.658083
0.232043
1.25959
0.972926
1.39902
0.522138
1.4104
0.808664
0.558896
1.0422
1.15195
0.883686
0.676817
0.603898
0.751934
0
1.38061
0.420646
0.718568
0.672484
1.05346
0.942033
0.458411
0.971033
0
0
0
0
0
0
0
0
0
0
0
0
0
0
0
0
0
0
0
0
0
0
0
0
0
0
0
0
0
0
0
0
0
0
0
0
0
0
0
0
0
0
0
0
0
0
0
0
0
0
0
0
0
0
0
0
0
0
0
0
0
0
0
0
0.21264
0.352218
0.414989
0.530174
0.476332
0.755419
0.802831
1.0679
0.315699
0.595203
0
0.395899
0.542651
0.543353
0.426975
1.12153
0.277542
0.649824
0
0.484843
0.387114
0
0.590423
0.711724
0.313571
0.398023
0.437664
0.410851
0.667166
1.2622
0.375607
0.959734
0.138192
0.714643
1.37041
0.76565
0.856127
0
0.272554
0.919154
1.46872
0.271018
0
0.802691
0.297926
0
1.03169
0.737974
0.287096
0.815713
0
0.389665
0.987336
0
0.167492
2.88579
1.01763
0.680936
1.41079
1.04835
0.519949
0.374598
2.39518
0.33266
0.426352
1.14672
0
0.762718
1.39584
1.24042
0
1.17724
1.13542
0.483415
0.22403
0.77654
0.506386
0
0.377446
0.689215
0.625684
0.60437
0
0.380306
1.26801
0.728001
0.861892
1.02209
0.890067
0.541906
0.906907
0.481163
0.65059
1.02297
0.915998
0.487119
0.631807
0.401191
0
0.347269
0.8098
0.722512
0.275953
0.418388
0.565303
1.04633
0.568827
0.463558
0.924706
0.890717
0
0.627069
0.64901
0.663052
0.859263
0.483393
0.429017
0
0.466989
0.382856
0.550623
0.78518
0.811984
0.977104
0.463432
0.491011
0.609242
0.540451
0
0.455252
0.516041
0.649358
0.944892
1.23509
0
0.747595
0.753695
0.485674
0.462524
1.53675
0.586847
0.643184
0.463159
0.289886
1.00456
0.724402
0
0.294865
2.0639
0.473547
0.682366
0.560177
1.62788
0.91113
0.81957
0
1.98014
0.621607
0.948266
0
0
0.973382
1.5452
0
0.937259
0
0.710539
0
0.462278
1.43703
0
0.762809
0
0
0.908259
0.756582
0.486588
0.388876
0.325007
0.924537
1.56196
0.520482
0.630184
0.830514
1.10531
0
2.95869
0.686781
1.44681
0
0.36462
0
0.716276
0.448726
0
0.428769
0
0.610941
0
0.768383
0.343134
0.683857
0.5623
0.427133
0.338562
0.665348
0.538591
0.865362
1.86847
0.905366
0.891293
0
0.745842
0
0.634973
0
0
0.448357
0.0899436
0.623215
0.736062
0.992162
0.288117
0.188688
0.608563
0.638363
0.940593
0.855941
0
1.03574
0.841631
0.602068
0
0.232484
0
0
0.792251
0.185634
0
0.618045
1.26162
0
0.827607
0.848408
0.14499
0.45481
0.985068
0
1.24479
0.968254
0.600727
0.258637
0
0.409004
0.492664
0.574875
0
0
0.468899
0
0.502645
0
0.52598
0.0919028
1.22096
0.612642
0.608813
0
0.390339
0.263489
0.472256
0
1.86679
0
0
0.424541
0.767907
0
0
0.823491
0.485694
1.11373
0.587294
0.184128
0.693172
0
0
0
0.0893
0.957825
0.401398
0
0.654209
0.863853
0.301
0.640927
0.486791
0
0
0
0.300204
0
0.664685
0.648973
0.51313
0.957373
1.10774
0.863327
0.617526
0.635486
0.833995
0.872738
0.812666
0
0.752826
0.98489
0.683217
0.506718
0.434134
0.755078
1.18405
1.0919
0.722861
0.145083
0
0
0
0
0
0.494834
0.476721
2.03547
0.536835
0.558262
0.520482
0.649317
0
0.698419
0
0.426498
0.329155
0.936828
0.623513
1.05809
0.733881
0.51096
0
1.02533
0
0.985721
0
0
0.38878
0
0.4287
0.950031
0
0
0
0.616075
0
0.708696
0.138372
0.362832
0
0.333493
0
0.284683
0.462139
1.03807
0.421356
0.534682
0
0.780195
0.962573
0
0.639563
0.805703
1.49997
0.575889
0.656578
0.90589
0.507337
1.17631
0
0.405666
0.753876
0.691227
0.943733
0
0.582645
0.383419
0.588905
1.03482
0.856966
0.369633
0.44408
0.646371
0
0.204501
0.431711
0
0
0.248043
0
0.290502
0.653848
0
0
1.54592
0.924649
0.534535
0
0.567172
0.773082
0.680007
0
0.714714
0.729605
0.652651
0.481915
0.326279
0.276755
0.215662
0.211159
0.161741
0
1.8368
0.252729
0
0.475933
0.311223
0.412641
0.469281
0
0
0.968748
0.598916
1.35074
1.21326
0.530312
0.604724
0.867922
0.875612
1.07296
0.50644
1.19478
0.539909
0.511558
0
0.743331
0
0.712302
0.622918
0.454823
0
0.474399
0
0
0.523398
0.750409
0.444026
0.632415
1.07935
0.305124
0.432112
0.530506
0.642029
0
0.715955
0.883007
0.56951
0.480602
0.328336
0.59505
0.829805
0.641958
0.521046
0.709371
0
0.279585
0
0
0
0.314966
0.700683
1.31846
1.65928
0.947644
0.718702
0.418223
0
1.54753
0.688127
0.788359
0.334585
0.828762
0.379927
0.932976
0
0.394334
0
0.825626
0.997961
0.320442
0.490605
0.727617
0
0.426853
0.475816
1.13845
0.852033
0.991998
0.836124
0.349905
0.224665
0.813184
0
0.379219
0.833155
0.32007
0.448382
0.505333
0.908759
1.67469
0
0.832495
0.548532
1.68695
0.679505
0.425484
0.905863
0.863056
0.50501
0.841628
0.262411
0
0.473343
0.808586
0.366176
0.288772
0.458952
0.897768
0.354357
0.829066
1.21081
0.859371
0.623938
0
0.748958
0
0.355939
0
0.335518
0.16928
0.303094
0
0.690152
0
0.668629
0
0.876771
0.157472
0.714826
0
0
0
0.529717
0.761008
0
1.22218
1.53097
0.180673
0.476967
1.20827
0.582227
0
0.644247
1.10471
1.22374
0.496873
0.561765
0.357909
0
0.436133
0.701691
0.666707
0.845789
0.609684
0.939196
0.868481
1.49931
0.690551
1.43833
0
0.605255
0.514409
0.582928
0.318233
0.275903
0.468998
0.466687
0.80006
0.830858
0.684055
0.624822
0
0.347715
0.306338
0.703211
0.515976
0.872294
2.98194
0.415875
0
0
0.480303
0.486203
0.310436
0.578718
0.600366
0.599571
0.433804
0
0.759013
0.670402
0.680703
0
0.906599
0.510293
0.279291
0
0.445407
0
0
0.545408
0
0.34648
0.250245
0.612913
0.51535
0.836161
0
0
0.752068
1.00753
2.62557
1.07396
0
0.542196
0.484833
0.150336
0
3.38463
1.45524
1.26834
0.253286
0.496181
0.796919
0.343944
0.388706
0.307258
0.600919
0.83954
0
0.561947
0.354657
0.544934
2.38094
0.315109
0.486327
0.237146
0.508704
0.083342
0.512713
0.944541
0.943081
0.6781
0.667885
0.497197
0.449667
0.504937
1.67955
0.847984
0.685831
1.41634
0.270487
0.494771
1.63501
0.869604
0
0
1.00247
0
0.930098
0.916021
0.750414
0
0.544836
0.271808
0.410448
0
0.473092
0
0
0.574224
0.815396
1.88514
0.586
0.436421
0.819407
0
0.542487
0.368463
0.29163
0.959472
0.558758
0.223069
0.767784
0.659824
0.478972
0
0
0.728336
0.466594
0.839707
0.593241
1.47249
0.695597
0.634164
0
0.768861
1.44719
0
0.783018
0.549237
0.887754
1.09827
0.259698
0.79639
0.886823
0.104799
0.0945281
0
0.553434
2.23725
0.127572
0
0.677932
0.40451
0.712866
0.193441
0
0.796344
0
0.29861
0.739475
0.398192
0.838564
1.18702
0.426155
0.596321
0.308719
0.697287
0.718486
0.777269
0.427616
1.04715
0.775263
0.6539
0.645864
0.436154
0.880742
0
0.303275
0.47319
0.586065
2.54867
1.03615
0.671568
0.545591
0.358573
0
0.627128
0.410929
0.735189
0
0.24872
0.473464
0
0
2.33061
0.67514
0
0.553887
0.386011
0.694761
1.17242
0.951997
0
0.702069
0.294602
0.639573
0.684524
0.235283
1.12887
0.369525
1.22838
1.33757
0.690422
0.796433
0.53887
0.232503
0.323439
0.623059
0
0
0.332056
0.486571
0.566053
0
0.365805
0.794726
0.399027
0.500714
0.359332
0.534233
0
0.732868
0.858923
0.765299
0
0
0.578456
1.53001
0
0.60281
0.945301
1.44034
0.195226
0.501715
0.417004
0.837839
0
0.863361
0
0.759564
0.778627
0.906177
0.519957
0
0
0.498591
0
1.60251
1.05255
0.48981
0
0.388812
0
0.421496
0.907036
1.09468
0
0
0.398775
0
0.498566
0.553379
1.06147
0.474662
0.746351
0.697228
1.29825
0
0.934182
0.933083
1.52675
0.479831
0.918651
0
0.480477
0
1.78372
1.01147
0
0.780934
0.775042
0.931339
1.81013
0.280523
1.17292
0.770195
0.598713
0.922652
0.527635
0
0
0.430565
0
0.496717
0.743636
1.53882
0
0.542757
0
0.74964
0.950638
0
0.302227
0
0
0.976313
1.1571
1.13335
0
0.561749
0
0.475462
0
0.581134
1.25534
0.730821
1.66085
0.623739
0.87654
1.35927
1.86157
1.04619
0.55719
1.60706
0
0.965534
1.15111
0.497897
0
0.968168
0.634621
0.472902
0.905844
0.451965
0.814539
0.898023
1.18975
0.564412
0.929912
0
0.76346
1.28082
0.613034
1.13013
0.747746
0.508069
0.349651
1.24033
0.956706
0.99905
1.03166
0
0
0
0
0
0
0
0
0
0
0
0
0
0
0
0
0
0
0
0
0
0
0
0
0
0
0
0
0
0
0
0
0
0
0
0
0
0
0
0
0
0
0
0
0
0
0
0
0
0
0
0
0
0
0
0
0
0
0
0
0
0
0
0
0
0
0.393721
0.874288
0
0.431548
0.435473
0
0.436459
1.25932
0.314761
0.504094
0
0.525288
0.361483
0
0.428307
1.05746
0.301625
0.541388
0
0.703555
0.376536
0
0.364753
1.05685
0.246019
0.410615
1.64742
0.851176
0.45653
0.110285
0.403806
1.42124
0
0.440409
0
0.788649
0.463494
0
0.700796
0.744305
0.220125
1.3898
0
0.446292
1.37403
0
0.350528
0.914275
1.24718
0.562482
0
1.91857
0.254607
0
1.13071
1.12166
0.463323
0.71811
0
0.197913
0.788311
0
0.344607
0.964278
0.765797
0.667428
0.641804
0.749436
0
0.484462
0.50274
0.910725
0.67678
0.498286
0.627653
0.402684
0.605371
0.48525
0.751624
0.838868
0.544968
0.444578
0.827258
0.38586
0.607999
0.644892
1.37512
0.351928
0.408197
0.299943
0.435776
0.545994
0.526887
0.699435
0.45763
0.402721
0.0695775
0
0
0
0.664484
0
0
0.678433
0
0.63478
0
0.325736
0.833438
0.591306
0
0.467759
0.50128
0.43816
0
0.97768
0.607085
0.391053
0.403483
0.608567
0.62162
0.609876
0.289908
0.389826
0.317794
0
0.854629
0
0.610417
0.649957
0
0.512454
0
0.154007
0.353327
1.13265
0.697792
0.569783
0.490406
0