<?xml version="1.0"?>
<VTKFile type="RectilinearGrid">
<RectilinearGrid WholeExtent="0 32 0 32 0 32" Origin="0 0 0" Spacing="1 1 1">
<Piece Extent="0 32 0 32 0 32">
<PointData>
</PointData>
<Coordinates>
<DataArray type="Float32" format="ascii">
0 0.524874 1.04975 1.57462 2.0995 2.62437 3.14924 3.67412 4.19899 4.72386 5.24874 5.77361 6.29849 6.82336 7.34823 7.87311 8.39798 8.92285 9.44773 9.9726 10.4975 11.0224 11.5472 12.0721 12.597 13.1218 13.6467 14.1716 14.6965 15.2213 15.7462 16.2711 16.796 
</DataArray>
<DataArray type="Float32" format="ascii">
-5.03879 -3.62163 -2.20447 -0.787311 0.629849 2.04701 3.46417 4.88133 6.29849 7.71565 9.1328 10.55 11.9671 13.3843 14.8014 16.2186 17.6358 19.0529 20.4701 21.8872 23.3044 24.7216 26.1387 27.5559 28.973 30.3902 31.8074 33.2245 34.6417 36.0588 37.476 38.8931 40.3103 
</DataArray>
<DataArray type="Float32" format="ascii">
0 0.524874 1.04975 1.57462 2.0995 2.62437 3.14924 3.67412 4.19899 4.72386 5.24874 5.77361 6.29849 6.82336 7.34823 7.87311 8.39798 8.92285 9.44773 9.9726 10.4975 11.0224 11.5472 12.0721 12.597 13.1218 13.6467 14.1716 14.6965 15.2213 15.7462 16.2711 16.796 
</DataArray>
</Coordinates>
<CellData>
<DataArray type="Float32" Name="Scalar" format="ascii">
0
0
0
0
0
0
0
0
0
0
0
0
0
0
0
0
0
0
0
0
0
0
0
0
0
0
0
0
0
0
0
0
0
0
0
0
0
0
0
0
0
0
0
0
0
0
0
0
0
0
0
0
0
0
0
0
0
0
0
0
0
0
0
0
0.232872
0.164433
0
0.196515
0.435301
0
0.377603
0.680378
0.0703281
0.283719
0
0.0322892
0.48891
0
0.22494
1.31736
0.195219
0.564455
0
0.263379
0.276173
0
0.378732
0.853573
0.0944325
0.338983
0
0.343682
0.38259
0.357997
0.27032
1.61419
0.0473511
1.20429
0
0.493205
1.52557
0
0.240512
0
0
0.138933
0
0.990214
0.412046
0
0.618377
1.03653
0.163932
2.27338
0
0.0973411
0.978879
0
0.313379
1.2854
0.98053
0.411266
0
0.718444
0.431466
0
0.752472
0.123723
1.22265
0
0.672019
1.13268
1.46093
0.625627
0.991323
0.642234
0.788345
0
1.00183
1.19567
1.92125
0
0.478245
0.74247
0.635355
0.950818
0
0
0.740322
1.02519
0.586546
0
1.60434
0.476214
0.0856244
0.966214
0
0
0.622849
0
0.904939
0
0.493964
0
0.64467
0
0.340354
1.08692
0.911783
0
0
1.31107
0.354617
0.416599
0.580899
0
0.405628
0.445426
0.493289
0.481631
0.611224
0.581912
0
1.39868
0
0.638196
0.369211
0.396357
0
0
1.08247
0
0
0.462509
1.38536
0
0
0.413034
0
0.689322
0.578278
0
0.978135
0.708051
0
0
0
0.199243
0.678127
0.424039
0.961882
0.946094
1.32337
0.648434
0.408413
0.188364
1.31848
0.912383
0.46409
0
0.5457
0
0.448981
0.50056
1.95173
0.673492
0.725177
0.424059
0
0.592088
0.59115
0.623197
0
0.929932
0
1.04277
0.616619
0
0.574233
0.589127
2.64787
1.13438
0.585988
0
0.808731
0.604788
0
0
0.759135
0
0.654291
1.56756
0.627683
0.564907
0.835973
0
0
1.01686
0
0.985106
1.77176
1.92738
0.753519
0.413425
0.380343
0.540448
0
1.08717
0
0.61011
0.778187
0.902621
0
0
0.752865
0.611225
0.455959
0
0.448618
0.680404
0.796011
0.384805
0.631604
0.442713
0
0.82891
0.485338
0.706557
0.695767
1.03091
0
0.791957
1.33169
0.912558
0
0.813617
0.660664
0.652279
0.571519
0.797721
0.245122
0.620234
0.183162
1.9299
2.00862
0.480808
0.441739
1.09125
0
0
0.765369
0.444189
0.405166
0.940674
0.835695
0.913822
0
1.13061
0.880385
0
0.519058
0.379025
0.568453
0.372848
0.4657
0.845657
1.13533
0.67419
0.743315
0
0.434182
0
0.37802
0
0.797224
0.821257
0.755193
0.157593
0.363754
0.560751
0.702818
0
0.504997
0.974851
0
0.332713
0
0.551371
0.534424
0.32007
0
0.499338
1.03751
0.264331
1.00773
0
0
0.55448
0.798825
1.40324
1.2321
0
0
0
0.193338
0.467767
1.45278
0.464309
0
0.703767
0
1.03005
0
0
0
0
0.316714
0
1.0182
0.583571
0.280529
0
0.288167
0.866266
0
0.805718
0.68264
0.7793
1.7215
0.712744
1.95742
0
0.687688
0.639661
0
0.850109
0.249226
1.0127
0.846889
0.520671
0.30156
0
0.731714
0.442579
0
0.426891
0.791387
0
0.808987
0
1.14624
0
0.598153
0.625486
0
0.864848
1.0426
0.753236
0.869809
0
0.346794
0
0
1.14949
0.31924
0.7686
0.923462
0.607781
0.483961
1.21929
0
0.304314
0.585277
0.399653
0.43574
0
0.465144
0
0.577881
0.692168
0.42097
0.827571
0.177876
0.707018
0.379063
0.763048
0
1.01718
0
0
0.927347
0
0.757787
0.701773
1.42967
1.21213
0.181739
0.856544
0.257728
0.867209
0.483296
0
0.523276
0.383715
0.514757
0
0.541582
0
0.513056
0.808065
0.784231
0.469367
0.577465
0.482366
0.47904
0
1.14799
0.253167
0.402473
0.48005
0.939898
0.462311
0.718925
0
0.84661
1.00444
0
0.339733
0.522677
0.320154
0.935409
0.820218
0
1.05578
0.50252
1.16921
1.98004
0.502068
0.300977
0.617959
0
0.452037
0.453089
0.755002
0.732937
0.692243
0
0.278788
0.556767
0.739684
0.514061
0.263507
1.01451
1.02104
0.659039
0.51309
0.771911
0.495931
0.16597
0
0
0
0.434796
0
0.780882
0.538667
1.30405
1.34742
1.33318
0.238823
0.475079
0
0
0
0.552552
0
0.540415
0.618098
0.614238
0.90686
1.68287
0.636011
0
0.559734
0.822155
1.05528
0.609506
0
0.401154
0
0.314481
0.197634
0.784918
0.654725
0.804889
0.568305
0.87489
0.228333
0
0.340867
0.555582
0.293586
0.561163
0
0.849881
0.627847
1.05381
0.909062
0.73534
0.720691
0.634815
0.447841
0.632438
0.591282
0.540371
1.48727
0.406961
0.813999
0.541082
0.350425
0
0.699716
0.833147
0
0.261268
0.744741
0.670668
0.468554
1.25352
0
0.482676
0.674306
0.39023
0
1.31017
0.33477
0
0.293236
0.755287
0
0.870317
0.567229
0.582447
1.06398
0.399535
0.954608
1.07572
0.27679
0.943894
0.646459
0
0.474754
0.875669
0
0.787446
0.34236
0.531193
0.578314
0.468691
0.768417
0.320985
0.868772
0.706471
0
0.849391
0.43563
1.00385
1.08636
0
0.676032
0.464723
0.766345
0.894111
0.457195
0
0
0
0.818468
0.607037
1.07797
0.861764
0.339896
0.809293
0.51796
0.731487
0.538078
0.520985
0.79788
0.850972
0.542485
0.750256
0
0.771318
2.19971
0.422003
0.413275
0.673706
0
0
0.719291
0.419871
0.697332
0.69928
0.535206
0
0
1.68579
0.546266
0.325655
0.414439
0.390433
0.987527
0.34981
0
1.1765
0.948255
0.760529
1.05506
0.635576
0.513571
0.88041
0.575157
0.392373
0.541906
1.24515
0
0.953328
0
0
0
0.557205
0
0.517524
0
0
0
0
0.244617
0.741869
0.809315
0
0
0
0.351207
0
0
0.905966
0
0.675392
0.915935
0.874718
0
0.373859
0
0.361836
0.746128
1.32383
0.416832
0
0.323981
1.30314
0.685638
0.369528
0.564028
0
0
0.388327
0.329264
0.534981
1.02252
1.06927
1.20403
0.31745
0
0.322444
0
0.741968
3.62416
0.582505
0.385351
0.784002
0.417233
0.746409
0.507179
0.497789
0.335117
1.37848
0.67427
0
0.627426
0
0
0.876739
1.08328
0
0.335739
0.222282
1.13327
1.04038
1.24472
0.559212
0.204273
0.889216
0.626072
0.687375
0.608369
0.633338
2.68965
0.838672
0.845383
0
0.244895
0.53571
1.5504
0
0
0.465076
0.542948
0
0
0
0.421227
0.444487
0.504108
0.549038
0.428101
0.741844
1.07214
0
0.421916
0
0.353484
0
0.656404
1.7541
0.789834
0
0.611465
0.577442
0.594795
0.400915
1.57442
0
0.557375
0
1.55695
0.606525
0.478138
0
0.735842
0
0.733119
0.576347
0.92561
0.838588
0.757297
0.578197
0.723326
0.738301
1.08231
0.624244
0.428195
0.761666
0
0.404886
0.485527
0.202853
0.607422
0
0.419547
1.04848
0.769342
0
0.548753
0
0.4883
0.339135
0.557045
0
1.02589
0.731941
0.408224
0.485473
0.675823
0
0.869621
0.720325
0
0
0.412554
1.41992
0.297718
0.404221
0.732903
0.502539
0
0.514642
0
0.337542
0.962338
1.01804
1.00188
1.39352
0.478158
0.252335
0.609738
0
0.838291
0
0.891027
1.75641
2.07638
0
0.782845
0.488758
0.627986
0.515129
0.400897
1.54084
0.588843
0.643714
0.989536
1.59114
0.647339
0.660064
0.574806
0.69964
0.69751
0.547148
0.67308
0
0.859632
0.362071
1.02678
0.183375
0
0.464078
1.52646
0.819786
0
1.42542
0.827739
0.645478
0.53804
0.730668
0.469031
0.144742
1.01254
0.731254
0.989148
0.92549
0.415154
0.386644
0.487645
0
0.472457
0
0.426956
0.359156
0
1.18437
0.392622
1.70547
0.966918
0.765589
1.61092
0
0
0.427545
0.7664
1.15163
0.454301
0
0.774845
0
0
0.627719
0
0.614292
0.592442
0.879677
0
1.68392
0
0
0.231183
0
0.783049
0
1.01803
1.24456
0.736946
0
0.652737
0.275931
0
0.489695
0.518838
0.693124
0.638919
0.517243
0.381989
0.355386
0.504787
0
0.321885
0.394641
0.78582
0.411005
0
0.739312
0
0.776229
0
0.535442
0.798617
0
0.602376
0
0.501296
0.916725
0.478471
0.331099
0.716623
0.632839
0.505349
0
0
0.377967
0
0.576799
0
0.398271
0.397304
0
0.529625
0
0.658264
0.74162
0.970286
0
0.668482
0.47181
0.882858
0.831108
0.777822
0.934864
0.570953
0.730144
0.665333
0
0.456081
1.76398
0.612553
0.984825
1.77371
0.875016
0
0.485607
0.623821
0
0
0.199173
0.402841
0
0
0
0
0
0
0
0
0
0
0
0
0
0
0
0
0
0
0
0
0
0
0
0
0
0
0
0
0
0
0
0
0
0
0
0
0
0
0
0
0
0
0
0
0
0
0
0
0
0
0
0
0
0
0
0
0
0
0
0
0
0
0
0
0.231908
0.469137
0
0.484173
0.438264
0
0.496256
0.77927
0.341438
0.56951
0
0.428227
0.75712
0
0.540756
0.900753
0.346332
0.617467
1.47824
0.553136
0.495188
0
0.48817
1.05924
0.265709
0.456361
0.952454
0.779615
0.391018
0
0.614843
1.42647
0.826067
0.331622
0
0.780562
0.646966
1.52533
0.83168
0.501349
0.20447
0.886368
0
0.125906
1.27538
0
0.397438
0.836347
0.695929
0.434063
1.26662
0.600618
0.470206
0
0
0.241886
0.105343
1.16475
1.66302
0.872744
0
0
0.144978
0.767732
1.29604
0.279337
0
0.533734
0.668597
0.645444
1.29776
1.13442
0
0.463091
0
0.550032
1.10581
0.550586
0
0.601202
0.72599
1.26532
1.27559
0.906084
0.795698
0
0.690172
1.28262
0.996816
0.634157
0
0.549144
0.439157
1.2389
0.566405
1.20669
0
0.971079
1.41885
0
0.0696674
0
0.882769
0
0.489757
0.43746
0.576979
0.32103
1.19735
0.460111
0.534636
0.296749
0.494047
0.326331
1.56847
0.484618
0.386887
1.02234
0.512174
0.582618
0.924162
0.4811
0.543453
0.234301
0.310017
0.207602
0.908702
0.887431
0.554334
0.373607
0.574656
0.545752
0.508247
1.24766
0.208606
0.686379
0
1.45373
0.580262
0
0.601955
0.42455
0.523447
0
0.682684
0.544963
0
0.457614
1.09007
0.529222
0.687619
0
1.27985
0.67816
0
0
0
0
0.365116
0
0.672355
0.623294
0
0.814012
0.615279
1.08946
0.345089
0.544223
0
1.37655
1.03781
0
1.04202
0.432957
1.46602
0.834196
0.791941
0
0.51097
1.03556
0.813162
0
0.469837
0.858007
0.822568
0.421137
0.860929
0.647383
0.595691
0
0.485315
0.753007
3.354
0.352676
0
0.749004
0.663804
0
0.844546
0.714852
0.448834
0.764427
0.638077
0
0.954088
0.673635
1.37837
0.933385
0.734954
0.300013
1.27657
1.32137
0.537635
0
0.8989
0
0.846289
1.15122
0.172573
0
1.27575
0
0
0.64513
1.74092
0.610195
0
1.04772
0
0
0.830539
1.19338
0
0
1.35964
1.08802
1.13245
0.229517
1.2975
3.23323
0.348674
0.535936
0.786682
0.396081
0.344008
0.711448
0.588411
0.940321
0.980291
0.667475
0
0.591227
0.715388
0.440579
0.328228
0.618235
0
0.657128
0.331758
0.495218
0
0.632333
0
0
0.436752
0
0.525019
0.159269
0.632065
0.960402
0.680711
0
0.497311
0
0
0.481501
0.563112
0
0
1.41019
0.410628
0.438494
1.11387
0.537566
0.699331
0.461815
0
0.491283
0.418593
0
0.8032
0.607031
0.695657
0
0.73004
0.679104
0.377383
0.478955
0.773138
1.31769
0.863936
0.770644
0
0.511969
0
1.16071
1.18057
1.11226
0
0.409339
0.266468
0.837933
0.508445
0.520127
0.30336
0.966317
0.548435
0.623719
0.854983
0
0.671342
0.716273
1.17182
1.04419
0.956562
0.604255
0.531842
0
0
0.643745
0
0.676401
0.261177
0.60687
1.19277
0.825249
0.451408
1.33453
0.168902
0.245472
0
0.35586
0
1.0627
0.847314
0.70698
0.383663
0.758891
0
0.565878
0.363856
0.685
0.493435
0
0.523342
1.00295
0
0.382829
0
0.49684
0
0.937299
0.987141
0.720479
2.11766
1.00693
0.828415
0.57118
0.395525
0.346284
0.0732554
0
0
0.553707
0.583264
0
0.758294
0.279203
0.718861
0.488928
0
0.416333
0.627374
0.684331
0
0.780748
0.479769
0.569826
0.573148
0
0
0.437046
0.497357
1.68828
0.755673
0.26212
0
0
0
0
0.473156
0.478264
0.551964
0.318633
0
0.212236
0
0.758415
0.476362
0.743381
0.334392
1.01333
0.51434
0
0
0.559354
0.40814
0.827683
0.82383
1.46448
0.882551
0.982668
0.496052
0.258206
0.912995
0.412642
0.836199
0.723053
0
0.872575
0
0.508412
0.912556
0.855828
0.195057
0.412147
0.403316
0.677393
0
0.350244
0.747211
0.477709
0.762092
0.79035
0
0.429427
0.625148
0
0.555032
0.319688
0.842455
1.23406
0
0.895942
0
0.551276
0
0.661681
0
1.66158
0
0.923338
0
0.748864
1.03005
0.33736
0
0
0.39127
0.714701
1.07691
0.612053
0.653715
1.05046
0.475812
0.502818
0.825606
0
0.662904
0
0
0
0
0
0.402993
0.155173
0.384439
0
0.481006
0.138246
0.616105
0.506971
0
0
0.595311
0.591103
1.20074
0.946633
0.835759
0.628101
0.525522
0
0.617028
0.726983
0.718583
0.854314
0.556077
0.545808
1.08646
1.21369
0.399409
0.631986
0
0.568524
0.270938
0.302671
0.2188
0.844961
0.668764
1.30311
0.696012
2.06769
0.292773
0.638138
0
0
0.615269
0
0.416585
0.610436
0.959473
0.350268
0.472388
0.743398
0.582872
0.54644
0.679594
0.976617
0.568764
0.27907
0
0.79837
0.669844
0
0.765033
0
0.553405
0.606378
0.196976
0.462541
0.407775
0
1.71486
0
0
0.601728
0
0
0.800047
0.799133
0
0
0
0
0.509376
0.491296
0.401411
0.724205
0
0.391118
0
0.450163
0
0.461534
0.746273
0
0.725767
0
0
0.678833
0.707788
0.409355
0.748411
0
0.402976
0
0
0.681172
0.540697
1.09975
0.785723
0.625527
0.791244
0.282707
0.370881
0.960377
0.802294
0.889686
0
0.126442
0.773116
0.709991
0
0.70286
0
0
0.807835
0
0.693578
0.512464
0.772992
1.36379
0.678483
0.640884
0.601874
0.329212
0
0
1.73136
0.759188
0.364597
0.555856
0.903367
1.49155
0.85681
0.759897
0.578726
0.948838
0.298163
0
0
0.544258
0
1.05251
0.878549
0.579026
0.545566
0.746254
0.159794
0.682332
0.801871
2.48381
0.912472
0.805338
1.01895
0
0.265175
0.381163
0.658599
0.449446
0.762209
0
0
0.606533
3.55134
0
0.711148
0
0.423407
0
0.408492
0.919197
0.411403
0.564854
0.859778
0
1.12687
0.303062
0.465093
0.473018
0
0.297158
0.266154
1.27263
1.73674
0.181956
0
0.603336
0.751464
0.439124
0.628382
0.655422
0.467064
0.372469
0.564896
0.597531
0
0.542145
0
1.45252
0
0.615009
0.37981
0.0700999
0.680059
0.535178
0.597174
1.20221
1.39915
0.704995
0
0.22776
0.555743
0
1.24972
1.63537
0.774391
0.833325
0.292431
0.272777
1.44851
0.708443
1.2889
0.997336
0.827885
0.902537
0
0.541366
0.293821
0.72503
0
0.518032
0.69654
0.670825
0
0.205825
0
0.437545
0.47488
0
0.213857
0.142386
0.608179
0
0
1.46796
0.199466
0.739498
0.264792
0.870716
0
0.484508
0.541874
0.681509
1.21114
0
0.715256
0.648655
0.449243
1.05113
0
0.661739
0
0.495484
0
0.60043
1.07048
0.687986
0.391451
0.637377
0.525594
1.10541
0
0.31103
0.542741
0.631107
0.481529
0.439512
0
0.216934
0
0.472227
0
0
0
0
0.387911
0.603227
0
0.589757
0.979382
0
0
0.800409
0.381048
0.5562
0
0.97588
0.516988
0
0
0.432281
0
0.703871
0.603661
0.394956
0
1.35506
0
0.476152
0.354836
0.887627
0
0
0
0.474184
1.28538
0.819861
0.407307
0.480206
0.12528
0
0
1.12421
0.350143
0.607847
0
1.16529
0.412568
0
0.716948
0
0
0
0
0.616673
0.467416
0
0
0.696628
0.6566
0.824861
0.348581
0
0.660591
0
1.4358
0
0.444116
0
0.200997
0.326216
0
0.565788
0.700699
0.693901
0.5124
0
0
0.371922
0
0.519712
1.46135
0.984185
0.600325
0.516494
0.993184
1.09649
0.681097
0.834773
0.322176
1.21662
0.921249
0.789022
0.668637
0.989999
0.414158
0
0
0.200061
0.867929
0.598902
0.825038
0.461564
0.472121
0.696154
1.61971
1.0514
0.67905
0
0.476128
0
0.57813
0.341523
0
0.379683
0.637197
0.359149
1.00145
0.912149
0.19371
0.719478
0.123478
0.761646
0
0.498498
0
0.303788
0
0.403143
0
0.194203
0.69504
0.768748
0
0.25523
0.847365
0.590163
0.93576
0.448216
0.486674
0.320394
0.402677
0.359345
1.30103
0.961844
0.428824
0
0.865361
0
0.616755
0.405825
0.310942
0.368929
0
0.610741
0.421651
0.51798
0.222649
0.332477
0.634994
0
0.413732
0.152019
0.289471
0.841306
0.511101
1.10075
1.56036
0.459705
0.908312
0.778262
1.01788
0.419815
0
0.482915
0.447605
0.615629
0.973681
0.250873
0.444409
1.24093
1.67891
0.827714
0.643112
0.580596
0.327875
0.424318
0.459687
0.179086
0
0
0
0
0
0
0
0
0
0
0
0
0
0
0
0
0
0
0
0
0
0
0
0
0
0
0
0
0
0
0
0
0
0
0
0
0
0
0
0
0
0
0
0
0
0
0
0
0
0
0
0
0
0
0
0
0
0
0
0
0
0
0
0
0
0
0
1.59442
1.39389
0
0
0
0
0
0
0
0
0
0
0.802687
0.568841
0
0
1.97084
0.977942
0
0.909408
0
0
1.87381
0
0
0
0
0.470777
1.38403
0
0
0
0
0
0
0
0
0
0
0
0
0
0
0
0
0
0
0
0.490698
2.2971
0
0
0
0
0
0
0.317296
0
0
0
0
0
1.0486
0.719137
0.606453
0
1.17913
0
0.988355
0.811622
0
0
1.30036
0.705882
0
0.708767
0
0.721123
1.09173
1.05574
1.08636
1.34672
1.01357
0.664526
1.44695
0.526902
0.986029
0.734279
1.56153
0.753449
0.702051
0
0.448371
0.899268
0.434238
0.835524
1.05217
1.04802
0.75607
1.12372
0
0
0
0.667499
0.225924
0
0.362987
0
0.741513
0
0.358758
0.671397
0.63904
0.654978
1.4978
0.602431
0.447884
0.725215
0.630429
0.796223
0.350364
0
0
0.41898
0
0
0.389216
0.654573
0
0
0
0.46496
0.331482
0.629713
0.255171
0.891092
0
0
0
0.595308
0.486136
0.872472
0.394637
0.452437
0.474418
0.692763
1.4501
0
1.10337
0.546932
0
0.698157
0
0.813979
0.698466
0.513104
0.446088
0
0.546543
0
0.846406
0.397982
0.327173
0.386337
0
0.580294
0
0.645618
0
0.483152
0
0.447764
0
0.875598
1.33701
0
1.06906
1.07806
0.332654
0
1.05209
1.1754
0.58382
0.785708
1.31662
0
0.825609
1.25156
0
0.214035
0
0.72697
0.872001
0.653542
0
0
0.601057
0.625933
0.784882
0
0.550205
1.05921
0.966457
0.48412
0.552655
0
0.657207
0.666198
1.39805
0.548698
0
0.59588
0
0.470413
0
0.653875
1.2226
0.734667
0.512685
0.476401
0.678948
1.31348
0.87618
0
0.735361
1.15229
0.418647
1.02885
0.85974
1.47426
0.521038
0.692826
0.722773
0
0
0
0.517127
0
0
0
0.806588
0
0.77389
0
0.575933
0
0.531443
0.851208
0.638681
0.753339
0
0.750147
0.506155
1.20281
0.780576
0
0.286648
0
0.500519
0.231293
0.310776
0.76423
0.589084
0.91216
1.0799
0.917054
0.0566678
0.664449
0
0
0.336195
0
0.268186
0.437244
0.694036
0.442844
0
0.423654
1.09158
0.881325
0
0.336342
1.67844
0
0.967316
0
0
0.390261
1.09415
0.423089
0.721958
1.12307
0.665458
0
0
0.525726
0.278877
0.258292
0.455931
0.269032
0.367462
0.921731
0.689233
0.708472
0
0.593596
0
0
0.571443
0.484182
0
0
0
0.462267
0.311496
0.548407
0.600065
0
1.41067
0.615592
0.596494
0.640499
0.751008
0.0465044
0.730591
0.399327
0
0.628375
0.527649
0.479318
0
0.741295
0.691576
1.26646
0
0.504789
0.604849
0.605745
0.66425
0.517327
0.957781
0.65948
0
0.239311
0.693223
0.486665
0.460946
0
1.14383
0.686136
0.428674
0.830801
0.991351
0.378322
0.666556
0.373536
0
0.588823
0
2.60936
1.3976
0.619651
0.280778
0.224751
0.38137
0
0.95785
0.877561
0.512879
0.569594
0.649469
0
0
0.538083
0
0.933418
0.409334
0.532828
0.950518
0.724067
0.774546
0.757156
0.772016
0
0
0.37385
0.29328
0.574721
0
0.462923
0.623172
0
0.503074
0.63207
0
0.290637
0.492956
0.510018
0
0
0.616669
0
0.600955
0.487726
0.491054
0
0.918805
0.752922
0.523041
0
0.333222
0.567656
0.707212
0
1.07807
0
0
1.00281
1.02352
0.57671
0
0
0.791258
1.36249
0
0
0.823703
0
0.893128
0.702763
0.996423
0.424924
1.06828
0.902083
0.448654
0.595311
0
1.70383
1.68681
0.369212
0.313071
0.249729
0.436862
0
0.694446
1.16957
0.342905
0.8141
1.00454
0.703849
1.34412
0.490634
0
0
0.300635
0
0.425696
0
0.627666
0.63214
0.766681
0.442266
0.850119
1.49613
0.950819
3.01366
0
0
0.916169
0.378793
0.673475
0
0.815893
0.609053
0.326556
1.08251
1.85518
0.558142
0.357703
0.369236
0.482838
0
0.291713
0.511921
0.468553
0.678819
0.445088
2.06947
1.06091
0.579898
0.652836
0.400754
0.550279
0.759493
2.47732
0.778479
0.818557
0.794395
0.60088
0.526643
0.551819
0.688493
0.377127
0
0.959109
0.432361
0.409601
0
0.307708
0.638275
0.299616
0.227826
0.184559
0
0.433267
0
1.38809
0
1.46719
1.08164
0.55297
0
0.832073
0
0.526395
0.780989
0.648403
0
0.435072
0.408859
0.467358
0.292756
0
0.454906
0.600582
0.397385
0
0.526095
0.387554
0.12694
0.212789
0
0.407729
0.868628
0.622036
0.387589
1.70009
0
0.451752
0
0
0.456468
0
0.414024
0.846008
0
0.187869
0
0.288535
0.335525
0.467133
0.752212
0.525438
0.53393
0.378184
0.408691
0
0.467337
0
0
0.441838
0.653505
0.895435
0.324085
1.52651
0.605397
0.450673
0.53422
0.474372
0
0.745163
0.755613
1.71165
0.615965
1.57308
0
0.842909
0.953496
0.333971
0.883005
0
0.589496
0.611409
1.19476
0.814192
0
0.644608
0.562829
0
0.602868
0
0.568494
0
0.876908
0
0.519268
0.323879
0
0.395092
0
0.355369
0
0.422045
0
0.70156
0.409636
0.667716
1.16196
0
0
1.31084
1.09472
0
0
0.74239
0
0.287938
0.0971047
0
0
0
0.2099
0.452036
0
0.452351
0.666478
0.647879
0
0.789513
0.463037
0.528635
0
0.590298
0
0.738785
0
0.856792
0.604466
0.243221
0.747755
0
0.487374
1.03041
0.467863
1.15635
0.421466
0.413892
0.559701
0
0.417534
0.403016
0
0.554292
0.596872
0
0
0.354315
0.512606
0
0.421065
0.472758
0
0.75311
0.646088
0
0
1.19036
0
0
1.52535
0
0.995325
0
0.444787
0
0.578666
0.81299
0.719893
0.759834
0.343824
0
0.729682
0
0.532023
0.480077
0.497153
0.571085
0
0
0.426418
0
0.642295
0.799038
0.717836
0.439791
0.769882
0
0.451078
0
0
0
0.451458
0.384337
0.920531
0
0.453971
1.01081
0.119428
0.413341
0.335597
0.658459
1.98156
0.268284
0.249887
0
0.763694
1.2256
0.636151
0
0.612978
0.733313
0.767162
0.692664
0.972306
0.73021
0.336498
0.368013
0.576665
0.759625
0.908647
0
1.16166
0.772767
0.807193
0.576624
0.206759
0.961565
0
0.335612
0.617889
0.272439
0.542465
0.886389
0
0.419556
0.559415
0.403815
1.0014
0.437933
1.43511
0.711863
0.923219
1.0849
0.887017
0.567626
0.0867686
1.09621
0.336294
0.693665
0
1.03035
0
0.658858
0.86321
0.707866
0.587529
1.69388
1.64991
0.505577
0
0.243104
0.448002
0.554633
0.139503
0.574352
0
0
0.376508
0
0.571809
0.592514
1.41558
1.0547
0
0.632506
0.66818
0.0422231
0
0.827092
0.868804
0.583876
0.347491
0
0.691682
0
0.587793
0.480991
1.24359
0.925811
0.361046
0.759041
0
0.331618
0
0.59008
0
0.512058
0.527014
0
0.43413
0
0.211314
0
0.505161
1.62728
0.526634
0.677603
0
0.226811
1.34852
0.492674
2.60072
0.516283
0.223841
0
0.294563
0
0.281724
0
0.537806
0.358175
0.229188
0.368617
0
0.30861
0.413245
0.394804
0
0.523365
0
1.01043
0.493583
1.83363
0.553543
0.685842
1.94661
0.730934
1.04293
0.816972
0.2496
0
1.82126
0
0.275991
0.522971
0.567613
0.79135
0.907366
0.171865
0
0
0.763003
0.751376
0
0.535463
0.733724
0
0
0
0.537647
0
0.512992
0
0.78524
0
0.494563
1.16377
0.323084
0.461973
0.234562
0.731279
0
0.988646
0
0.419643
0.776463
0.497653
0.470323
0.686703
0.457646
0.93544
0
0.420027
0
0.122704
2.65593
0.577421
0
0.702313
1.08372
0
1.14979
0.98009
1.15923
0
0
0
0.443518
1.32229
0
0
0.399096
0.377743
0
0.375653
0.507962
0
1.13681
0.788378
1.5734
0.119908
0.626377
0.479914
1.09985
0.449654
0.633647
0
0.470964
1.821
1.42004
0.412081
0.376018
0
0.679071
0
0.879053
0.497142
0.366043
0
0
0.6779
0
0.452767
0
0.951428
0.57183
0
0
0
0
0
0
0
0
0
0
0
0
0
0
0
0
0
0
0
0
0
0
0
0
0
0
0
0
0
0
0
0
0
0
0
0
0
0
0
0
0
0
0
0
0
0
0
0
0
0
0
0
0
0
0
0
0
0
0
0
0
0
0
0
0
0.426814
0.507756
0
0.383615
0.457868
0
0.578709
1.73216
0.246008
0.536968
0
0.569331
0.452321
1.60862
0.398563
1.35204
0.508784
0.380989
1.71459
0.576001
0.532474
0
0.630934
0.644841
0.175474
0.729808
0
0.492052
0.602186
0.390779
0.546241
2.05973
0.279476
0.818956
0
0.269018
1.58498
0.760484
0.39879
0.970947
0
0.44441
0
1.13767
0.266666
0
0.637551
0.499989
0.171548
0.614422
0
0.310945
1.37296
0
0.605085
0.389767
0.920654
0.49073
0
1.01126
0.333004
0
0.422316
0.899475
0.6739
1.23123
0.261183
0.52115
0.712539
1.67324
0.707473
0.384478
0.826458
0.808364
0.704016
0
1.0045
1.88811
0.62479
0
1.03038
0
0.716573
0.686184
0.648243
0.814621
0.691971
1.03649
0.643747
0
0
0.648621
2.26303
1.00866
0.358113
0.35261
0
0
0.756111
0.834627
0.776167
0.56623
0.392511
0.7924
0
0.797806
2.81647
0.995526
0
0.67237
0.466796
0.511547
0.234216
0.497542
0
0
0
0.4827
0
1.01197
0
1.05142
0.66378
0.39985
1.29721
1.71252
0.825974
0
0.317385
0.346365
1.69573
0.72471
0.697041
0.34189
0.568821
0.677023
0
0.869456
0.928822
0.892534
0.622052
1.13951
0.842718
0.814362
0.670612
0.305634
1.16835
0.225278
0
0.271841
0.685107
0.953794
0
0
0
0
0
0
0
0.4813
0.401448
1.48649
0.190835
0.430252
0
0.52479
0
0
0.245964
0.567155
1.08241
0
0.856742
0
0.453435
0
0
0.606581
0
0.364622
0.519892
0.487237
0.597179
0.221777
0.290274
0.28096
0
0.646597
0
0
0
0.592717
1.72498
0.91589
0
0.457442
0.361557
1.45192
1.01584
0.674024
0.60136
1.02755
0.53631
0.462417
0.600736
0.446854
0.23071
0.882917
1.43365
1.16805
0.52726
0
0.696328
0
0.657077
0
0.410448
0
0.956189
0.514312
0.410128
0
0
0
0.760118
0.278531
0.843594
1.03722
0.52606
0
0.898312
1.11162
0
0
1.0504
0.169439
0.708451
0.425682
0
1.03415
0.544544
0.709101
0.197017
0.566721
0.732571
0.249619
0.360753
0.808816
1.19166
0
0.62488
0.742818
0.537405
0
1.01221
0
1.90001
0.581958
0.363617
0.621988
0.674075
0.905415
0
0.676736
0.475328
0.399202
0.636897
0
0.654763
0.572488
0.7884
0.434505
0.227305
0.147192
1.10263
0.883438
0.89087
0.908211
0.44102
0.708179
0.0858196
0.710738
0
0.471683
0.532357
0.836253
0.575725
0.493669
1.23545
1.46787
0
1.05655
0
2.59337
0.494242
0.2878
0.224427
0.515515
0.464615
0.465244
1.02388
0.435943
0.630242
0.56442
0.365534
0.425904
0.322523
0.595458
0.840571
0
0.688784
0
0.402226
0.59934
0.446504
0.529565
0.562049
0.593965
1.28743
0.914933
0.536451
0.786129
0
0.909337
0.975775
2.05903
0
0.796351
0
0.457999
1.30558
0
1.381
0.600095
1.83255
2.0164
0.875936
1.35702
0
0
0
1.17315
0
0.641953
0.647036
0.610881
0.30035
1.0033
0.564954
0
0.58279
0
0.691477
0.622708
0.851346
0
0.409226
0.293186
0.473747
0.723264
0.475765
1.26898
0.685585
0
0.60921
0.675191
0.74192
0.317052
0.705763
2.01351
0
0
0.540034
1.54086
0.466265
0.621754
0.541099
0.348763
0.393807
0.204445
0
0.796797
0.717549
0.417061
1.17465
0
0.407082
0.593712
0.525637
0
0.670654
1.24874
0.711327
0
0.786738
0.963049
0
0.533252
1.53026
0.412527
0.659254
1.04495
0.76731
1.44397
0.590583
1.25473
0
0.413485
0.284998
0.395461
0.345746
0.605356
0.744577
0
0.241568
0
0.987986
0.677121
0.743969
0.512604
0.549152
0
0.582284
0.47507
0.656097
0
0.501703
0.317937
0.458889
0.604633
1.002
0.838784
0.829658
1.26396
1.02485
0.788969
0.791257
0.611963
0
0.897407
0.809381
0.448188
0.771314
0
0.20546
0.688086
0
0.744556
0
0.380577
0.836875
0.0470174
0
0.377475
0.396424
0.211981
0.515096
0.315189
1.09445
0.368486
0.548061
0.415115
0.919807
0.306431
0.602852
0.576167
1.04742
0
0.598844
0.390564
1.27548
1.19955
0.900216
1.07664
0.779254
0.698313
1.11914
1.10028
0.655608
0
0
0
1.24966
0
0.571374
0.393316
0.478453
0.0900329
0.532035
0
0.390395
0
0
0
0.773816
0.497931
0
0
0.581642
0
0.440088
0
0.626748
0.801236
0.664063
0.182833
0.371487
0.585761
0
0
1.33897
0.482508
0.499365
1.03246
0.377112
0.516442
0
0.592408
0.697549
0.394079
0
0.815746
0.685281
0.425353
0.239291
1.47133
0
0
0
0.341466
0
0.30466
0
0.682872
0
0
0.63413
0
0
0.974807
0.591413
0
0.456183
0
0
0.61039
0.613739
0.516187
0.512178
0.591193
0.245293
0
0.495802
0.505124
0
0
0
0.655113
0.556181
0.578871
0
1.20855
0
0
0.591845
0.760881
0
0
0.905567
0
0
0.199536
0.718442
0
0.59979
0.734311
0.703123
1.08458
1.54022
1.0108
0
0.255577
0.27284
0.632059
0
1.1787
0.725449
0
0.528604
0.309817
0.569999
0.500092
0.866046
0.997653
0.579556
0.452889
0
0
0.799399
0
0.858496
0.41461
1.02381
0.401193
0.483699
0.68287
1.15969
0.75995
0.305497
0.158849
0.874054
0.606662
0.130414
0.558949
0
0
0.418523
0
0.593749
0
0.650968
1.00476
0.438793
0.565613
0.440499
0.626689
0
0.577487
1.21389
0.485822
0.427754
1.37656
0.584324
0
0.698852
0.234895
0.399984
0.669333
0.448436
0
1.12187
0.595455
1.36716
0.343828
0
0
0.831788
0.710142
1.22322
1.21586
0.420315
0.416245
0
0.651295
0.359321
0.447551
0
0
0.889182
0.283064
0
0.314315
0.236854
0.922075
0.632316
0.679246
0
0
0.627793
0
0
0.481862
0
1.10479
1.0899
0
2.25132
0.711173
0
0.793591
0.500841
0.824679
0.423308
0.645525
0.526725
0
0.820612
0.167581
0.751365
0
0.202749
0.526098
0.752886
0
0.528951
1.03434
0
0
0.163489
0
0.572354
0.219831
0.683892
0
0.91064
0.362777
0.372182
0
0.553241
0.368714
0
0.676682
0.37645
0.771786
0.235737
0.219978
0.596242
0.690365
0.428449
0.823551
0.653157
0.444221
0
0
0.620956
0.36442
0.787875
0.566106
0.238706
0
0.517744
0.482019
0.67963
0
0.854699
0.30081
0.528496
0.441019
0.439287
0
0.419789
0.225754
0.476284
0.436509
0.229146
1.14799
0.384273
0.368974
1.32251
0
0.370289
0
0.908807
0
0.656897
1.01416
0.553893
0.64535
0.449785
0
0.581815
0.185383
0.795865
0.463312
0.336336
0.250301
0.752017
1.09276
0.579466
0.845964
0.419784
0.682326
1.32754
0
0.832836
0.505653
0
0.505465
0.819141
0.507913
0.663123
0.967237
0.473265
0.858871
0.588119
0
0.404661
0.347115
0.591846
0.380684
0.47684
0
0.974157
0
0.479627
0.589037
0.857932
1.26707
0.577402
0
0.595386
0.525555
1.36551
0
0
0.406591
0.424837
0.440228
0.935546
0.652455
0
1.04488
0.983312
0.535655
0.244113
0.548896
0.486812
0
0.497527
0
0.945099
0
0.683542
0
0
0.424621
0.545984
0.889845
0.537325
0.195084
0.654908
0.475508
0.691481
0.792766
1.32726
0
0.851103
0.550104
0
0.335123
0
0
0
0.743885
0.571383
0.990928
0
0.572763
0
0.428975
0
0.325644
0.636997
1.35916
0
1.70224
0.816511
0.689259
0.846298
0.637079
0.435034
0.331986
0
0.597127
0.496724
1.30275
1.02555
0.951296
0
0
0.50726
0
0.544288
0.324274
0.333756
0
0.937449
0.691583
0.347304
0.346488
1.03972
0
0.5356
0
0.773168
0.57896
0.38739
0.491645
1.63357
0.723404
0.915116
0.701516
0.622219
0.542528
0.507531
0.753959
0.321042
0.0904497
0.450106
0
0
0.619917
0
0.651211
0
0
0.372903
0
0.762578
0.370902
1.59167
0.917772
0.206652
0.783364
0
1.16478
1.88222
1.03666
0.648661
1.06233
0.72861
0
0.598628
0
0
0
0.47043
0.39981
0.414353
0.253186
0.742155
1.02348
1.44914
0
0.423135
0.0752525
0.473489
0
0.779197
0.802072
0.595543
0.930741
0.770825
0.148573
0
0
0.379165
0.583896
0.747105
0.526645
0.402605
1.13181
0.854746
0
0.507235
0.419243
0.500769
1.43111
0.578822
0
0
0
0
0
0
0
0
0
0
0
0
0
0
0
0
0
0
0
0
0
0
0
0
0
0
0
0
0
0
0
0
0
0
0
0
0
0
0
0
0
0
0
0
0
0
0
0
0
0
0
0
0
0
0
0
0
0
0
0
0
0
0
0
0
0.603591
0.51273
0
0.617249
0.288408
0
0.339901
1.30846
0.483645
0.510497
0
0.303061
0.335766
0
0.393306
2.35499
0.246445
0.554999
0.941866
0.690729
0.568465
0.728116
0.462546
1.47545
0.750669
0.539381
0
0.463233
0.638976
0
0.423025
1.54148
0
0.784396
0
1.47025
0.482143
0.458482
1.15101
0.533538
0.173147
0.466922
0
0.446143
1.02323
0
0.409421
1.25728
2.76041
0.181128
0
1.61595
0.342578
0.711449
0.928167
0.339425
0.145748
0.884103
1.39248
0.9071
1.56903
0
0.282094
0
0.916678
0.620547
0.301731
0.459406
1.04142
0
0.331411
0.751578
0
0
0.669303
0
0.721245
0.252765
0.510029
0.127612
0.613915
1.05379
0.740786
1.24561
0.804322
0
0.859053
0.74124
0.455782
0.339943
1.04387
1.15444
0.863834
0.97645
0.38014
0.522745
0.712572
0
0.74308
0
0.44863
0
0.862233
0
0.823036
1.34324
0.71436
1.83217
0.56231
0.279024
1.20699
1.3955
0.454855
0
0.871502
0.734114
1.04786
0.669341
0.73045
0.592728
0.586223
0.814538
0.95575
0.766433
0.524858
1.49686
0.94447
1.12997
0
0
0.946872
0
0.293636
0.502674
0.720143
1.4408
0.911959
0.410224
0.759996
0.664959
0
0
0
0.485118
0.496174
0.86113
0.370013
0.376887
0
0.280746
1.05662
0.687523
0.411598
0.714579
0
0.80529
0
0.779302
0.681897
0.634243
0.253206
0.684641
0
0.680278
0.349921
0
0.882833
1.02258
1.1039
0.570348
1.24185
0.478644
0
0.631028
0
0.618397