<?xml version="1.0"?>
<VTKFile type="RectilinearGrid">
<RectilinearGrid WholeExtent="0 32 0 32 0 32" Origin="0 0 0" Spacing="1 1 1">
<Piece Extent="0 32 0 32 0 32">
<PointData>
</PointData>
<Coordinates>
<DataArray type="Float32" format="ascii">
0 0.524874 1.04975 1.57462 2.0995 2.62437 3.14924 3.67412 4.19899 4.72386 5.24874 5.77361 6.29849 6.82336 7.34823 7.87311 8.39798 8.92285 9.44773 9.9726 10.4975 11.0224 11.5472 12.0721 12.597 13.1218 13.6467 14.1716 14.6965 15.2213 15.7462 16.2711 16.796 
</DataArray>
<DataArray type="Float32" format="ascii">
-5.03879 -3.62163 -2.20447 -0.787311 0.629849 2.04701 3.46417 4.88133 6.29849 7.71565 9.1328 10.55 11.9671 13.3843 14.8014 16.2186 17.6358 19.0529 20.4701 21.8872 23.3044 24.7216 26.1387 27.5559 28.973 30.3902 31.8074 33.2245 34.6417 36.0588 37.476 38.8931 40.3103 
</DataArray>
<DataArray type="Float32" format="ascii">
0 0.524874 1.04975 1.57462 2.0995 2.62437 3.14924 3.67412 4.19899 4.72386 5.24874 5.77361 6.29849 6.82336 7.34823 7.87311 8.39798 8.92285 9.44773 9.9726 10.4975 11.0224 11.5472 12.0721 12.597 13.1218 13.6467 14.1716 14.6965 15.2213 15.7462 16.2711 16.796 
</DataArray>
</Coordinates>
<CellData>
<DataArray type="Float32" Name="Scalar" format="ascii">
0
0
0
0
0
0
0
0
0
0
0
0
0
0
0
0
0
0
0
0
0
0
0
0
0
0
0
0
0
0
0
0
0
0
0
0
0
0
0
0
0
0
0
0
0
0
0
0
0
0
0
0
0
0
0
0
0
0
0
0
0
0
0
0
0.233817
0.365228
0
0.231425
0.417452
0
0.169765
0.925745
0.221424
0.335062
0
0.261241
0.459388
1.28806
0.485974
1.38594
0.251153
0.385054
0
0.344187
0.386246
0
0.394907
1.00112
0.205678
0.473964
1.37947
0.416888
0.475429
1.36094
0.45335
0.812115
0.045831
0.875219
0
0.153692
1.63697
0
0.26653
0
1.46103
0.308717
0
0.441695
0.355542
0
0.499315
0.514449
0.104718
0
0
0.175638
0.688821
0
0.30484
0
0
0.494079
2.05761
1.78336
0.489666
0
1.47921
0.301634
0
0.821048
0
0.547572
0.542519
0.627527
0
1.32616
1.0214
0
0.409343
0.478786
0.450277
0
1.40383
0.697741
1.08136
0.799707
1.10512
0
0.4961
0
0
0.929026
0.513841
0
1.46242
0.562433
0
0.779475
0.986672
0
0.922616
0.862153
0.445824
0
1.08559
0.295346
0.888749
0
1.00269
1.91988
0.686235
0.462514
0.646056
0
0
0.687632
0.665234
0.573934
0.516789
0.89329
1.25649
0.398037
1.89095
0
0.184879
0.624946
1.09089
0.427156
0.819605
0
0.740313
0.253031
0.497701
0
0.404925
0
0.91376
0
0
0.408292
1.65411
0
0
0.729911
0.733703
1.351
0.745274
0.87576
0.576127
1.26475
0.77171
0.179449
1.9841
0.435023
0
0.0911756
0.216702
0.699873
0.311046
0.656628
0.509832
0.359759
0
0
0.56318
1.2063
0.534408
0
0.829255
0.645315
0.511677
0.397618
0.465871
0.603685
0.336142
1.37882
0.437343
0
1.04755
1.94074
1.28749
0.209281
0
0
0.78793
1.04704
0.771045
0
0.857864
1.30273
1.27084
0.595321
0.947617
1.14633
1.24662
0.658831
0.569413
1.1321
0.526087
0
0.874605
0.676582
0.81152
0.817107
0
0
0.472033
1.07425
0.920361
0
0.754639
2.78965
1.0464
0.664495
0.463199
0.768753
0
0.404612
0
0.801239
0
0.733648
0.365997
0.715175
1.4875
1.29346
1.08583
0.649182
0.329409
1.08995
0.455497
0.404558
0
0.442915
0
0.406782
0.972485
0.481631
1.38644
1.13103
0.238737
0
0.331025
0.423587
0
1.38224
0
0.505125
0
0.332074
1.24797
0.443343
0.495058
0.681878
0.839228
0.745954
0
0
0
1.12538
0
1.26474
0.732432
0
0.190088
0.529594
0.910212
0.797432
0.483329
1.61773
0.668846
0.670734
0
0
0
0.739781
0.743395
0
0.938528
0.808599
0.773921
0.811107
0.527572
0.896433
1.50553
1.6553
0.326922
0.39219
0.698124
0.622472
0.96797
1.54283
0
0.755507
0.439576
0
0
0.426187
0.517235
1.00951
0
0
0.486056
0
0.733614
0.599573
0.508355
0.909365
0
0.558866
0
0.914934
0
0.196396
0.373323
0
0
0
0.436106
0.552262
0
0
1.66004
0.992005
0.952958
0
0.586091
0.608475
0.608713
0.655301
1.61803
1.93273
0.888218
0.763862
0
0.424776
0.386941
0.995135
0.755875
0.977692
0
0
0.563572
0.523924
1.17108
0.784164
0.642032
0
0
3.15136
1.61293
0
0.687643
0
0
0
1.13363
0.536774
0.465042
0.821308
1.18086
0.69631
0.81551
1.14261
0.59355
0.629615
0
0.558421
1.11209
0.246605
0
0.431468
0.591107
0.5398
0.546674
0
0.494822
0
1.2149
0
0
0.228218
2.05494
0.91077
0.605376
0.411564
0
1.29253
0
0.381994
0.953368
0.921193
1.11386
0.422054
0.692833
0.969743
0.661889
0.641966
1.29684
0.685539
0.756163
0.809521
1.30142
0.588117
0.466662
0.245919
0.17453
0
0
0.651649
0
0.330978
1.85302
0.394116
0.631485
1.26572
0
0
0.310657
1.04398
0.545954
0
0.439791
0.470767
0.846931
0.867116
0
0.383236
0
0.988194
0.959563
0.274504
0
0.607626
0.840611
1.28139
0
0.462828
1.00739
0.811252
2.49202
1.33657
0.85532
1.50692
0.790779
0.567719
0
0.257244
0
0.244019
0.665959
0
0.711779
0.63749
0.748452
1.03993
0.313863
0.509421
0.714341
0
0.516179
0
0
0.77608
0.521234
0.626665
0.288108
1.91244
0.259283
0
0.496379
0
0
0
0.610919
0.638286
0.939968
2.20659
1.12014
0.613984
0.907848
1.04259
0
0.366533
0.578016
1.1894
0.460706
0
0
0
0.629129
0
0.470206
1.18687
0.875742
0.566456
0
0.333947
0
0.439636
0.358757
0
0
0.449068
0.976632
1.13559
0.446357
0
1.1979
0.57209
0.742209
0.741819
0.227841
1.08849
0
0.730522
0.301851
0
0.608948
0.342746
1.44176
1.90376
0
0.594465
0.512477
0.610019
0
0.347118
0.417524
0.4159
0.546692
0.557033
0.344419
0
0.644339
0.541109
0.351951
0.563738
0.379737
0.712984
1.46508
1.48965
0.566429
0.737049
0.447886
0.618218
0.453604
0.469935
0.723905
0.678869
0.993881
0.632058
0.489475
0.406277
0.373315
0.345944
0.613192
0.640937
0
0.816189
0.475845
0.713778
0
0
0.440926
1.21567
0.956242
1.08021
1.6176
1.64358
0.446907
0.788226
0.488584
0.404739
0
0
0.321852
0.48138
0.974795
0.392459
0.335921
1.68058
0.898627
1.16986
0
0
0.182576
0
0.411443
0
0.948712
0.374922
0.665757
0.527927
0
1.31861
0.583758
0.864992
0.476825
0
0.477997
0.225499
1.0707
0
0.950985
0.439233
0
0.764086
0.208401
0.625178
0.648394
0
0.338089
0.942478
0.445799
0.678133
0.333343
0
0.882466
1.31052
0.281045
0.58908
0.542347
1.04702
0.596643
0
0.970374
0
1.29979
0.675595
0.276914
0
0
0.80982
0.655183
0
0
1.56737
0.667313
0.60818
0
0.315615
0
0.454471
0.554531
1.30099
0.506733
0
0.935311
1.07974
0.627926
2.29461
1.04761
0
1.04809
0.50635
0
0.880086
0.734345
0.681468
1.47219
1.18331
0.431797
0.439103
0.420296
0.611513
1.20401
1.22054
0
0.791841
0.948406
1.06209
0.654518
0.467632
0.413632
0
0.833807
0.43447
0.746159
0.625753
0.453909
0.42951
0
0
0.915603
0
1.10655
0
0.351509
0.663289
0.812933
0.252302
0.613991
0.779178
0.572987
1.31386
0.353039
0.647639
0
0.261488
0
0.385411
0
0.728486
0.461893
0.619517
0.614314
0.680873
0.888314
0.459618
0.387513
0.567778
0.731355
0.280062
0.461674
0.504457
1.15649
1.13626
0.700073
0
0
0
0.614417
0.975215
0.880622
0.531146
0.639724
0.548492
0.434116
0.573436
0.712197
0.812596
0.573379
0.788172
2.34003
0.910542
1.83667
0.944246
0.546094
0.350289
0.51215
1.43313
1.0239
2.08014
0
0.31647
1.12721
0.323334
0.159438
0.81563
0.991051
0
0.454193
0
0.480332
1.07486
0.846114
0
0
0.448608
0.502807
0.695593
0.628716
0.786916
0.51731
0.725946
0.955569
0.85683
0
0
0.407209
0.338308
0
0.63071
0
0.519018
0
0.54832
0
0.985926
0
0
0.632004
1.13192
1.35794
0.579322
0.478163
1.03702
0
1.0876
0.560728
0.859275
0.308724
0
0
0
0.603964
1.01701
1.3205
0
0
1.28012
0
0.368283
0.994259
0.511326
0
0.875282
0
0.380108
0
0.896904
0
0.64032
0.837734
0.689205
1.02054
0.648115
1.4942
0.258511
0.505413
0.418984
0.623043
0
0.588712
0.704874
0
0.360177
0
0
0
0.477185
0.342675
0.912745
0.688783
0.140623
0.941987
0.673946
0.715742
0.742401
0.635504
0.604118
0.538604
0.467681
0.808125
0.859055
0
0
0.568458
0
1.1834
0.270062
0.74132
0.476469
0.197852
0.565973
0.508469
0.438073
0.642511
0
0
0.513977
0.170987
0
0.345193
0.616943
0
0
0.805189
0.495987
1.21363
0.929026
0
0.307954
0
0
0.301156
0
0.248248
0
1.13443
1.03557
0.656198
0
0
0
0
0.504931
0
0.906629
0.388173
0
0
0.446184
0.612571
0
0
0.508507
0.929776
0.190563
0.657334
0.473755
0.527225
0.509937
0
0.256633
0.182869
0.395837
0.756108
0
0
0
0.549312
0
0.914577
0.396967
0.782025
0.801888
0.534546
0.269352
0.556504
0.39513
0.225875
0
0.726161
0
0
0
0.356598
0
0.613195
0
0.224568
0.237474
0
0.556809
0
0.551763
0.517956
0.6077
0.579916
0.786662
0.613577
0.879569
0.692621
0.976554
1.06864
0.830478
0.670201
0.768551
0.511573
0.392398
0
0.218655
0
0.257051
0.530622
0
0
0.328478
0.63372
0
0
0.557797
0
0
0
0
0
0
0
0
0
0
0
0
0
0
0
0
0
0
0
0
0
0
0
0
0
0
0
0
0
0
0
0
0
0
0
0
0
0
0
0
0
0
0
0
0
0
0
0
0
0
0
0
0
0
0
0
0
0
0
0
0
0
0
0
0.276874
0.536455
0
0.3145
0.582873
2.65408
0.453678
0.93953
0.28103
0.528499
1.12046
0.650855
0.458319
0
0.564362
1.75412
0.475541
0.557143
0
0.565271
0.594815
1.02482
0.592604
1.12789
0.167432
0.489887
0
0.566012
0.46531
0.34219
0.571348
0.67756
0.601968
0.217594
0
0.542179
0.345663
0
1.09256
0.927622
0.327814
1.02078
0
0.137926
1.5754
0.855254
0.122764
1.22684
0.769423
0.244964
0
0.804509
0.347575
0
1.35093
0.509313
0.168849
0.727738
0
0.70043
1.38932
0
0.442026
0.778865
0.465864
0.389528
1.18485
0.955997
0
0.49984
0.980945
1.37217
0.606853
0.527137
0.925805
0.926468
0.53514
0.499369
0.743566
0.38603
0.59348
0.54076
0.751006
0
0.480159
0
0.587914
1.90761
0.919212
1.28682
0
0.998291
0.648071
0.613685
0.832494
0.645365
0
0.758253
0.822305
0.581824
0
0
0.579679
0
0.671754
0.411866
0
0.212901
0.3763
0.660045
0.77558
1.28988
1.44306
0
0
0.714941
0.496662
0.724814
0.523023
0.700406
0.510382
0.377891
0.899928
0.6577
0.689173
0.76357
1.06306
1.02397
0.876946
0
0
0.854777
0.894934
0.737169
1.16545
0.898203
0.519517
0.722785
0.4879
0
0.866982
1.0761
0
0
0.703114
0.687721
0.990021
0
0.540603
0
0.751224
0
0.678701
0.609071
0.907366
2.61803
0
0.371103
1.20643
0
0.47603
0.304311
0
1.38492
0
1.15557
1.06085
0.519653
0
0
0.91153
0.745465
1.07598
0.391621
0.786022
0
0.780053
0.283101
0.49911
0.346601
1.31832
0
0.529775
0
0.754855
0
0.924249
0.625227
0
0.862113
0.536509
1.15119
1.08267
0.853081
1.19083
0.703559
0
0
0.795072
0
0.368111
0
0.884597
0
0.535043
0.634613
1.33105
0
0.470409
0.447239
0.762234
1.10093
0
0.707495
0.297146
0
0.866784
0.559244
0.53548
0
0
0
0
0.512721
0.248031
0.755386
1.40884
0.790333
0.7434
0.145214
0.633983
0
0
0
0.718752
0
0.681877
0.156416
0
0.640502
0
0.683151
0.990493
1.41461
0.581454
0.471534
0.341164
0.897658
0
0.585444
0
0.856336
0.600086
0.705234
0.518611
0
1.66543
1.68875
0.938707
1.01445
0.434951
1.00961
0.249158
0
0.725216
0
1.01163
0.510918
0.966512
0.765878
0.621861
0
0.95443
0.492134
0.861166
0.39646
0.97836
0.445267
0.919743
0
0.555066
0
0.741205
0.50838
0.427946
0.282403
0.417723
0.975076
0.809942
1.00632
0.448401
0.922034
0
0
0
0.618124
0
0.444194
0
0.31776
0.700171
0.795282
0
0.817416
0
0.720029
0
1.53917
1.67641
0.379819
0.450843
0.418607
0.6271
0.655162
0
2.34711
1.01089
0.678357
0.529372
1.51832
0.765707
0.288167
0
0.768092
0.823182
0.580123
0.655397
0.936333
0.580538
1.11034
0.666475
0.702889
0
0.198725
0
0.475227
0.369394
0.746196
0.980503
0.952102
0
0.453365
1.84078
0.470389
0.383106
0.584146
0.8723
0.762702
0
0.939836
1.44538
0.971722
0.316208
0
0.711884
0.436021
0
0.549552
0.425369
0.597955
0.246675
1.11819
0
0
0.554327
0.450152
0.736522
0.739804
0
0.358963
0
0.357738
0
0.322441
0.676921
0.784896
0.645319
0.275631
0.572419
0.847708
0
0.513619
0.443854
0.830535
0.548582
0.324854
0.934314
1.35174
0.497544
0.633026
0
1.03288
1.01152
0
0.514164
0.43207
0
0
0.716095
0
0.567663
0
0
0.56288
0.803057
0.94783
0
0
0.447181
0.694082
0
0
0.560957
0.668793
0
0.176216
0.0660612
0
0.639196
1.19881
0.15127
0
0.414769
0.457697
0.556281
0
0
0.31832
1.38886
0.736225
0.654992
0.324669
0.60188
1.06707
0
0.665867
1.02211
0.57095
0.918297
1.15449
1.19088
0.837298
0.319244
0.958139
0.48941
0.733423
0.685627
1.48083
0.213778
0.546138
0.21786
0.745302
0.387621
0
0.501658
0
0
1.46974
0
0.695599
0
0.63861
0
0.60159
0
0
0.865508
0.593204
0.578017
0.660852
0.5255
0
0.808841
0
0.625476
0
0
1.1598
0.737478
1.19938
0.352938
0.711813
1.55809
0.887319
1.04787
0.246537
0.773628
0
0.457914
0.0386707
0.243391
0.752006
0.79881
0.245548
0.380679
0.275598
0
0.516516
1.01823
0.881979
0
0
0
0.459866
0.611206
0.872558
0.999777
1.00507
0
0.533518
0.48479
0.31003
0
0.572534
0.540516
0
0.687366
0.336577
0.436597
0.638824
0
1.0069
1.15094
0.546578
0
0
0.517086
1.01499
0
1.01615
0.263715
0.803089
0.656681
0.396839
0.513665
0.711867
1.39478
0.726548
0
1.41022
0
1.55903
0.250633
0.211512
0.402174
0
1.7878
0
0.940026
0.428533
0.674437
0
0.923939
0
0.328446
0.436646
0
1.04224
1.0268
1.48587
1.37251
0
0.770266
0
0.587054
0.499801
0.579458
0.733984
0
0.376551
0
0.296447
0.477947
0.529696
0.212423
0
0
0.571786
0.784288
1.02897
0.453881
0.553439
0.524676
0
0.715605
0
0.49846
0.386024
0.723966
0
0.232594
1.01259
1.521
0.555012
0
0
0.162295
0
0.449787
0.343259
0.622887
0.77919
0.691957
0.539006
0.707574
0
0
0
0.869198
0.386912
0.60854
0
0.506265
0.890052
0
0.60691
0.491078
0.258054
0
0.401067
0
0.849189
0.689936
0.316479
0.880678
0.463392
0.797144
0.321295
0.574171
1.01098
0
0.365971
0.608239
1.06886
0
0.78794
0.223201
0.396159
0
0.383064
0.71798
0.846731
0.320625
0.462832
0
0.485605
0.451018
0.912761
0
1.33578
0.691061
0
0.635737
0.351487
0.616115
0.0835693
1.10766
0
0.624262
0.933124
0.967817
0.732723
0.53933
0.887968
0.840748
0
0
0
0.391203
0
0.800066
0.743437
0
0
0
0.655202
0.916156
0.422071
0.503977
0.477996
0.619462
0.645786
0.644899
1.34453
0.718924
1.21344
0
0.5269
0
0
0.652655
0.759604
0.528439
0
0.559237
0.553678
0
0.695543
0.78655
0.708181
0.368916
0.380052
0.354177
0.284136
0
0.417831
1.10308
0
0.810684
0.583969
0.7293
0.584028
0.497104
0
0.576748
0.644524
0.487515
0.279682
0.254959
0
1.30971
0.471991
0
0.316939
1.98576
2.1384
1.33629
1.63473
0.638185
0
0
0.719589
1.30637
0.500711
0.493542
0.363522
0.651246
0.793356
0.569998
0.946581
0.676022
0.473878
1.00568
0.482814
0
0
0
0.8609
0.425056
0
0.572623
0.684295
0
0.722836
0.799211
0.742533
0.308695
0.974015
0.387165
0
0.203232
0
0.481415
1.08134
0.44965
0.667078
1.37433
0.420881
0
0
0.196391
0.759902
0
0.415519
0.160049
0.648222
0.642318
0.676715
0
0
0.64665
0
0
0.749773
0.448507
0.566881
0
0.838608
0.434662
0.460117
0.44877
0.644501
0
0
0
0.713672
0.533565
0
0
0.270958
0.4609
1.1671
0.372893
0.445452
1.25672
0.376439
0.273648
0.265148
0
0.90694
0
1.05803
0
0.455649
0
0.862302
0.200023
0.333867
0.168515
0.465421
0.538797
0.430901
0.918076
0
0.521235
0.351986
0.778719
0.60657
0
0.662977
0.0916547
0.682469
0.658575
0.327277
0.723962
0
0.558984
0
0.664189
0.739498
0
0.822076
1.31653
0.582747
0
0.605564
1.11468
0.692122
0
0.444822
0.439042
0.846644
0.939935
0
0.40104
0.244053
0.532302
0.688983
0.67763
0.330039
0.43554
0.476548
0.460975
0.700859
0
0.651846
0.236607
0
0.519601
0
0.217455
0.328562
0.892374
0.435381
0.187322
0
0.644048
0.942102
0.443151
0.443787
0.557476
0.741068
0
0.481276
0.670019
1.07688
0.668423
0.724753
0.573858
1.20905
0.480989
0.849319
0.472585
0
0
0.669539
0
0.241563
0
0.574547
0
0
0
0
0.579467
0.477765
1.01279
0.722273
0.767366
0.781835
0
0.271738
0.644811
0
0
0.592079
0
0.631253
1.04935
0.656325
0.577969
0.350896
0.587292
0.324329
0
0.402667
0
0.318906
0
0.703379
0.544687
0.380066
0.255941
0
0.4076
0.790468
0
0.653287
2.30931
0.635954
0.979994
0.88479
1.53844
1.50649
0
0.384228
0.389427
0.254558
0.254691
0
0.264401
0
0.862135
0.599309
0.816102
0.574505
0.490325
0.403312
0.652924
0.587414
0
0
0
0
0
0
0
0
0
0
0
0
0
0
0
0
0
0
0
0
0
0
0
0
0
0
0
0
0
0
0
0
0
0
0
0
0
0
0
0
0
0
0
0
0
0
0
0
0
0
0
0
0
0
0
0
0
0
0
0
0
0
0
0
0
0
0
0.742023
0
0
1.19706
2.42824
0
0
0
0
0
0
0
0
0
0
0
1.32557
0
0
0.610385
0
0
0
0
0
1.50686
0
0.54516
0
0
0
0
0
0
0
0
0.641768
1.67729
0
0
0
0
0
0
0
0
0.873315
0
0
0
0.122203
0
0
0
0
0
0
0
0
0
0
0.582286
1.09654
0
0.957873
0.632143
0
0
0.390888
0.650845
0.246782
0
0.765996
0
0
0.300115
0
1.29679
0.269585
0.837852
0.524641
1.63087
1.05062
0.906136
0.692477
0.517015
1.07677
0.898758
0
1.07226
1.9949
0.651073
0.441176
0.685462
0.609772
1.05259
0.805537
0.416662
0
1.25939
1.11954
0.393764
0.758905
0
0.362704
0.306296
0.513245
0.418702
0.886082
0.88603
1.05502
0.67504
0.146323
0.712944
1.01103
0.525538
0
0.506814
0.443424
0.383052
0.545231
0
0
0.675501
0.530067
0.982484
0.389278
0.650734
0.916896
0
0.620585
0.491156
0.2786
0.47731
1.25726
1.28778
1.76513
1.18849
0.620345
0.904528
0.720909
0.479827
2.81774
0.456485
0
2.17683
0.60759
0.392409
0
0.458437
0
0.565829
0.609564
0.612634
0.405726
0.985967
0.685591
0
0.761312
0.605779
0.674881
0.798111
0.783204
1.30366
0.946685
0.717354
0.51868
0.450866
1.28126
0.847203
0
0.45203
0.482972
2.51955
0.816337
0.824127
0
0.558777
0
0.62949
0
0
0.411691
0
0
0
0
0.82939
0.736981
0.409014
0
1.36156
0.553437
1.33615
0.474776
0
0.357444
0.793662
0.645801
0.555616
0.494015
0.654319
0
1.11051
0.648702
0.968314
0
0.562969
0.32159
0
0
0.409338
0
0.985088
0
1.10509
0
0.436481
0.415883
0.647257
0.252918
0.684863
0
0
0
1.47945
0.780052
0.760169
0.352993
0.520216
0.306121
0.507825
0.413081
0
2.10935
0.680107
0
0.753939
0
0.480287
0
0.760122
0.786617
0
0.378855
1.41431
0
0.768923
0.886601
0
0
1.00312
1.15397
0
0.691266
0
0.621445
0.386043
0.19104
0.468946
0.395669
0
0
0.555208
0.911824
0.34518
0
1.53199
0.558434
0
0.461277
0
0.29113
0.672041
0.706921
0.674126
0
0
0.618087
1.14421
0
0.5851
1.36188
0.603562
0.710702
0.736432
0.848235
0
0
0.966141
0.865567
0
0.679524
0
0
0
0.441989
0.471177
0.609028
0
0.681251
0
0.603247
0
0.603196
0.776519
0.7498
0
0.75702
0.873774
0.176626
1.07681
0
2.38721
0.544665
0.897075
1.65662
0.604629
0.629388
1.02644
0.956072
0
0.424078
0.876828
0.492186
0.697011
0.567323
1.00951
0.398379
0.555536
0.777395
0.607708
0.489958
0
1.33473
0.568471
0.495145
1.40475
0.879183
0
0.639474
0
0
0.421174
0.532233
0.722818
0.430973
0
0.644018
0.359451
0.620392
0.630011
0.788927
0
0.567098
1.19536
0.68143
0
0
0
0.796853
1.02053
1.7469
0.895483
0.596052
0.67849
0.527317
0.541594
0.349077
0
0.632907
0
1.04039
0.146262
0
0.757205
1.31994
0.659083
0.541385
0
0.425404
0.456966
0.186486
0.260491
0.792625
0.479185
0
0.559263
0
0.266451
0.922221
0.730677
0.700054
0.369247
1.61
0.862034
0
0.676429
0
0
0.632198
0
0.691011
0
0.406058
1.13125
0.262505
0.649464
0
1.49302
0.309988
1.01382
0.301531
0.85774
0.391468
0
0
0.224875
0
0.438311
0.778818
0
0.717655
0.942886
1.10205
2.20322
0.92369
0
0.750584
0
0.418029
0.404457
1.03838
0
0.59665
4.0087
1.13731
1.44946
1.24966
0
0.386549
0.0629137
0.75453
0.135856
1.0875
0.437217
0
0.718753
0.643472
0.315552
0
0.468364
0.538663
0
0.623525
0
0
0.480182
0.735605
0.577882
1.83043
0.426979
0.820872
0
0.33607
0
0.575158
0
0
0.844302
0.748718
0
0.555884
0.791644
0
0.344208
0
0.382275
0.315662
0.583998
0.835523
0.474321
0
0.588922
0.740455
0.615276
0.690924
0.557823
0
0.429775
0
0.806454
0.506673
0.851965
0
0.534913
0.835025
0
0.381244
1.06606
0.376062
0.642258
0.680621
0
0.346213
0.538249
0.544381
0.356992
0.559032
0.484863
1.32849
0
0.783331
0
0.380534
0
0
0.623444
0.950025
0.812611
0.477616
0.684103
0.453974
0.992126
1.28942
1.01974
0
0.739276
0.864575
0
0.387245
1.2343
0.6411
0.96864
0.784282
0.490367
0
0.554802
0.440925
0.49624
0
0
1.508
0.618748
1.69006
0.994544
0.548537
0.913741
0.644236
0.46366
0.39759
0.670072
0
0.39214
0.360091
0.78889
0.40255
1.34045
0.910778
0.503563
0.517065
0.460679
0.430537
0
0.785598
0.373358
0
0.516799
0
0.495618
0.603517
0.404882
0.853577
0.284884
0.604876
0.585748
0.447677
0.497235
0.49441
1.87578
1.02407
1.10317
0.316608
0.298264
0
0.700777
0.686122
0.49577
0.469379
0.770409
1.00595
0.254084
0.430598
0.704939
0.541736
0.811832
0.446725
0.835457
0
1.78144
0.541381
0.913848
0.492475
0.369699
0.502626
0
0.30108
1.48738
0
0
0
1.31905
0.797102
0
0.304966
0.608119
0.580376
0.544585
0
1.32928
0.592614
0
0.368068
0
0.644644
0
0.664559
0.408961
0
0
0.634543
0.840076
0.757205
0
0.617888
0
0.529707
0.691291
0.556497
1.22584
0
0.570274
0.550575
0.581694
0.448156
1.6375
0.352331
0.95868
0.455721
2.0601
0.469453
0
0.949308
1.02934
0.286751
0
0.51148
0.901783
3.28234
0.77329
0.460347
0
1.32812
0.893325
0
0.32949
0.396736
0.737071
0
0.449092
1.18993
0.420414
1.05832
0.41309
0.345102
0
0.715934
0
0
0
0.933841
2.21082
0.828541
0.464981
0.0599934
0
0.743089
0.553493
0.494867
0.691689
0.294939
0.383887
0.324994
0.693762
0.623203
0.756378
0.188544
0
0.796313
0.448949
0
0.554423
0
0.43081
0
0.842973
0.624118
0.80315
0
0
0.409818
0
0.339082
1.25959
1.70448
0.7284
0.685721
0.847923
0.765819
0.495191
0.26668
0.595784
0
0.990646
0
0
0.466984
0
0.642501
1.21951
0.61225
0.625215
2.39498
0.443934
0
0.654982
0.271776
0.6275
0.69717
0
0
0.562604
0.694656
0.559073
0.285137
1.66371
0.717525
0.717691
0.405754
0.0622922
0
0
1.0249
0.564489
0
0.612115
0.579464
0.566566
0.815603
0.673774
0.769126
0
0.777632
1.35471
0
1.3593
0.968364
1.12337
0.912309
0
0.889368
0.685044
0.836652
0.676833
1.08346
0.726449
2.27056
0.75946
0
0
0.618289
0.265217
0.664621
1.1427
0.377559
0
0
0.100096
0
0.118968
0.599393
0
0.960986
0.884114
0.730427
1.43981
0.538993
0
0.835152
0.426892
0.256196
0.41279
0
0.916376
0
1.847
0.603609
1.79686
1.44735
1.02353
0.788568
0.67965
0.183159
0.258658
0.634965
0
0.714198
0
0.393415
0.326712
0
0.770715
0
1.21037
0.70356
0.713661
0.773989
0.495986
0.439083
0.515805
0
0
0.513262
0.475874
0
0.426258
0
0.393721
0.747789
0.741702
0.300788
0.560813
1.07135
0.659855
0.349719
0.312032
0.667691
0.410673
0.615067
0
0.632519
0.769761
0
0.620138
0
0.542332
0.394683
0.847052
1.18813
0
0
0
1.18347
0.99811
0.687602
0.557603
0.569462
0
0
0.457877
0.120883
0.653628
1.00508
0
0.506543
0.794184
1.10114
0
1.05676
1.68196
0.782585
0.938171
0.946356
1.61084
0
0
0.465388
0.520341
0.423816
0
0.424197
0.0879579
0.47601
0.684258
0.684505
0.549447
0.857696
0.410574
0.555733
0.527663
0.33865
1.76751
0
0
0.40991
1.63453
0
0.576008
0.464095
0.441365
1.08612
0.812284
0
0.438842
0.337313
0
1.05842
1.09975
0
0.325731
0.547584
0.504385
0
1.59826
0.459772
0.608734
0
0.649616
0.240029
0.594175
0.349101
0.811168
0.475446
0.334256
1.61593
0.381734
0
0.526329
1.08614
0
1.09906
1.21101
0.560047
1.13925
0.633788
2.13442
0.683178
0.455694
0
0.758572
0
0.560096
0
0
0.265025
0
0.365044
0
0
0
0
0
0
0
0
0
0
0
0
0
0
0
0
0
0
0
0
0
0
0
0
0
0
0
0
0
0
0
0
0
0
0
0
0
0
0
0
0
0
0
0
0
0
0
0
0
0
0
0
0
0
0
0
0
0
0
0
0
0
0
0
0.318472
0.424321
0
0.485924
0.447345
0
0.401479
2.10746
0.500917
0.429133
0
0.435367
0.372832
0.591621
0.410923
1.42509
0.29502
0.483444
0
0.519067
0.410583
0
0.413952
0.851148
0.229046
0.470382
0
0.398042
0.460648
0
0.446196
1.09039
0.210533
1.83275
0
0.419402
0.909852
0
0.270694
2.10442
2.21648
0.545658
0
0.566809
0.296454
0
0.981516
0.589858
0.173302
1.15272
0
0.161156
0.881441
0
0.580004
0.583661
0
0.50054
0
1.48823
0.6575
1.42576
0
0.522439
0.402652
0.9597
0.664419
1.56809
0.475523
0.179152
0.865561
0.550965
0.425056
0.468876
0.414321
0
2.16536
0
0.394898
0
0.6626
0
0
0
1.07143
0.728171
0
0.925983
1.1445
2.07109
1.07729
1.0694
0.695363
1.60462
0.966136
0.72624
0
0
0.426104
0.451256
0.421612
0
0.537947
0.67796
0.596685
0
0
0.526661
0.910401
0
0.373099
0.605632
0.331707
0.925613
0.302685
0.421869
0.697026
0.650629
0.553197
0.666504
0.273975
0.699858
0.695423
0.853473
0.415736
0.703235
0.629966
0.315548
0.530808
0.745015
0
0.511674
0.294286
0.83609
0
0.848562
0.62802
0.448245
1.83919
0.61485
0.227493
0.842768
0.354524
0.623581
0.620556
0.877362
0.366408
0
0.676938
1.97095
0.714833
0.725559
0.528305
0.474959
1.25371
0.322236
0.520171
0.338266
0.829865
0.71937
0.884023
0.547409
0
0.28054
0.0131965
0
0
0
0
0
0
0.420512
0.672682
0.867086
0.503995
0
0.32694
0.270379
0.607709
1.03717
0.874156
0.760277
0.473916
0.652851
0.680162
0.534227
1.45568
0.656987
0.290688
0
0.54991
0.436803
2.66888
0.787791
0
0.44264
0
1.87291
0.743188
0
0.649381
0
0.747049
0
0
0.10525
0.712129
0
0
0.481175
1.36559
0
0.674906
0.136488
1.08878
0
0.459684
0.25955
1.11729
0.617909
0.955236
0
0
0.678486
0.51511
0.759282
0.267872
0.44654
1.52458
0.753518
0.484324
0.272966
0.529162
0
0.571345
0
0.823421
0.514485
0.530458
0
0.54121
1.07081
0.649283
1.0732
0.66465
0
1.68268
0.538511
0.559786
0.303825
0.524844
0.0256918
0.458156
0.50594
0.606253
0.263136
0
0.893662
0.43939
1.81743
0.726962
0.587336
0
0
0.522185
1.13812
1.06245
0.423493
0.461489
0.263606
0.558827
0.914443
0.616901
1.60187
2.02609
1.12929
0.968274
0
0.77973
0.563659
0.736698
0.45857
0.523098
0.974761
0.413521
0.512555
0.939734
0.798493
1.35546
0.343533
0.505512
0.827966
0.393493
0.691194
0.231522
0.775185
0.335587
0.550909
0.309811
0.225284
0.473297
0.775376
0.924048
0.540526
0.781439
0
0.550809
1.07501
0.166215
0.904057
0.311578
0.623278
0.425608
0.808999
0.330643
0
1.03649
0.403733
2.01464
1.47898
0.834398
0.359823
0
0.62106
0.781759
1.25923
0
0.538097
0
0
0.501484
0
0.606801
0
0.516032
0
0.624476
0
0.298289
0.615934
0.767932
0.293015
0
0.724297
0.561135
0.58007
0.759138
0
1.30818
1.1554
1.69751
0.643247
0
0.674907
0.658995
0.688084
0.424246
0
0
0.353303
0.422297
0.551919
0
1.36917
0.887311
0.63552
1.05851
1.05573
0.712595
0
0.621451
0
0.572645
0.539477
0.532355
0.407757
0.167539
0
0.491388
0.123527
0.257193
0.484643
0.669677
0.627767
0.709924
0.272778
0.290633
0
0.453591
0
0.308761
0.38221
0.0413613
1.35135
0.583455
0.227511
0.643417
0
1.06881
0
0
0.602281
0.921975
0
0.783608
0.384296
0
0
1.02985
0.665799
0.34536
0.755674
1.33057
0
0.612054
1.26294
0.854185
0.738854
0
0.57429
0.663335
0.417257
0
0.523391
0
0
0
0.855675
0.411884
1.36628
0.577799
0.49704
0.8205
0.459349
0
0.923176
0
0.853675
0.461214
0
0
0
0.736467
0.610598
0.678315
0.519389
0
0
0.685276
0.625476
0.645087
0.66963
0.593365
0.430368
0.383705
0
1.3677
0
0.585671
0
0.960413
0
1.1749
0.95811
1.00712
0.882557
0.874692
0.589812
0.713299
0.859249
0.830669
0
0.705962
0.588332
0.964072
0.390323
0.527786
0
0.798642
0.983493
0.742732
0.434217
0.690469
2.08598
0.821502
0
0.593305
0
0.360183
0
0.406481
0
0.25837
0.565523
0.913886
0
0
0.694822
1.0938
0.905528
0.485562
0.327526
0
0.906224
0
0.302802
0
0.781792
0.512637
0.859143
1.12738
0.469276
0.592437
0.622795
0.482967
0
0.939726
0.529701
0
0.381041
0.258932
1.16823
1.05316
0.364781
0.504227
0.580078
0.502887
0.9261
0
0.600105
0
0.529308
0
0.817168
1.12642
0
0.690198
0.713735
0.49679
0.866792
0.726891
0
0.506642
0.991115
0.589692
0.75103
0
0.245453
1.47883
0.640393
0.417809
0.806708
0.518922
0.851886
0
0
0
0.751705
0
0.642916
0.307397
0
0.24883
0.276043
0.383773
0.419441
0
0
0.61063
0.246488
0.995257
0.832861
0.703388
0.640925
0.560062
0.456868
0.338359
0.587266
0.85564
0.625462
0
0
0.858048
0.804904
0.398175
0.343129
0.39456
0.884654
0.799378
0.262816
0.550585
0.64176
0.842716
0.703552
0.632473
0.389467
0.89658
0
0.919622
0.364316
0.782833
0.646227
0.544138
0.620484
0.0886558
0.326864
0
0
0.448875
0.616494
0.420367
0.780064
0.770913
0.523472
0.486452
0
0.527974
0
2.804
1.52404
0.507973
0
0.991941
0.599426
0.737245
0.43234
0.637804
0.684495
0.43926
0.49943
0
0.633169
0.761427
0.648053
0.271524
0
0.846716
0.795973
0
0.509905
0.653292
0
0.834115
1.09951
0.515216
0.239202
0
0.703544
1.68117
0.825532
0.471295
1.0495
0.708051
0.551774
0.260003
0.38701
0
0.277444
0.58319
0
0
1.21125
0
1.01006
0.691807
0.849482
0
0.75341
1.48537
0.219157
0.56698
0.505619
0
0
0.679568
0
0.68516
0.430788
0.597641
1.15561
0.794685
1.0773
0.191825
0.742301
1.22049
0.734918
0
0.52426
0
0.613916
0.895371
0.368245
0.968335
0.761936
0.358504
0.153013
0
0.205154
0.509358
0.182521
0.310289
0.793033
0.691212
0
1.32912
0.299821
0.39484
0
1.63587
1.29675
1.06886
0.492431
0.91628
0.634291
0
0.927541
0.648425
0.721849
0
0.759616
0.752848
0
0
0
0.300477
0.375703
1.36593
0.535974
0.372873
0
0.651913
0.540151
0
0.416703
0.654816
0.605031
0.645398
1.90033
0.983578
0
0.781496
1.4248
0.534227
0.957406
0
0
1.1186
0.531861
0.831315
0
1.93685
0.635815
0.749245
0.232453
0.217748
0
0.296751
0.702395
0.563417
0
0.56151
0
0.75277
0
0.355606
0
0.611346
0
0.527533
0.739161
0.496236
1.44266
1.11642
0.637254
0.749717
0.626346
0.615717
0
0.927663
0
0.736058
0.623206
0.481839
0.527046
0
0.453451
0.523877
0.449587
0.76832
0.896566
0.649618
1.22377
0
0
0.36983
0.617408
0
1.86334
0
1.84625
0.497902
0.283614
0
1.29223
0
0.411555
0.494536
0.721223
1.06182
0
0.459708
0.85537
0.883539
0
0.732417
0.913155
0.610827
0.307762
0.226501
0
0.705037
0.47756
0.497818
0.871269
0.53704
1.22601
0.402281
0
0
0.742902
0.156974
0
0.991187
0.478673
0.521625
0.665703
0.75712
0.849589
1.12578
0.999047
0
0.663777
0
0.913553
0
0.215568
0.406721
0.791083
0.565228
0.442035
1.45957
0.207256
0.743885
0.610937
0
0
0.641173
0.4235
0.699684
0
0.229482
0.805817
0.405933
0.559422
0.362422
0.701742
0
0.844731
0
0
0.264751
0.635266
0.520445
0.286455
0.325484
0
0.395863
0
1.03061
0.47947
0.481668
0
1.06222
0.452748
0
0.868066
0.54869
0.878029
0.805946
0
0
0.930184
0.715451
0.628603
0
0.473451
0.547064
0.572282
0.394158
0.901302
0.181592
0
0
0.290153
0.454454
0.52135
0.715134
0
0.366445
0
0.500709
0
1.74695
0.412704
0.813693
0.37806
0
0
0.550238
0
0.384997
0
0.585673
0.990137
0
0
0.570192
0
0.469257
0.570994
0.436777
0.384321
0
0
0.615908
0.490814
0.360964
0
0.639614
0
1.64372
0.758289
0.626426
1.10867
1.05773
0
0.751828
0.736205
1.04035
0.773327
0.560787
0.412576
1.13661
0.554552
0.578508
0.435428
0.425551
0.625882
0.586258
0
0
0
0
0
0
0
0
0
0
0
0
0
0
0
0
0
0
0
0
0
0
0
0
0
0
0
0
0
0
0
0
0
0
0
0
0
0
0
0
0
0
0
0
0
0
0
0
0
0
0
0
0
0
0
0
0
0
0
0
0
0
0
0
0
0.573822
0.616318
0.416852
0.432353
0.354481
0
0.556094
1.48743
0.487041
0.472333
0
0.494985
0.479624
0
0.360783
0.899372
0.117424
0.532168
1.08287
0.607547
0.393728
0
0.445824
1.37926
0.419251
0.588983
0
0.592183
0.453591
0
0.4258
1.13704
0
0.161737
0
1.78604
0.534802
0.559353
1.20351
0.415774
0.130078
1.19259
0
0.189365
0.791498
0
0.27952
0.60034
0.614885
0.203855
1.70734
0.987135
0.356879
0
0.783381
0.366072
0.171454
1.5878
0.880952
0.671785
1.63315
0
0.279204
2.54412
1.53596
1.66901
0.696714
1.02382
1.55575
0
0.465779
0
0
0
0.346763
0
0.81553
0.598865
0.472441
0.378085
0.466919
0.929565
0.887666
0.740333
0.508327
0.390199
0.982313
0
0
0.97642
0
0.994508
0.519419
0.275481
0.573577
0.881758
0.496183
0.749128
0.759806
2.63025
1.14887
1.27225
0.999496
0
0.374814
0
0.607755
0.498119
0.390236
0.690107
0
0.682446
0.485211
0.463466
0
0.535266
1.14099
0.477628
0.511839
0.902062
0
0.320384
0.755289
0
0.715674
0.376031
0.207644
0.953338
0.404089
0.288001
0.748571
0
0
0.852076
0.709238
0.978546
0
0
0
0.366606
0.485889
0.669447
0
0.470951
0
0.858604
0
0.835547
0.58018
0.796119
0.167108
0
0.760638
0.565938
0.736632
1.76352
0
0.546118
0
0.515278
0.550498
0.421875
0.801166
0.532365
0.776504
0.643196