<?xml version="1.0"?>
<VTKFile type="RectilinearGrid">
<RectilinearGrid WholeExtent="0 32 0 32 0 32" Origin="0 0 0" Spacing="1 1 1">
<Piece Extent="0 32 0 32 0 32">
<PointData>
</PointData>
<Coordinates>
<DataArray type="Float32" format="ascii">
0 0.524874 1.04975 1.57462 2.0995 2.62437 3.14924 3.67412 4.19899 4.72386 5.24874 5.77361 6.29849 6.82336 7.34823 7.87311 8.39798 8.92285 9.44773 9.9726 10.4975 11.0224 11.5472 12.0721 12.597 13.1218 13.6467 14.1716 14.6965 15.2213 15.7462 16.2711 16.796 
</DataArray>
<DataArray type="Float32" format="ascii">
-5.03879 -3.62163 -2.20447 -0.787311 0.629849 2.04701 3.46417 4.88133 6.29849 7.71565 9.1328 10.55 11.9671 13.3843 14.8014 16.2186 17.6358 19.0529 20.4701 21.8872 23.3044 24.7216 26.1387 27.5559 28.973 30.3902 31.8074 33.2245 34.6417 36.0588 37.476 38.8931 40.3103 
</DataArray>
<DataArray type="Float32" format="ascii">
0 0.524874 1.04975 1.57462 2.0995 2.62437 3.14924 3.67412 4.19899 4.72386 5.24874 5.77361 6.29849 6.82336 7.34823 7.87311 8.39798 8.92285 9.44773 9.9726 10.4975 11.0224 11.5472 12.0721 12.597 13.1218 13.6467 14.1716 14.6965 15.2213 15.7462 16.2711 16.796 
</DataArray>
</Coordinates>
<CellData>
<DataArray type="Float32" Name="Scalar" format="ascii">
0
0
0
0
0
0
0
0
0
0
0
0
0
0
0
0
0
0
0
0
0
0
0
0
0
0
0
0
0
0
0
0
0
0
0
0
0
0
0
0
0
0
0
0
0
0
0
0
0
0
0
0
0
0
0
0
0
0
0
0
0
0
0
0
0.196766
0.484062
0
0.37589
0.332316
0
0.40447
1.61584
0.238565
0.28569
0
0.266919
0.451414
0
0.399271
1.78145
0.320687
0.355642
0
0.191858
0.241987
0
0.509388
1.43888
0.09995
0.320985
0
0.463831
0.543068
1.0345
0.249067
1.83627
0.0521631
1.06132
0.251551
0.26194
0.324708
0
0.186346
1.10559
0.775497
0.13362
0.632998
0.699448
0.100507
0
0.883359
0.410498
0.0641807
1.89685
0
0.199659
0
0
0.151824
0.906803
1.94038
0.143231
0
1.36004
0.283653
0
0
0.641655
0.901376
0.830851
1.31245
0.810157
0.378983
0.200316
0.315758
0.540035
0.418459
0.340699
1.86664
0.446863
1.86955
0
0.49606
0.896425
0
1.13482
0.279092
0
0.448137
0.88857
0.690075
1.17467
0.942525
0.586411
1.03376
0.80616
0.425248
0
0
2.11662
0.341995
0.66174
1.17265
0.312248
0.419267
0.489744
0.356117
0
0.382513
0
0.390476
0.570839
0.893593
0
0.250669
0
0.521488
0.170536
0.244597
0.242609
0
0.52222
0
0.744382
0.36817
0.646839
1.17746
0
0.164321
0
0.861636
0
0.438823
0
0.697015
0
0
0
1.08398
0
1.09092
0.510889
0.791146
0.543424
0.551349
0.538031
0
0
0.722454
0
0.348616
0.263526
1.09701
0.572147
0
0.887548
0.686773
0.813904
0
0.731362
0.62525
0.273235
0.942064
0
0.713977
0.637236
0.671224
0.455955
0.582428
0
0
0
0.99223
1.52792
0.771167
0.68996
0.680824
0.339216
1.28947
0.681808
0.282033
0
1.43317
1.51447
0.802695
0.827212
0.806686
0.817062
0.449037
0.680517
1.32672
0.661613
0.633236
0
0
0.387873
1.32759
0.516942
0
0.355849
0
0.398584
0.661852
0.953708
0.726685
0.667743
0.455167
0.291047
0.283656
0
0
0.567004
0
0.948638
1.08265
1.09957
1.25276
0.632048
0.375993
0.918746
0.457371
0.588589
0.732795
0
0.281969
0
0.629678
0.368992
0.40721
0.348356
0.930294
0
0.601759
0.398919
0.694081
0
0.446402
0
0.549396
0.695581
0.366822
0.520143
0.598715
0.568048
0.9188
0.51144
0
0.542536
0
0.531118
1.16436
0.445437
0.453317
1.13083
0.420597
0
0.564935
0.602774
0.814881
0.180012
0.485898
0
1.02456
0
0.158913
0.125934
0.457101
0
0
0.319064
1.29306
0
0
0.430056
0
0.595916
0
0
0
0
0
0.569902
0.227006
0.618736
0.426139
0.968062
1.27084
0.829962
0.540579
0
0.916354
0.976751
0
0.474604
0.509419
1.61208
1.00287
0.484308
0.367445
1.14074
0.185775
0.781815
0
0.535116
1.11774
1.09747
1.07541
0.376832
0
0
0.671636
0.928273
1.03904
0
0.692096
0
0.613503
0
0.636438
0.515652
0
0.736858
0
0.482889
0.387005
0.433605
0.782047
0
0.806872
0.680662
1.40821
0.779282
0
1.08558
0
1.21963
0.399211
0.478427
0.675682
0
0
0
0.727066
0.648823
0
1.71597
0.791906
0.794094
0.655857
0.734538
1.35515
0.384534
0
0
0.0999124
0.626333
0.334776
1.13856
0.359232
0.339555
0.704222
0.481334
0.641338
0
0
0
0.54875
0.479033
0.245801
0.341005
0.766409
0.957641
0.563186
0
0.503512
0
0.419902
1.05781
0.501622
0
0.646014
0
1.0662
0
0.828818
0.462731
0
0.502982
0.563283
0.340886
0.416568
0
0.930295
0
0.649314
0
0.926081
0.928079
1.30445
1.17736
0.703606
0
0.653605
0
0.893054
0.453499
0.397911
0.429167
0.727472
0
0.385262
0
0
0.764065
0
0
0.269713
0
0
0.237379
0.520449
0.734709
0.534702
0.51198
0
0.508374
0
0.502039
2.33008
0
0.789278
0.674721
1.10118
1.12897
0.474649
1.12153
0.979158
0
0.586245
0.303312
0.371082
1.29758
0.580529
0
0
0
0
0
0.809675
0.525948
0.191822
0
0.663285
0
0.799099
0.840119
0.687344
0.628506
0.731836
0.758582
0.677925
0.798083
0.552235
0.92032
0
0.705324
0
2.01006
1.14032
1.49348
0.797125
0
1.07514
0.374354
0
0.578738
0.60149
0.55227
0.879831
0.672047
0.398536
0.365512
0.772416
0.212709
0
0.435528
0.656544
0.264121
0.320139
0.418588
0
1.50379
0.765676
0
0.673868
0
0.760743
0.617365
0.699019
0
0
0.639899
0.419734
0.767743
0.589561
0.289825
0.653728
0.692545
0
0.541523
0.414759
0.534675
0.24273
0.717464
0
0.60957
0.617381
1.3263
0.777262
1.14228
0.426587
0
0.251618
0.348294
1.00734
0.465563
0
0.870856
0
0.316498
0.164453
0
0.614763
0.437508
1.06902
0.792354
0.563943
0
0.572744
0
0.578589
0.701819
0.47907
1.0788
0.535559
0
0.496321
0.821314
0
0.705718
0
0.314512
0
0.656059
0.833361
0
0
0
0
0.32678
0.343302
0.622666
0.330949
0.490381
0.440823
0.581262
0.576308
0
0.602961
0
0.956631
1.36878
0
0.694603
0.532506
0
0.529402
0.360021
0.492564
0.278414
1.28872
0.9706
0.470939
0.947885
0
0.92654
0
1.73727
0.683527
0
0
0
0.190065
0.973915
0.486114
0.457907
0
0.4269
0
0
1.67876
0.85946
0
0.551764
0.450348
0.8945
0.470411
0.48091
0.535172
1.0106
0.817336
0.465173
0
0.232414
0.386987
1.13822
0.972987
0.716125
0.706614
0
0.518853
0.319948
0.755103
0.801079
0
0.564227
0.405685
0.714463
0.669646
0.56193
0.30675
0.431888
1.16105
0.868678
0.555471
0.496437
0
0
0.586493
0.633369
0.794071
0.628765
0
0.403438
0.827858
0
0.239354
0.95975
0
0.330381
0.418135
0.374612
0.452366
0
0.659939
0.736409
0.798323
0.363366
0
0.630655
0
0.647306
1.15476
0.705798
0
0.519052
0.394665
0.388654
1.28053
0.810766
0.659659
0.565114
0
0
0.694774
0.824209
0
0
0.286131
0.34097
0.351131
0.547726
0.629213
0.557776
0.633991
1.19461
1.03473
0.732356
0.471202
0.560373
0
0
0.738635
0.474875
0.958777
0.667471
0.890725
0.336802
0.953067
1.07566
0.238363
0.949133
0.658938
0
0
1.07984
0.449621
0
1.60191
0
0
0.399133
0.394553
0
0
0.206446
0
1.17788
0.398331
0.782197
0.714063
0.890089
0.69975
0.651484
0.481986
0.572529
0.52976
0
0.562403
0.673515
0.77921
0.784445
0.901608
1.04829
0
0.860947
0.549872
1.2094
0.819089
0.570372
0.616507
0.141189
0.53401
1.28273
0.467652
0.884986
1.00724
0
0.661698
0.666369
0.686651
0
0.829477
0
0
0.294167
0.571328
1.25109
0
1.49172
0
0.465121
0
2.11853
0.294848
1.0492
1.03636
0
0.565177
0.877502
0.512606
0.325345
0.915441
0.837313
0.47611
0.706339
0.706088
0
0.678239
0
0.423234
0
0.865237
0.274181
0.552775
0.141862
0.855834
0.53524
0.440968
0.26019
1.01912
0.794601
0
1.7842
0.687899
0.93868
0.779153
1.79929
0
0.718233
0
0.777273
0
0
0
0.68348
0.949174
0.391067
0.365848
0.359447
0.847978
0
1.82497
0.476803
0
0.749316
0.530239
0.129475
0.518128
0.534215
0
0.709419
0
0
0.892848
0.692296
0.394942
0.55516
0.929327
1.47603
0.46613
0.820311
0.6307
0.169926
0.669638
0
0
1.33644
0.623232
0
0
0.462286
0.56917
1.17635
0.821263
0.741325
1.25534
0.781226
0.848402
0.55745
0
0.456239
0.545005
0.3668
0.389207
0.32885
0.495957
0.497399
1.2783
0.889166
0
0
0.902291
0.593061
0.518322
0
0.199341
0
0.642126
0.544423
0.469677
0
0.842464
0.656358
0
0.951046
0
0.0679414
0.371504
0.504096
0.5306
0.252772
0.351297
0
0.304011
0
0.768495
0.576892
0
0
0.499044
0
0.530569
1.58434
0.626509
0
0.475102
0.257627
0.735931
0.83449
0
0.463555
0
0.81594
0.710584
0.328724
0.457933
0
0.894319
0.755396
0.528905
0.476261
0.484954
1.3859
0
0
0.706373
0.584594
1.41208
0.254462
0.548248
0.285558
0.563254
0.74791
0.435535
0
0.359269
0.488431
0.636916
0
0.48661
1.39502
0.249193
0.662668
0.60517
0
0.575757
0.632843
0.655576
0.620982
0.500113
0.883597
1.82178
0.560927
0
0.244486
0.568998
0.346666
0
0.325816
1.19182
0.721105
0.744321
0
0.351963
0.90788
0.782045
0.359685
0.474447
0.274747
0
0.739483
1.15709
0.63442
0
0
0
0
0
0
0
0
0
0
0
0
0
0
0
0
0
0
0
0
0
0
0
0
0
0
0
0
0
0
0
0
0
0
0
0
0
0
0
0
0
0
0
0
0
0
0
0
0
0
0
0
0
0
0
0
0
0
0
0
0
0
0
0
0.236595
0.423774
0
0.534856
0.798377
0
0.463173
1.20152
0.275525
0.579994
0
0.601691
0.517198
0.102757
0.483097
1.89046
0.453924
0.429542
0.688385
0.552863
0.518405
0.7635
0.390609
1.25012
0.294907
0.651082
0
0.510058
0.579698
0
0.61373
1.39503
0
0.174464
0
1.42872
0.620132
0.989204
1.06364
0.772641
0.268995
1.61091
0
0.151303
1.10284
0
0.486011
2.03231
0.640662
0.212659
0
0.579642
0.328771
0
0
0.299498
0.0820092
1.57552
0
0.316722
2.25478
0
0.36733
1.22775
0.749541
0.860226
1.35839
0.748276
2.46942
1.12934
0.799955
0.679423
0
0
0.873237
1.4771
0.786148
0.618839
1.53648
1.36078
0.867344
0.731211
0.40322
0.544298
1.01898
0
0.538686
0
0.578245
0
0.439439
0.935299
1.11484
0.882679
0.646527
0.650818
0.635103
0
0.683268
0
0
0.851356
0.749108
0
0.623105
0
0.592768
0.715303
0.363339
0.789394
0.178996
0.388712
0.390542
0
0
0.53079
0.507535
0.747099
0
0
0.360764
0.768951
0.572463
0.638694
0.751661
0
0.635616
0
0.582385
0
0.151683
0.415947
0.511765
0.260919
0.486656
0
1.42516
0.976624
0
0
0
1.11344
0.505759
0.227486
0
0.8062
0.931283
2.23512
0.721889
0.848866
1.42369
0.472463
0.396136
0.60557
0.628461
0.925027
0.592317
0
1.00752
0
0
0
0
0.617363
0.207322
0
0.746815
0.984376
0.47074
0
0.356422
0
0.275478
0
1.8448
0.862353
0.778781
0.342889
0
0
0.723092
0.682324
0.540897
0.303543
0.450516
0.548485
0
0.252889
0
1.07252
0.495432
0.665872
0
0.593185
0.173783
0.553051
0.474287
0.744276
0.454433
0.971512
0.947896
0
0.52253
0.435792
0.460202
0.555099
0.446584
1.62497
0.474204
1.81976
1.16629
0.610168
0.325698
0.334899
1.00505
1.39751
1.2725
0.575974
0.719484
0.81875
0
0.609725
0.724485
0.444726
0
0.549227
0.695803
0.526075
0.614888
0
0.884079
0.075274
0.56544
0
0.840661
0
1.10724
0.526192
0
0.434486
0
0
0
0.528987
1.10733
1.29281
1.00611
0
1.28651
0.229193
0.745371
0.244399
1.15597
0.786158
0.641508
0
0.695029
0.901748
0.553399
0
0.603718
0.96344
0.548125
0.627459
0.404834
1.16508
1.11671
1.12952
0.616455
0.450983
1.22155
0.817965
0.0882233
0.480349
0
0.501677
0
0.713952
0.993511
1.20907
2.03966
0.492231
0.187751
0.755935
1.04975
1.00095
0.858106
0
0.120662
0.138
0
0.836526
1.60471
0.826008
0
0.637942
0.776287
0.88709
0.26434
0
0
0
0.569809
2.23525
1.25468
0.789826
0
0.352513
0.671366
0.614226
0.831478
0.525615
0
0
0
0.845596
0.428862
0.49108
0
0.586743
1.12989
0.282379
0.80555
0
0.982409
0.65055
1.22225
0.789353
0.304399
0.380905
0.586919
0.655833
0
0.297089
0.66607
0.437481
0.29564
0.500201
0
0
0
0.770046
0.911519
0
0.394138
0
0
0
0
0.38322
0
0.820876
0
0.842109
0
0.706684
0.482651
0.742942
0.755661
0.243333
0.436688
0
0.5227
0.947366
0.540215
0
0.455894
0.521988
0.636396
0.266409
0.707844
0.338795
1.06308
0.646295
0
0
0.836266
0
1.82764
0.922813
0.827186
1.03962
0.507221
0.969154
0
0
0.583715
0.849806
0.692044
0.424772
0.843528
0.574313
0.610209
0
0
0.394468
1.13621
0
0.590864
0.482189
0.288681
0
0.78233
0.426582
0
0.308091
0.407405
0.965169
0.647849
0.558967
1.01477
0.780549
0
0.54459
0
0.61182
0
0
0.736355
0.552063
0
0.700674
0.83379
0.413917
0.687943
0.874237
0
0.761387
0
0
0.841255
1.03013
0
0.278131
0.399693
0.649684
0.610313
0.818481
0.666834
0.435372
0.545268
0.332126
0.169603
0.759633
0.962853
0
0.551785
0.320293
0.482747
0.583153
0.855239
0.698136
0
0.900384
2.46395
1.00119
0.428301
0.384732
0.815868
0
0.398117
0.766089
1.02534
0.818895
0.677727
0.69718
0.502577
0
0.83195
0.76156
0.532514
0
0
0.846817
0.541344
0
0.775692
0.321491
0
0.820667
0
0.737702
1.48507
0.26737
0.597654
0.604575
0.720184
0.52836
1.29716
0.185243
0.821913
0.798145
0
0
0.623189
0.788514
0.461189
0.378679
0.549317
0.444189
0
0.525497
0.555669
0
0.516085
0.820757
0
0.240647
0.710974
0.580173
0
0
0.543639
0.89519
0.28002
0.670765
0
0.613838
0
0
0
0.85304
0
0.591193
0.590014
0.851905
0.800971
0.36841
0
0
1.02316
0.577676
0.382594
0.332198
0
1.22181
0.399844
0.770152
0
0.786741
0.80747
0.396737
0
0
0
0
0
0
0.481322
0.788555
0
0.49257
0.660137
0.482925
0.546906
0.662495
0
0
0.660342
0
1.10006
0.13136
0.496722
0.299109
0.77038
0.89216
0.603926
0.571316
0.357637
0.629408
0
0.45038
0.666045
0.612358
0.335693
0.609498
1.04615
0.145649
0.656287
0.885234
0.659983
0.524345
0.333859
0.55773
0.439637
1.39549
0.869149
0.546734
0.630933
0.337581
0.487423
0.317363
0.0724763
0.711168
0.386581
0.932277
0.429801
0.591592
0
0.451272
0.281078
0
0.745928
1.19036
0.951946
0.74888
0
1.1925
0
1.24417
0.445537
1.25747
0.580762
0.680667
0.508366
0.57585
0
0.884623
1.07312
0.262052
0.415697
0
0.704377
0
0.954804
0
0.663795
0
1.06558
0.760815
0.808124
0
0.721126
0.523498
0.216144
0.525511
0
0.756441
0.370269
0
0
0.644261
0.863145
0.707984
0.959433
0.614319
0.998686
0.58556
0
0.784255
0.898266
0
0.765311
0
0.691023
0.473361
0.657835
0.359121
1.541
1.63203
0.295134
0.409789
0.924563
0.658302
1.00133
0.978901
0.557282
0.258103
0.976702
0.956053
0.360197
0.429995
0.622469
0.515406
0.532949
0
0.140647
0
0.854137
0.40278
0.784424
1.17313
0
0.196838
0
0
0.458481
0.559759
0
0.467735
1.44134
0
0.763886
0.937146
0
0.783013
0.796088
0
0.75556
0
0.572063
1.37493
0.405885
0.557629
0.683165
0
0.480758
0.8521
0
1.03685
0.602953
1.01825
0.577368
0
1.20117
0.877913
0.455069
0.415902
0
0.356442
0
1.04079
0
0.501529
0
0
0.615582
1.83652
0
0
1.34693
1.68599
0.562208
0.325368
0.880433
0
0
0.698404
0.557652
0.627454
0
0.579471
0
0.785553
0
0
0.535661
0.626468
0
0
0.619022
0.378358
0
0.587836
0.991904
0.513126
1.52459
0.66442
1.02004
0.759043
0
1.08228
0.948813
0.454512
0.595447
0.784104
0.430641
0.8653
1.07543
0.336789
0.273757
0
1.2402
0
0
1.40696
0.821594
0.446254
0.792665
0.796449
0
0.390683
0
0.599622
0.475731
0.57425
1.33126
0
0.815993
0.708604
0.573376
0
0
1.36448
0.575114
1.85196
0.980356
0.602774
0.442779
0
1.18146
0
0
1.27375
1.997
0.24227
0.749311
0.769134
0.863664
0.687105
0.676482
1.91551
0
0.419672
0.617602
0
0.392594
0.601337
0.685371
0.302676
0
0
0.330135
0.697075
0.416736
0.625479
1.07207
0.53744
0.533353
0
0
0.953146
0.632907
1.01147
0.62457
0.898378
0
0
0.936264
0.598987
0.595425
0.37407
0
0.64891
0
0
0.398127
0
1.71972
0
0.168432
0.302118
0
0
0.550385
1.02766
0.45609
0.654594
0
0.627771
0
0.752121
0
0.948534
0.994008
0
0
0.614833
0.913568
1.10404
0.792573
0
0.554327
0.412737
0.553536
0.589908
0
0
0
0.456067
0.346083
0.763196
0.769952
0.833642
0.899789
0.432372
1.74933
0.664079
0.31764
0
1.76976
0.525733
0
0
0.593879
0
0.680837
1.10179
0.613011
0.268657
1.58997
0.647028
1.06101
0.977447
0.479881
0
1.05329
0.708946
0.817714
0.521457
0.739807
0
0.443533
0
0.327208
0
0
0
0.768207
0
1.43311
1.08056
0.694695
0
0.513671
0
0.295684
0
0.612656
0.586335
0.816533
0.658771
0.368877
1.49027
1.11845
0.832569
0
0.497631
0.46391
0.795848
0.995757
0.625905
0.493444
0.59332
0.367019
0.677663
1.40574
1.25031
1.04836
1.42787
0.801062
0.53889
0.753159
0
0.575897
0
0.56252
3.16911
0
0.747185
0
0
0
0
0
0
0
0
0
0
0
0
0
0
0
0
0
0
0
0
0
0
0
0
0
0
0
0
0
0
0
0
0
0
0
0
0
0
0
0
0
0
0
0
0
0
0
0
0
0
0
0
0
0
0
0
0
0
0
0
0
0
0
0
0
0
0
0.922996
0.349525
0
0
0
0.869558
0
0
1.09725
0
0
0
0.240403
0.795299
0
0
0
0.972845
0
0.716231
0
0
0
0
0
0.216415
0.5075
0.645191
0
0
0
0
0.340889
0
0
0
0
0
0
0
0
0.428365
0
0
0
0
0
0
0
0
0
0.46064
0
0
0.302838
0
0
0
0
0
0
0
1.24467
0
0.155758
0.656335
0.558344
1.07933
0
0.51849
0
1.00727
0.670944
0
0
0.796974
0
0
0.494553
0.885224
0.807179
0.485671
0
0.850417
0.527905
0
0.362422
0.426709
0.91488
0.914756
0.72018
0.743667
0
0.737373
0.80581
0.754985
0.553857
0.670446
0
0.230984
0.525472
0.890498
0.539227
0.217053
0.504942
0.688031
0.455452
0
0
1.012
0.642224
0.548972
0.429236
0.461949
0
0.606428
0.267435
0.65899
1.06335
0.879573
0
0.642437
0.717124
0.364371
0.918375
0.737755
0
0.83741
0.477647
0
0
0.812567
0.862647
0.194564
0
0.803741
0.142332
0.876315
0
0
0
0.344581
0
0.281914
0.478036
0
0
0
1.24155
0.827291
1.61342
0.435417
1.00765
0.909152
1.76764
0
1.44932
0.664375
0.974759
0.758744
0.662639
0.760336
0.630931
0
0
0
0.443711
0.485418
0
0.545516
0.61869
1.13745
0.472872
0.789929
0.319815
0.729052
0
1.06632
1.37278
0.657588
0.438411
0.6704
1.14833
0.608106
0.403068
0
1.40248
0.191852
0.439166
1.13806
1.00486
0
0
0
0.618074
0.466571
0.448265
0
0.537249
0
0.444441
0
0
0.971459
0.226708
0.705723
0.481645
0
0.593707
0.915706
0.328629
0.427468
0.752076
0.734462
2.14967
0
0.541213
0
0.759923
0
0.458672
2.11733
0.682196
0
0.419668
0.867938
0
0.678555
0
0.636936
0
0.569103
0.363092
0.285385
0
0
0.704271
0
0.363646
0.639806
0
0.590267
0.22451
0.554008
0.337379
0.94416
0
0
0
0
0.893349
0
1.21255
0.856543
0
0.492695
0
0.671516
0
0.640773
0.536585
0
0
0.662273
1.14995
0.417473
0.743913
1.15967
0
0.91515
0.822654
0.783134
0.21239
1.05431
0.686648
0
0.345405
0
0.547575
0
0.374648
1.06319
1.1183
0.596498
0.549343
0.728029
0.539135
0.825175
0.568273
0.657192
0.603743
0.751783
0
1.011
1.19725
0.878865
0.637856
1.02737
0.859728
0.598998
0.424635
0.734069
1.3479
0.759202
0.673709
0
0.555965
0.678539
0.666186
0.16012
0.403464
0.797804
2.11604
1.75656
0
0.415073
0
0.733019
0.221275
0.365895
0.785579
0.181668
0.229259
0
1.13569
1.17043
1.3687
0.412719
0.695516
0.370197
0.939236
0
1.07752
0.758847
1.20258
0.510073
0.45353
1.08835
0
0.985998
0.660534
0.696101
1.09965
0.73988
0.802573
0.290206
0
0.703568
0.341
0
0
0
0.506811
0.883407
0
0.446777
0
0.144074
1.04036
0.495269
0.471434
0.527874
0.371522
0.642225
0.332931
0
0.174504
0
0
0.674737
0.644417
0.394396
0.532955
0.73174
1.28812
1.02505
0
0.449599
0
0.630402
0.588504
0.316047
0.43607
0
0
0.559515
0.591397
0.384505
0.693694
0.381565
0.525928
0.439964
0.338074
0.349095
1.17575
0.457724
0.37609
0
0.528658
0.893313
0.871167
0.624826
0.539556
1.36894
0.485453
0
0
0
0
0.284899
0
0.416255
0
0.708201
0
0.528824
0
0.452854
0.492714
0.565237
0
0.605233
0
0.193572
0.630362
0
0.969388
0.57435
1.79485
0.282578
0.578834
0.504553
0.485747
0.44947
0.530854
1.64031
0
0
0
0.4168
0
0.442188
0
0.37002
0.401813
1.10316
0.702974
0.748035
0
0.548905
0.421256
0.358678
0.199171
0.33847
0.389884
0.576215
0.553175
0
0.36538
0.29133
0.567742
0.677036
0
0.851378
0.471628
0.877298
1.36279
0.713231
0.611016
0.359144
0.425252
0.216677
0.400575
0.631685
0.388991
0.617252
0.512918
0.463868
0.648215
0
0.718377
0
2.15929
0.35487
0.207245
0.232294
0.604632
0.329695
0.917715
1.65633
0.499257
0
0.804898
0
0.458798
0
0.486193
0
0
0.958735
0.791356
0.647787
0.538508
0.676495
0
0.157898
0
0.439412
0.457592
0.967955
0
0
0.379785
0
0
0.986433
0.5656
0
0.534531
0
0.773546
0.503899
0.663648
0
0
0.628934
0.448716
1.07926
0.52981
0
0
0.97212
0
0
0.742033
0.517665
0
0
0.63413
0.536326
0.395971
0.552251
1.0614
0.44244
0.576606
0.472964
0.431417
0.290966
0.71005
0.593123
0.598302
1.12132
0
0.444472
0.586134
0.461661
0
0.573183
0
0
0.717607
1.18559
0.397908
0.873739
0.840773
0.738659
0
0.588686
0.41426
0.496086
0.408466
0
0.336322
0.942532
0.329058
0.368148
0.41847
0
0
0.564478
1.50232
0.778247
0
0.155867
1.38043
0.437705
1.65414
0.148436
0.393114
0
0.287626
0.63089
0.247805
0
0.580703
0
0.697613
0.86747
0.358291
0.3887
0.0832852
0.671958
0.371416
0.717293
0
0.611532
0.297987
0
0.664557
0
0.920327
0
0.462404
0.457
0.585176
0.461328
0
0
2.15526
0.764374
0.61304
0.786466
0.372923
0.852654
0
0.295408
0
0.668681
0.490861
0.526606
0.754866
1.17307
0.607977
1.04934
0.631413
0.382443
0.491517
0.398566
0
0
1.2109
0
0.45975
0.172158
0.372762
0
1.12295
0.556915
1.20958
0.514188
0.586301
1.11021
0.886866
0
1.42054
0.457422
1.00059
0.873291
0
0.510142
0.13949
0.637345
1.61991
0.680333
0.683769
0.548582
0
0.525257
0.546573
0.834549
0
0.248969
0
0.683061
0.603428
0.405761
0.718267
0.507748
0
0.860327
0.817802
1.13067
1.7876
0
0
0.944991
0
1.17503
0.753649
0.503591
0.790563
1.03361
0
0
0.61326
0.638257
0.828219
0.758023
0.549543
0
0
0.510278
0
0
0
0.745196
1.21161
1.03313
0.972187
0.385016
0.519677
0
0.578052
0.115009
0.869073
0.583958
0.679563
0
1.10507
0.991504
0
0.403399
0.773784
0.823028
1.20464
1.43488
1.53908
1.29494
1.40058
0.505865
0
0.61026
0.468135
0
0.615681
0
0.41022
1.05559
1.2683
1.23482
0.630692
0.672123
0.618738
0.119261
0.466213
0.426279
0.694611
1.68617
0.456741
0.481715
0.364232
1.88829
0.73531
1.28506
0.543083
0.763636
0.875772
0.691727
0.683439
1.05047
0.470174
0.288522
0.250668
0.6234
0.733256
0.801384
0
1.14215
0.888407
0.375105
0.635932
0.688942
0.510273
0
0.673495
0
0.345572
0.356192
0.0636049
0
0
0.507914
1.38464
0
0
0
0
0
1.27792
0.732629
0
0.673848
0.95517
0.775308
1.9773
0
1.4753
0.505861
1.54273
1.2844
1.0496
0.540579
0.593408
0.521505
0.597862
0.434847
0.740307
0.275119
0.655064
0.432775
0
0.468083
0.536897
1.07628
0
0.992696
0.713546
0.846112
0.317539
0.458134
0.452076
0
0.17241
0.627099
1.36863
0.725854
0.933239
0.65318
0.404275
0.389463
0
0.598969
0
0.572562
0.847887
0.504538
0.669642
0
0.410206
0
0.767416
0.452964
0
0.365633
0
0.722318
1.06335
0.697869
0.289443
0.590772
0
0.871044
0.576668
0.500999
1.0935
0
1.05635
0
0
0
0.367175
0.822076
0.374829
0
1.10409
0
0.409205
0.282925
0.383902
0.579187
0.430104
0.199378
0.271446
0
0.809888
0.592536
0.513662
0.707318
1.12025
2.30363
0.653688
0
0
0.519344
1.30985
0.905202
0.523769
0.758824
0.652274
0.363174
0.587019
0.431816
0.840737
0.383613
0
0.563262
0
1.14746
0
0.730347
0.442801
1.01182
1.00988
1.04985
0.478821
1.37688
0
0
0.156384
0.402349
0.767288
0.562092
0
0.286985
0
0.600962
0.675214
0.684282
1.34988
0.224639
0.268166
1.0316
0.678069
1.12167
1.79287
1.15767
0.916328
0.461383
0.675479
0
0.283074
0.686542
0
0.492319
0.378132
0
0
0.329627
0
0.37465
0.742956
1.11449
0.578947
0.344932
0.506409
0.552393
1.10552
0.585407
0.542474
0.679663
0.552801
0.359457
1.23533
0
0
0.751444
1.00963
0
0
0
0
0
0
0
0
0
0
0
0
0
0
0
0
0
0
0
0
0
0
0
0
0
0
0
0
0
0
0
0
0
0
0
0
0
0
0
0
0
0
0
0
0
0
0
0
0
0
0
0
0
0
0
0
0
0
0
0
0
0
0
0
0.363408
0.636889
0
0.437098
0.401159
0
0.428265
1.65368
0.410765
0.461321
0.77796
0.817617
0.636773
2.12296
0.420628
1.58679
0.387601
0.393122
0
0.598891
0.525416
0
0.774487
1.25376
0.501772
0.485565
0
0.287732
0.590078
1.55757
0.718929
0.681589
0.184706
0.833272
0
0.581776
1.75449
0
0.196029
1.38366
0.676298
0.286599
1.17119
1.56786
0.357269
0
1.49679
0.611208
0.231952
0.938168
0
0.153438
1.31403
0.480607
0.428173
1.0448
0.953723
0.539165
0
0.591359
0.173064
0
1.81503
0.997302
0.683927
1.51548
1.72933
0.560181
0.284086
0.599855
0.451596
0.886313
1.74465
0.977094
1.07116
0.26902
1.03505
0.980166
0.686913
0
0.449852
0.412219
0.740927
0
0.577722
0.323421
0
0.503779
0.353266
1.6382
0.584551
0.737866
1.16199
0
0.374346
0.673998
0.568833
0
0.590606
1.14671
0.986256
0
0.709772
0
0
0.565939
0.585758
0.673585
0.481308
1.01536
0.393226
0.465929
0.531013
0.425035
0
0
0.590126
0
0
0.518212
0
0.883545
0.742753
0.304607
0
0
0.831424
0
1.25832
0
0.840591
1.22255
0.907454
0.542237
0.774479
0.4649
0.904384
0.476297
0
1.01545
0.950425
0.599574
0.704523
0.246381
0
0.195083
0
0.874996
0
0.814011
0.661827
1.46983
2.06113
1.3398
0.715415
1.43304
1.17141
1.23507
0.426519
1.14458
0.592474
0
0
1.2148
0
0
0.358095
0.739995
0
0.296799
0.647502
0.640974
0.445035
0
0.386288
0
0.53583
0
0
0.431012
0.219407
0.361314
0.783434
1.15294
0
0.616129
0.809357
0
0.881912
0
0.82609
0.214655
0.588659
1.43748
0
0.390663
0
0.873909
0.900116
0
0
0
1.23567
0.718298
0.674766
0.461419
0.447625
0.51622
0
0.514842
0.690975
0.688685
0.186424
0
0.97026
0.336884
0
0.351056
0.875571
1.09449
0.702674
1.43856
0
0.305718
0
0.841956
0.517441
1.48533
1.0645
0.397909
0.555436
0
0.324499
0
0
2.27266
0.951978
0.518828
0.829758
0.602482
0.450627
0.418822
2.01478
0.557851
0.928239
0.374667
0.582635
0
1.28235
0.737264
0.855537
0.597824
0.952658
1.02358
1.2691
0
0.516667
0.129889
0.428398
0
0.588969
0.405803
0
0.801615
0.596383
0.540604
0.965964
0.741813
0.984796
0
0
0.913866
0.415676
0.502783
0.449409
0.378138
0.597101
0.521405
0.410051
0.439932
0.232924
0.614295
1.13097
0.84257
0
1.19447
1.15551
0
0.872826
0
0.534096
0
0.548258
0
0.39118
0.618659
0.423337
0
0.854012
0
0
0
0.680834
0
0.7591
0
0
1.14542
1.00377
0.785586
0.754521
0
0.449719
0.80862
1.30369
0.466673
0.575213
0
0
1.12811
0.744846
0
0
0.452682
0.336741
1.18273
0.494375
2.05027
0.22485
0
0.831426
0
1.28804
0
0.606068
0.797122
0.722841
0.773724
0.20442
0
1.74525
0.803612
1.11185
0
1.32974
0
0.490151
0
0.650058
0
0.45544
0
0.589291
1.03747
0.973042
0.506925
0.621011
0.464859
0.734655
0
0.446081
1.22408
0.736691
0.302024
0.251604
0.367294
0
0.612331
1.16024
0.684708
0
0.636925
0.830023
0
0
0
0
0.579751
1.05928
0.520184
0.579183
0.473969
0
0.781275
0.620182
0
0.596674
0
0
0
0.890772
0
0
0
0.54308
0
0
0.899397
1.01823
0.481126
0.596041
0.612644
0
0.40385
0.532959
0.41446
1.18981
0.602128
0.476459
0.538147
0.894286
0.882848
0.366541
0.445405
0.654589
0.356118
0.504359
2.23653
0.910633
1.49692
0.423611
0.98648
2.23465
0.493343
0.608368
0.903923
0.729875
0.737959
1.10651
0
0
0.782675
0.299493
0.637992
0
0.92893
0.833435
1.01334
0.689268
0
0.521406
0
0
0.619153
0.324141
0.228605
0.481917
0.604968
0
0
1.16913
0
0
0
0.566105
0
0.247812
1.24467
0.672579
0.917029
0
0
0.393084
0.406428
0.435468
0.426212
0
0.527066
0
0.975651
0.103003
0
0.528199
1.55396
0.628565
1.2426
0.818877
0.802082
0
0.590564
0.828665
1.56634
0.397914
0.746501
0.177243
0.425441
0.746787
0.984001
0.793805
0
1.34902
0.951444
0.350725
0
0.445838
0.567347
0
0.331495
0
0.734481
0.930115
0.565563
0.726726
0.665762
0.720133
0.452062
1.20031
0.203458
0.292646
0.390007
0
0.634653
0
0
0.429207
0
0.827047
0.865651
1.48145
0.56161
0
0
0.317698
0.641978
0
0
0.81589
0
0.508219
1.07562
0
0.79687
0
0.500404
1.15598
0.539468
0.704583
0.281813
0.753494
0.453305
0.684094
0.666374
0.351957
0.404327
0.759219
0
0.519479
0.568685
0.457484
0
0.755027
0.57468
0
0.76706
0.93865
0.544072
0
0.707662
0.548375
0.268776
0.38611
0.640146
0.689497
0.319931
0.0280449
0.51594
0.608852
0.632251
0
0.550064
0
0
0.605693
0.50071
0.734551
0.959197
0.576619
0.182127
0.33911
0.714067
0.483608
0
0.543073
0
0
0.875533
0.850513
1.43252
0.257322
0.475238
0.522154
0
0
0.502687
0
0.595761
0.127884
0.679129
0
0.590189
0.93061
0
0
0.39376
0.918908
0
0
0.550905
0.642613
0.569739
0
0.401375
0.395585
0.672239
0.612398
0.66609
0.335378
0.510608
2.4453
1.05437
0.57528
0
0.877229
0
0.481358
0
1.23343
0
0.447714
0.309955
0.298523
0.849899
0
1.08566
1.23834
0.704172
0.605695
0
0.64906
0
0.253748
0.594769
0.92287
0.674549
0.565506
0.70692
0.623924
0.349199
0.383611
0.894925
0.512636
0.396534
0.449263
0.534185
0.804566
0.684839
0.833145
1.01
0.089191
1.73771
0
0.396786
0.67228
0.919802
0.744006
0
0.843071
0.550473
1.11191
0.739226
0.495858
1.25134
0.661534
0
0.665501
0.549242
0.673243
0.58321
0
0
0.267277
0.728784
0.286198
0.59296
1.08456
0.328914
0.599774
1.0023
0.657161
0
0.73535
0.30563
0.338131
0.172997
1.29194
0.712766
1.16754
0.800456
0
0.842194
0
0.389278
0.561713
0.81986
0.669251
0.154628
0.68183
0.198025
0.648601
1.27836
0.744291
0.566211
0.51097
0.263856
0.231695
0.175423
0
0.502331
0
0.485272
0.625484
0.889246
0.58032
0.861279
1.98049
0.399875
0
0.630379
0.883358
1.0061
0.599914
1.20226
0.679216
0.804976
1.09349
0
0.38836
1.41456
0.928117
0.508057
1.18886
2.1743
0.738333
0
0.479493
0
0.843446
0.475535
0.634061
0.207092
0
0
1.18598
0.620735
0.806734
0.785874
0.717498
0.362077
0
0.391688
1.02005
1.2339
0.812107
1.0659
0.759038
0.429183
0
0.940378
0.361617
0.947336
1.33252
0.618212
0.738915
0
0
1.22515
0.643542
0.596465
0.726292
0.434068
0.995169
0.147528
0.597469
0.35268
0.992667
1.36499
0.631991
0.529434
0
0.786112
0.808113
0.511918
0
1.6718
0
0.744647
0.295806
0.948889
0.660134
0.607617
0
0.720549
0
0.958299
1.38858
0
1.40974
1.65726
0.583329
0.680426
0.549916
0
1.49665
0.659927
0.785861
0.54609
0.683449
0.819231
0.648473
0.823901
0.470868
1.03275
1.43337
0.514816
0.712077
0.874334
2.25706
0.413398
0.409274
0.415759
0.480151
0.343656
0.428333
0.825529
0.880185
0.522666
0.358453
2.07481
1.24531
1.72862
0.652262
0
0.940367
0.752217
0.657835
0.744153
0.52864
0.351996
0
0
0.623604
0
0.551967
0.800487
0.705112
0.313358
0.869443
0.562342
0
0.489757
0.139924
0.475287
0.779061
0.528562
0.786435
0.537857
0.37956
1.83476
1.26678
0.62206
0.570226
0
0
0.285715
0.446344
0
1.42671
0.81084
0.426134
0.345235
0.630931
0.920928
0
0.468452
0
0.316261
0.278026
0.443045
0.702288
0.82057
0
0.761733
0
0
0
0.88374
0.681339
0.283051
0.849996
0.352245
0
0.844689
0.794859
1.25832
0.480161
0.919189
0.846493
1.03355
0.655003
0.576511
0
0.649109
0.279438
0.652432
0
0.588926
0
0
0
0.811669
0.701392
0.330306
0.512529
0.482812
0
0
0.753848
0.82746
0
0.557054
0.828422
0.990151
0.853333
1.50568
0.351816
0.45216
1.04239
2.52636
0.458195
0.676647
0.808305
0.306295
0.311767
0.892276
1.03608
0.944107
0
1.36024
0
0.587359
0.808431
1.20142
0.404438
0
0.21624
0
0.311358
0.517723
0
0.331397
0
0
0
0
0
0
0
0
0
0
0
0
0
0
0
0
0
0
0
0
0
0
0
0
0
0
0
0
0
0
0
0
0
0
0
0
0
0
0
0
0
0
0
0
0
0
0
0
0
0
0
0
0
0
0
0
0
0
0
0
0
0
0
0
0.234881
0.525198
0.280048
0.470346
0.4646
1.44007
0.840769
1.22505
0.293167
0.33552
1.88123
0.777324
0.632966
1.55965
0.442194
0.606711
0.241854
0.806636
0.363347
0.506899
0.525997
0
0.642875
1.46771
0.297498
0.646637
0
0.421916
0.529587
0
0.488211
1.32374
1.6335
0.213788
0
1.15092
0.413327
0
1.16618
1.35504
0.547
0.634842
0
0.586404
1.12457
0.43482
0.335515
0.57187
0.71459
0.645393
0
1.70345
0.468665
0
1.12072
0.512532
0.170174
0.719225
0
0.306151
0.996728
1.68561
0.257542
0.998086
0.631207
0.417793
0.933135
2.59203
0.715029
0.533126
0.462695
0.540371
0.378698
0.67651
1.1216
0
1.26399
0
1.63558
1.00569
1.2695
0.306641
0.208784
0.596511
0.463231
0.262609
0.701878
0.613656
1.22643
0.826314
0
0.650171
0.520925
0.273466
0
1.01134
0.479983
0.602015
0.558403
0.619646
0.494651
0.360856
0
0
0.686129
0
0.609407
0.24896
0.217886
0.515884
1.11004
0.54715
0.703757
1.59958
0
0.983587
0
0.674509
0.327245
0.802569
0.673863
1.08606
0
0.379853
0.76055
1.09676
0.228625
0
0.346664
0.419587
1.11336
0.606009
0.604508
0.850221
0.492448
1.39965
0
0
0.396713
1.92622
0.673724
0
0
0
0.830388
0.369853
1.05792
0.529287
0.553366
0.766761
0.456948
0.813176
0.549663
0.904802
0.29067
0.657156