<?xml version="1.0"?>
<VTKFile type="RectilinearGrid">
<RectilinearGrid WholeExtent="0 32 0 32 0 32" Origin="0 0 0" Spacing="1 1 1">
<Piece Extent="0 32 0 32 0 32">
<PointData>
</PointData>
<Coordinates>
<DataArray type="Float32" format="ascii">
0 0.524874 1.04975 1.57462 2.0995 2.62437 3.14924 3.67412 4.19899 4.72386 5.24874 5.77361 6.29849 6.82336 7.34823 7.87311 8.39798 8.92285 9.44773 9.9726 10.4975 11.0224 11.5472 12.0721 12.597 13.1218 13.6467 14.1716 14.6965 15.2213 15.7462 16.2711 16.796 
</DataArray>
<DataArray type="Float32" format="ascii">
-5.03879 -3.62163 -2.20447 -0.787311 0.629849 2.04701 3.46417 4.88133 6.29849 7.71565 9.1328 10.55 11.9671 13.3843 14.8014 16.2186 17.6358 19.0529 20.4701 21.8872 23.3044 24.7216 26.1387 27.5559 28.973 30.3902 31.8074 33.2245 34.6417 36.0588 37.476 38.8931 40.3103 
</DataArray>
<DataArray type="Float32" format="ascii">
0 0.524874 1.04975 1.57462 2.0995 2.62437 3.14924 3.67412 4.19899 4.72386 5.24874 5.77361 6.29849 6.82336 7.34823 7.87311 8.39798 8.92285 9.44773 9.9726 10.4975 11.0224 11.5472 12.0721 12.597 13.1218 13.6467 14.1716 14.6965 15.2213 15.7462 16.2711 16.796 
</DataArray>
</Coordinates>
<CellData>
<DataArray type="Float32" Name="Scalar" format="ascii">
0
0
0
0
0
0
0
0
0
0
0
0
0
0
0
0
0
0
0
0
0
0
0
0
0
0
0
0
0
0
0
0
0
0
0
0
0
0
0
0
0
0
0
0
0
0
0
0
0
0
0
0
0
0
0
0
0
0
0
0
0
0
0
0
0.128477
0.274023
0
0.239253
0.27315
0
0.279184
0.723844
0.118078
0.337134
0.269612
0.242953
0.27065
0.454049
0.318178
1.43683
0.306262
0.400915
0
0.282067
0.468351
1.03831
0.52848
1.32955
0.27096
0.431238
0
0.295177
0.223455
0
0.197316
0.601158
0.298333
0.64043
0
0.159875
1.16962
0
0.100293
0.582033
0.671236
0.333175
0
0
0.146921
0
0.861814
0.971361
0.240177
0.923103
0
0.350584
0.702148
0
0.375611
2.06744
0.907664
0.223078
0
0.498446
0.192188
0
1.2001
1.21273
0.733218
0.817407
0
0
0.525211
0
0.955131
0.31042
0.503476
0
0.490305
0.954466
1.00545
0.800856
0
0.927873
1.08463
0.714061
0.526585
0.461136
1.87887
0.925434
0
0.753064
0.426371
0.36404
0
0
0.817626
0
0.599043
0.620459
0.184149
0.902865
0
0.691093
0.352793
0.554653
1.00757
0.493805
0
0.767083
2.20013
0
0.468314
0
0
0
0.164866
0
0.968111
0.832536
0.41104
0.673172
1.61967
0
2.04698
2.03397
0.713763
0.771645
0.815278
0.719937
0.740965
0.398764
0
1.64868
0.894319
1.43369
0
0
0.680196
0.960206
0.776826
0.513186
0.872636
0.435518
0
0
0.470079
1.02849
1.23973
0.859119
0
0.639726
0.384539
0.96454
1.38853
1.38226
0.702964
1.60638
2.05875
1.01419
1.56289
0.674352
0.471158
0.241685
0
0.65058
0
0.655048
0.324017
0.711124
0.538345
0.642025
1.09444
0
0
0.411091
1.13512
0.469477
0.597421
0.343958
0.241854
1.16681
0.752416
0.78533
0.959764
0.717408
0
1.34865
2.163
0.53294
0
1.01529
0
0.612261
1.0538
0.844118
0
0.759523
0.585725
0.697718
0
1.43327
0.592065
0
0.716352
0.353255
0.880039
2.7199
1.7029
0.62196
0
0.579712
0.688332
0.522265
0.78659
0.0749811
0.562224
0.471331
0.642127
0
0.837533
0.174926
0.573047
1.52101
0.481833
0
0.498007
0
1.20516
0
0.363175
0
0.498508
0.863834
0.306258
0.229914
0.106866
0.510421
0
1.38611
0
0.644106
0
0.477971
0.422678
1.0347
0.980301
0.621672
1.17317
0.82817
0.0578149
0
0
0.470986
0.650364
0
0
0
0.526549
0.3825
0.87513
0.718074
0.692297
0.216036
0.672278
1.45256
0.312871
0.466401
0.433825
0
1.00624
0.755002
0
0.581867
0.922599
1.62749
0.467641
0.143358
0.393244
0
0.736286
0
0
0.94111
0.944342
0
0.896793
0
0
0.751612
0.508502
0
0.508399
0
0.948141
0.661647
0.317671
0
0.593617
0.63179
0.466588
0.43145
0
0.867398
0.381492
0
0
0.774206
0.506258
0
0.575812
0.950219
1.5098
0
0.899928
0.380535
0.376
0.589155
0.253312
0.352898
0.420455
0.735671
0.469684
0
0
0.697445
0.899489
0.779774
0.799895
0.606705
0.769864
0.489728
0.210385
0.55239
0.140396
1.12445
0
0
0.772221
0.715601
1.6846
0.891362
1.76449
1.12209
0
0
0.68528
0.607207
1.46173
0.347977
0
0.685033
0.743209
0.380317
1.00679
0.202693
0.594556
0.631121
1.0171
0
0
0.507033
0.486659
0
0.219685
0
0
1.51118
1.18201
0.67845
0.8517
1.25533
0
1.48613
0
1.15741
0.826807
0.589946
0.800113
0.504928
1.22962
0.627093
0.266465
0
0.205184
1.01977
0.428913
0
0.784398
0
0
0.829411
0
0
0.721687
0.48945
0.487464
0.673476
0.399137
0
0.832261
0
1.15402
0.815251
0.634385
0.684979
0.7612
0.695105
0.33313
0.635824
0
1.12942
0.737184
1.21255
0.444621
0.447281
0
0.2702
0
1.37198
0.782999
0
0.6773
1.22454
0.590009
0.936325
0.58863
0.754684
0.729348
0
0.535262
0
1.03272
0.747841
1.08023
0
0
0.629474
0.447998
0.93141
0
0.703511
0
1.28325
0.702734
0.695071
0
0
0.373775
0.729349
0
0
0.839285
0.36435
0
0.615695
0.612389
0.363992
0
0
0.643685
0.414069
0.669962
0
1.21546
0
0
0.816423
0.477952
0.803845
0.966125
1.57509
3.86316
2.77162
0.639643
0.581757
0
0.48242
0.414616
0.920381
1.24317
0.923157
0
0.502208
0.659823
0
0.982439
0.482498
0.832927
0
0.32874
0.637979
1.21765
0.664651
0
0.615743
1.05104
0.423207
0.592754
0
0.219866
0.764412
0
0.349762
0.277759
0.712229
0
0
0.371443
0.44103
0.715896
0.709252
0
0.709042
0.62125
0
0
0.733415
0.222761
0.562734
0.392818
0.762988
0.541242
0.596867
0.575938
0.503994
0
0.634902
0.260965
0.616197
0.659154
0.59584
0.379869
0.457199
0.323557
0
0.415643
0.402651
0.681718
0.334981
0.499982
0.965619
0.444931
2.14727
0.458165
0.945221
0.177423
0.409673
0.708655
0
0.703821
0.544062
0
0.699004
0.718289
1.82903
0
0.863432
0.27416
0.761397
0
0.335261
0.264821
0.578137
0.365125
0.231269
0.52443
0
0
0
0
0.408849
0.504766
0.752758
0
0
0.809886
0.72261
0.641145
0
0.30207
1.31047
1.04354
0.696226
0
0
0.842514
0.687802
0.951451
0.420978
0.305356
0.302336
0.630172
0.992297
0.459036
0.352164
0.291817
0.602649
1.09741
0
0.514634
0.665261
0
0
0
0.45784
0.478419
0.545366
1.22116
0.886859
0
0.189007
0
0
0.0485124
0.509351
0
0.687844
0.263442
1.11581
0
0
0
1.40024
0
0.0346944
0
0.580517
0.627267
0.540444
0.726914
0
0.573135
0.247994
0.119129
0
0.814447
0.478589
0
0.340105
0.500998
0.295937
0
1.273
0.705651
0.902187
0.67387
0.690557
0.66081
0.819505
0.907881
0
0
0.441809
0.879691
0.703669
0
0
0.454291
0
0.777685
0.378231
0.805194
0.563391
0
0.437555
0
0.997644
1.49116
2.03946
2.00793
0.525372
0.527587
0
0.846954
0.810864
0
0.739234
0.602506
0
0.830721
0
0.506367
0
0.513181
0.370392
0.630056
0
0.468103
0.485696
0.627366
0.316929
0.236185
0
0
0.477774
0.11136
0.536714
0.84594
0
0
1.61294
0.794588
0.71415
0.32748
0.155338
0.420572
1.10318
0.420492
0
0.556177
0
0
1.62673
0.751264
0.793054
0.801219
0
0
1.24398
0
0.997902
0.981963
0.852959
0.363208
0.685893
1.66862
0.94742
0
1.08346
0.123945
0.68395
0.508525
0.598358
0.685527
0.708282
0.505227
0.637498
0
0
0.482363
0
1.29745
0.50967
0.373188
1.2701
0
0.684642
0.46148
0.393922
0
0.442448
0.487719
0.554595
0
2.77782
1.48653
0.816985
0.387923
0
0
0
0.48335
0.260895
0.390054
0
0.609014
0
0.835586
0
0.989892
0
0.487838
0
0
0.537276
0.131245
0.760922
0
0.382448
0.836927
0.706484
0.81078
0.611364
1.84185
0.806266
0.475824
0.383522
0
0.643814
0
0.702289
0.323462
0.365694
0.51658
0.700724
0
0.380157
1.05608
0
0.629516
0.481516
0.243262
0.21806
0.735764
0
0.704201
0.580262
0.0279725
0.542081
0.323404
0
0.606008
0.675525
0.428135
0.087132
0.193633
0.603726
0
0.434959
0
0.57215
1.22449
0.818739
0.49783
0.807024
0
0.701661
0.676198
0.523866
1.00911
0
0.286161
0.747324
0.667748
0.638983
0.820484
0.617567
0.344101
0
0
0
1.2119
0.7304
1.12255
0
0
0.51878
0.0159751
1.23561
0.44538
0.560656
0.487097
0.275182
0.612863
0
0.450989
0.667286
0.483581
0
0.845352
0.365713
0
0
0.684101
0
0
0.635599
0.692911
0.454739
0.415672
0.299252
0.82222
0
0.735407
0.384186
0.786598
0.312972
0.762482
0
0.32294
0.510684
1.5212
0
0.131234
0.676167
0.311803
0
0.144655
0.317476
0.633427
0.358751
0.615373
0.342321
0.623291
0.355186
0.625289
0
0
0.246855
0.507567
0.688507
0
0
0.451159
0.874121
0.630787
0.503827
0
0.943822
0.416399
0.487645
0.597907
0.552915
0
0.794843
1.07593
0
0.640862
1.15288
0.447064
0.327151
0.513607
0.343165
0.895331
0.6864
0.397816
0.393662
0
0.254132
0
0
0.298734
0.762138
0.481588
0.458312
0.400617
0.439118
0.0644354
0.390805
0.766645
0.643587
0.533672
0.441103
0.643749
0.945655
0.13729
0.236588
0
0.407068
0.262044
0.244507
0.732605
0.816794
0.470556
0.373717
0.710668
0.644416
0.588013
0.613884
1.6583
0.480645
0.707478
0
0
0
0
0
0
0
0
0
0
0
0
0
0
0
0
0
0
0
0
0
0
0
0
0
0
0
0
0
0
0
0
0
0
0
0
0
0
0
0
0
0
0
0
0
0
0
0
0
0
0
0
0
0
0
0
0
0
0
0
0
0
0
0
0
0.448535
0.323044
0.488675
0.490698
0.688883
0.567328
0.531755
0.752544
0.369355
0.459242
0
0.426267
0.392384
0.627629
0.691787
1.64891
0.315915
0.618956
0
0.507569
0.33136
1.25797
0.551104
1.29654
0.457556
0.657065
0.501
0.676248
0.412823
0
0.556239
1.57103
3.60056
0.330049
0.742991
1.48452
0.527177
0.410565
0.511254
0.925388
0.250857
0.806601
0.353316
0.453526
0.973382
0.549016
0.407733
0.93344
0.450629
0.73521
0
1.44084
0.942538
1.1693
0.212151
1.4987
0.503014
1.01122
0.737022
0.587783
1.55289
0
0.363865
0.851966
1.1126
1.2906
0.685162
0.955032
0.724374
0
0.447543
0
0.58217
1.14906
1.43981
0
0.660232
0.742154
0.389584
1.08292
0
0
1.18124
0.277998
0.903483
0.987927
0.856006
0.850476
0
0.770822
0.873084
0.643999
0.912144
0.661474
0.485306
0.991211
0
0.502965
1.04278
0.949465
1.23021
0
2.87524
2.01829
1.03585
0
1.29618
0.900147
0.437393
0.400761
0.663093
0.460419
0.487974
0
1.03152
0.107786
1.87792
0.81561
0
0.799874
1.42172
0.452783
0.550887
0
0.453634
0.516652
0.643913
1.2109
0.764801
1.16094
0.57243
0.499569
0
0.413207
0.402236
0
0.581764
0
0.818304
0.939208
0.670882
0.47807
0.720695
0
0
0.445262
0.152839
0.600857
1.41986
0.963062
0
0.559065
0
0.354841
0
1.17031
1.02285
1.3075
0.699829
1.85376
0.75396
0.976515
0
1.0252
0
0.505458
0
2.55441
0.449766
1.28306
1.59413
0.748611
0.647723
1.20924
0.515285
0.664861
0.62215
0.581224
0.434727
1.00333
0.706575
0.662764
1.22639
0.49871
2.45961
0
0.655055
0.781227
0
0
0.464023
0.469898
0.72783
0.90589
0.402122
0.139506
1.18534
1.21554
0
0.308502
0
0.496065
0
0.356412
0
1.11704
0.654786
0.666747
0.71094
0
0
0.625606
1.45306
0
0.360342
0
0.725258
0
0.233239
0.594988
0.645975
0.658785
0
0.55023
0.359833
0.26203
0.450874
0.837278
0.65483
0
0
0.688857
0.679128
0
2.854
0.61227
0.704266
0
0.378784
1.36394
0
0.610123
1.62878
0.680939
1.5476
0.350445
0.557605
0.832437
0.376412
0.3429
0.583818
1.29605
0.625046
0
0.447196
1.63586
0
0.456676
0
0.365726
0.141449
0.683592
0
0
0.77175
1.12803
0.727613
0
0.382579
0
0.985746
0
0.437902
0
0.683656
0.774787
0.961802
0.334735
0.476776
0.789982
1.40409
0.496018
0
0.78295
0
0.42135
0.61706
0.405505
0.545378
0.540444
0
0
0.720168
1.0698
0.494573
0.900884
0
0.805404
0.661105
0.296031
0.461568
0.510686
0.541035
0.431652
0.559386
0
0.440166
0.435155
0.441423
1.61384
0.65601
0
0
0.628881
0.549685
0.577588
0.419405
0.430228
0.876371
0.534342
0.710818
0.400602
0
0
0.543555
0.731069
0.743857
0.658855
0
0.382091
0.0720694
0
0.513659
0.555458
0
0.991903
0.229765
0
0.615082
1.91862
0.701798
0.811981
0.786462
0.59186
0
0.398807
0
0.874008
0
2.73052
0
0.394435
0
0.740133
0.873445
0.932002
1.29639
0
0
0.70395
0.474828
0
0.463039
0.730041
0.728784
0.559839
1.13457
0.783558
0.546911
0.426727
1.24517
1.04111
0.158454
0.396214
0.688401
0.897036
0.623832
0.56735
0.545584
0.445342
0.552359
0.633143
1.08441
0.492549
1.03853
0.503122
0.296594
0.709102
0.649847
0.495908
0.649817
0
0.58554
1.83743
0.480696
0.687342
0.552606
0.540406
0.712227
1.15922
0.760002
0.497935
1.2198
0.939887
0
1.0254
0.90426
0.681534
0
0
0
0.16915
1.25543
0
0.66233
0
0.290401
0
0
0
0.748093
0
0.239213
0
0.555879
0
0.415606
0.521505
0.750408
0.711232
0.885579
0.785716
2.34046
0.722102
0.567912
0.346567
0
0.59225
0.488212
0.589467
0.687963
0.445299
0.880309
0.582117
0.752178
0.332515
0.732891
0
0
0.707897
0.467024
0
0.612223
0
0.826683
0.776572
0.342723
1.02469
0.355781
0.898566
1.10584
0.839149
0.649222
0.273968
0.529164
0.717068
0.483475
1.09896
1.06756
2.21998
0
0.83417
0
0.520382
0
0
0.777142
1.07213
0.484336
0.299821
0
0
0
0
0
0.409277
0.408352
0.508675
0.722532
0
0
0.787796
0.641988
0
0
0.699774
1.44715
0.6251
0.345187
0.502844
0
1.0337
0.382502
0.438329
0.591437
0.897914
0.793124
0.704148
0.709677
0.875428
0
0.458147
0
0.568098
0.99252
0
0
0.817199
0.496533
0
0.809917
0.251681
0.413088
0.336614
0.186209
0.805224
0.479299
0
0.477146
0.939075
0.591746
0.252319
0.607702
0.467459
0.351593
0.916907
0
1.41
0.225188
1.38015
0.745062
0
0.41075
0.44114
0
0.553468
0.329213
0.72754
0.4046
1.63521
1.52798
0.656743
0.728901
0
1.08222
0.440654
0.636859
0.508811
0.307257
0
0.179246
0
0.481599
0.569594
0.943958
0.873483
0.469067
0.627108
0.388175
0.700469
0
0.499333
0.739469
1.19321
0.683054
1.10285
0.342372
0.506972
0.801557
0.250316
0.644296
0
0.0779479
0.473156
0.676833
0.344557
0.542367
1.21377
0
0
0.881467
0
0.666387
0
1.05472
0.349536
0.236668
0.142874
0.348155
0.470233
0.77376
0.490734
0.0861975
0.247684
0.532
0.652398
0.339092
0.252041
0
0.301736
0.453702
0
0.429499
0
0
0.730185
1.47152
0.61588
0.613053
0.803111
0.933871
1.02475
0.737784
0.865981
0
0.856169
0.891822
0.662347
0
0.589043
0.478672
0.372073
0.63637
0.588641
0
0.316192
0
0.592399
1.14912
0.401222
0
0.563902
0.523242
0
1.09743
0.497949
1.11087
0.81615
0
0
0.72137
0.5328
0.75866
0.308506
0.365907
0.789036
0.618974
0.481627
1.48942
0.311602
0.478429
0.405862
0.556583
0.711633
0.554588
0
0.284928
0.720073
0
0.622783
0.70566
0.803329
0
0.691503
0.418599
0
0.662962
0
0
0.128433
0
0
0.111712
0.467489
0.828116
0.645572
0
0
0
0.62328
0.298228
0
0.849188
1.37108
1.0726
0.628437
0.720974
0
0.664488
0
1.14197
0
0.193148
0.608213
0.818119
0.398192
0.70276
0
0.707144
0
0.628139
0
0.182529
0.798204
0
0.65781
0.668971
0.646714
0.655454
2.41637
0.689614
0
1.14855
0.633985
0.521824
0.859237
0.513287
1.51144
0.812545
0.408903
1.06479
0.794526
1.47116
0.821258
0.546853
0
0.614668
0.478258
0.280405
0.334125
0.363161
0.936539
0
0.555552
0.197534
0.456618
0.633433
0
1.18725
1.19979
0
0.967881
0.905316
0.263122
0.372805
0
0.783757
0
0.515368
0.370974
0.502565
0
0.576161
0
0.592273
0
0.558751
0
0
0.152284
0.30923
0.458106
0.379036
0.736237
0
0.369165
0
0.305956
0
0.515763
0.298996
0
0.470722
0.772054
0.251406
1.3513
0.840913
0.586466
0.409813
0.617948
0.50765
0
0.403023
0
0.376755
0.173083
0.717257
0
0.608698
0
0.974124
0.674843
1.44295
0.808799
0.597257
0.827796
0.253214
0.478857
0
0
0.198938
0.484509
0
0
0.506694
0
0.751219
0
0
0
1.03909
0.603747
0.333082
0.169659
0
0
0.732017
0.627816
0.852336
0.580176
0.693718
0.315252
0.466603
0
0.338687
0.600799
0.649953
0.715225
0.560774
0.522477
0.496819
0.949429
0
0.516702
0.476689
0.753767
0.309392
0.617751
1.71643
0
0.424361
0.59969
0.306029
0
0
1.57726
0.562692
0
0.596964
0.718699
0.640258
0.828457
0.551239
0
0.846563
0.807002
0.264306
0
0.607981
0
0.741085
0
0.620758
0.535096
1.25203
0.537868
0
0.612351
0.439424
1.02746
0.676255
0
0
0
0.728135
0
0.84025
0.347183
0
0.63189
0.632362
0.558211
1.46526
0.511125
0.573329
0.57706
0
0.371196
0.368199
0
0
0.273923
0
0.438293
0.677693
0.839898
0.334046
0.520809
0.34976
0.99061
0.625937
0.966545
0.266258
0.499189
0.324993
0.359017
0.319848
0.478474
0.512456
0.409418
0.476724
0.689783
0.77791
0
0
0.441482
0
0.402221
0.445082
0.465342
0.342699
0.428042
0.53627
0.484961
0.870407
0.594493
1.21893
0.54517
0.787341
0
1.14254
0.496677
0.513613
1.0321
0.848424
0.272053
0.269111
0.344154
0
1.14099
0
0.433429
0.509509
0.523653
0.393436
0.711014
0.844962
0.584723
0.775137
0.289859
0
0
0
0
0
0
0
0
0
0
0
0
0
0
0
0
0
0
0
0
0
0
0
0
0
0
0
0
0
0
0
0
0
0
0
0
0
0
0
0
0
0
0
0
0
0
0
0
0
0
0
0
0
0
0
0
0
0
0
0
0
0
0
0
0
0
0
2.09857
0
0
0.74804
0
0
0
0
0
0
0
1.34396
0
0
0
0
0
0
0
0.306514
0
0
1.83761
0
0
0.390697
0
0
0.819016
0
0
0
0.136547
0
0
0
0
0
0
0
0
0
0
0
0
1.41223
0
0
0
0
0
0.180234
0
0
0
0
1.25705
2.20198
0
0
0
0.619537
1.29012
1.34209
1.29518
0.809268
1.3385
0.566991
0.403644
0
0.207958
0
0
0.801229
1.04638
0.901014
1.31944
0
0.846961
0
0.44214
0.450061
0
0.543925
0.915447
0.577801
0.945135
1.98637
0.648087
0.688083
0.179847
0.758277
0
1.33244
0.417925
1.69013
0
0.340374
0.470938
0.587935
0.367547
0.594681
0
0
0.391438
0.676077
1.0077
0.373837
0
0.631015
2.81429
0.540947
0.832428
0.914771
0.320639
1.38278
0.384456
0.457284
0.721356
0
0.429013
1.13954
3.47911
0
1.0415
0
1.3794
1.75386
0
0
0.34886
0.409905
1.17967
2.11454
0
0.643531
0.513595
1.72264
0.775677
0.697962
0.779306
0.380608
1.00106
1.0787
0.492345
0.425923
0.262645
0.53525
0
0
1.24066
0
0.713735
0.558632
0.270117
1.49489
1.15995
0.763629
0.823215
0.522842
0
0.734999
0
0.820497
0.409709
0.395223
1.0426
0.435463
0
0.81419
0.878423
0
0
0
0.473173
0.585688
0.411235
0.91943
1.00234
0.580151
0.784124
0.839081
0
1.56397
0
0.582846
0
1.06912
0.343956
0.725135
0
0.39949
0.216861
0
0.629139
0.662096
0
0
0.469027
0
0.69278
0.882985
1.17007
0.183275
0
1.47946
0.53961
1.19166
0.402535
1.53634
0.538311
0.488941
0.756449
0.479706
0
0.546359
0.689414
0.340732
0
1.00251
0.676195
0.289337
1.42326
1.12721
0.853489
0
0.429784
0.641929
0.709157
0
0
1.07995
0
0.75381
2.03902
1.96741
0
0.517496
0.908566
0.681278
1.01245
0.996513
0.463668
0.0932671
0.448291
0.774638
0
0.502468
0.459894
0
0.219113
0.611332
0
0
0.747584
0
0.500541
0
0.741508
0.829934
0.936281
0.639216
0
0
0
0.428115
0
1.20748
0.779792
0
0.303147
0.839998
0.269851
0
1.07872
0.399559
0.537342
0
0
0
0
0.232677
0.692946
0.342637
1.39597
0
0.638297
0.770263
1.06729
1.08668
0.472103
1.4269
0.482093
0.800374
0.573218
0
0.970484
0.52012
0
0
0.853111
0
0.50333
0.625509
0.518699
0.807563
0
0.532321
0.629695
0.48132
0.784916
0.672003
0
0.807157
0.836735
0.620582
0.326447
0.683381
0.705956
0.815451
0.891974
0.215539
0.39055
1.05058
1.34036
0.782756
0.6493
0
0
0
0
0.501311
0
0.396177
1.5121
1.19065
0
0.75549
1.66692
0.486238
0.714534
0.601765
0.650423
1.15119
0.920632
0.897026
1.35806
0.923932
0.33049
0.516352
0.261423
0.776001
0.545011
0
0.443689
0.529715
0.481174
0
0.602364
0
0.702942
1.02955
0.456181
0
0.160871
1.28277
1.00439
1.84327
0
0.321177
0.367055
0.670538
0
1.42933
0.581495
0
0.400531
1.01384
0.325069
0
0.172733
0.166272
1.52633
0.692806
0
0
0.54126
0
0.467832
0
0.749261
0.447997
0
0.273312
0.495047
0.663172
0.63961
1.04481
1.08118
1.24928
0.856087
0.182636
0.480605
0.582839
0.585578
0.719116
0.763197
0.395494
0
0.58401
0
0
0.631495
0.179966
0.377094
0.466002
0.583042
0.982871
0.532484
0.97755
0.703331
0.414101
0
0
0.419927
0
0.698704
0
0
0
0
0.463885
0
0.793779
0.531925
0.526894
0.318097
0.996989
0.879943
0.0549091
0.553952
0.607876
0.869304
0
0.327236
0.462202
0
0.463204
0
0.573645
0
0
0.467675
0.50122
0.649815
0.364813
1.05222
0.951457
0.446585
1.59439
0.312639
0.323891
0.450433
0.423689
0.425805
0
1.36171
0.864004
1.07868
1.57632
0.490079
0.931481
0.807594
0.610432
0.523822
0.685683
0.240498
0.548276
0.568201
0
0.56984
0.236213
0.304126
0.465189
0.531981
0.296851
0.309729
0.679277
0
0.863702
0.997124
0
0.525243
0
0.661161
0.946188
0.812929
0.499815
0.948663
0.776909
0
0.943889
0.69639
0.43818
0.846246
0.545427
1.02139
0
0.0597056
0.655529
0.941997
0.515894
0.406632
0.587218
0
0.432512
0
0.291782
0.519743
0.89214
0
0
0.531392
0.340698
0.242744
0.636641
0.65136
1.21666
1.61754
0
0.497793
0.390969
0.582304
0.374564
0.740288
0
0.255433
1.25474
1.25226
0.376707
0.688325
0.71463
0
0.297027
0
0.547043
0.762177
0.37449
1.02916
0
1.11359
0
0.88238
0
0.462169
1.02902
0.538709
0.81651
0.41403
1.00705
0.978626
0
0
0
0.544208
0.533797
0
0
0.493465
0.77655
0.580456
0.589814
0.58496
0
0.423498
0
0.332247
0
0.390527
0.678926
0
1.21447
0.536376
0.772483
0.244501
0.569246
1.75451
0.391904
0
0.387832
0.424345
0.519103
0
0.377133
0.163046
0.324798
0.513143
1.13713
0
0
0.423632
1.48645
0.979324
0
0
0.412267
0
0.960736
0.444557
0.433124
1.85839
1.40379
0.679589
0
0.549253
0.32547
0.27096
0
0.70812
1.031
0.361959
0.493699
0
0
0
0.833843
0.907603
0.949962
0
0.518969
0.550085
0.521122
0.151002
0.666029
0.233737
0.471502
0.476902
0.482084
0.496423
0.555479
0.253863
0.499502
0.954143
0
0.970351
0.827367
0.518779
0.616066
0
0.977494
0
0.923834
1.37652
0.846914
0.666954
0
0.782796
0.726296
0.386846
0
0.228409
0.455481
0.295986
0.975356
0
0.762629
0.280905
0
0.74763
0
0.4168
0
0.50829
0
0.361148
0.679222
0.340638
0.856007
0.82971
0
0
1.86089
0.503562
0
0.749733
0.507422
0.573555
0.897748
1.00745
0
0
0.653462
0
1.62771
0
1.57517
0
0
0.834032
0.527367
0.580056
0.381782
0
0
0.432299
0.506417
0.84444
0.668811
0.565706
0.39483
0.356563
0
0.484835
1.15822
0.462692
1.1331
1.91268
0.71543
0.40658
0
0
1.58749
0
0.65284
0
0.460142
1.06841
0.892688
0.880799
0.524581
0.920031
0
0.224672
0
0.591471
1.47676
0
0
0.605769
0
0
0.393662
0
0.480894
1.24183
0.30812
1.57778
0.878116
1.49214
0.840056
0.332825
0
0.513585
0
0.555527
0
0.277572
0.725978
0.53348
0.296364
0.608204
0.555334
0.27807
0.479253
0.430004
0.579824
0.351238
1.08296
0.417528
0
0.378192
0
0.557944
0
0.713255
0
0.455656
0.589937
0.515109
0
0.898673
0.581668
0.534641
0
0
0
0.577951
0
0.299261
0
0.390827
0.557068
0.604526
0.897516
0
0.298856
0.307819
0.59801
2.02941
0.71856
1.17257
0
0.409019
0.516429
0.390116
0.63703
0.516321
0.621887
0
0.844942
0
0.549017
0
0.409399
0
0.457872
1.10571
0.455798
0
0
0.42074
0.593015
0.767175
0
0
0.941231
0.43446
0.476363
0
0.524819
0.457805
0.661021
1.11071
0.835099
0.639721
0.775934
1.25487
0.319563
0
0.711373
0.677998
0.58173
0.293844
1.21527
0.840678
0.511243
0.457224
0.18049
0.799689
0.452096
0.33234
0.452456
0.461805
0
0.392513
0.938533
0.758681
0.392377
0
1.05923
0.678175
0.621949
0.892113
0
0.378118
0
0.446373
1.71749
0.446159
0.461149
0
0.760014
0.541408
0.576281
0
0
0.410298
0.529497
0.464916
0
0.438346
0
0.36832
0.585777
0
0.651559
0.721325
0
0.631259
0.503235
1.08355
0
0.780766
0
0.357482
0
0.291583
0
0.880267
0
0.503058
0
0.586522
0
0
0.855455
1.26044
0
0.672228
0.44463
0
0
0.413883
0.64022
0.37904
0.280268
0.64166
0
0.583431
0.644001
0.39768
0.314751
0.344726
0.60819
0.431185
0
0.465451
0.207221
0.6589
0.280971
0.922622
0.930806
0
0.511698
0
0.227661
0.372723
0.666518
0.481698
0
0.769921
0.804461
0.426885
0.457263
0.163943
0.69259
0.598821
0.524566
0.608855
0.835946
0.879548
0.556986
0.569483
0
0.594816
0.685695
0.538763
0
0
0
0
0
0
0
0
0
0
0
0
0
0
0
0
0
0
0
0
0
0
0
0
0
0
0
0
0
0
0
0
0
0
0
0
0
0
0
0
0
0
0
0
0
0
0
0
0
0
0
0
0
0
0
0
0
0
0
0
0
0
0
0
0.250411
0.419926
0.676126
0.426609
0.517244
1.0685
0.947845
0.645239
0.173808
0.499835
1.02318
0.750234
0.489249
0.499343
0.804404
0.909611
0.333185
0.443032
0
0.431024
0.474932
0
0.467577
1.11572
0.25099
0.743884
0
0.329481
0.406154
0
0.446192
0.841133
0.306917
0.773844
0
0.560626
0.400889
0.177499
0.195899
1.15193
1.15945
0.370101
0
0.774655
0.147548
0
1.10425
1.20899
0.34217
0.98076
0
0.13903
0.497704
0
0.571653
0.7006
0.996397
0.175257
0
1.10788
0.836675
0.483536
0.628123
1.1722
0.860267
0.896302
1.1801
0
0.583164
1.09402
0.895536
0.317044
1.18037
0.837785
0.7305
0.569375
0
1.10196
0.315621
0.929321
0
1.42959
0.515606
0.420399
0.960863
0
0.887944
0
0.359048
0
0.871445
1.02522
0.839335
1.46808
0.467322
1.0225
0.991664
0.572869
1.0594
1.30415
0.719085
0
0
0
1.01762
1.02312
1.28813
1.47898
0.463594
0.93107
1.07721
0.963126
0.616654
0.690232
0.928099
0.916054
0.718354
1.13122
0.85348
0.672602
1.06189
1.22962
0.861325
0.977998
0.163404
0.755043
0.621216
0.721149
0
0.745868
0.196426
0.470976
0.306608
0.718383
0.332442
1.03466
0.965131
0.881609
0.842589
0.684528
0
1.0755
0.789814
0.980425
0.980475
0.639679
0
0.528747
0.667245
0.0905408
0
0.480483
0.955793
0.53433
0.873501
0.720832
0.766564
1.31207
2.54259
0.676427
0.306831
0
0.522918
0.275386
0.294098
0
0.385002
0
1.49459
0
0.634371
0.599862
0
0
0.671346
0.561952
0.996576
0.468507
0.827904
0.849934
0.760577
1.69673
0.385934
1.08182
0
0
0.570594
0.416011
0
0.284118
0
0.396722
0.950345
0.532513
0.402846
0.720905
1.24949
0.394168
0
0.590299
0.624994
1.05663
1.0201
0
1.78942
1.10406
0.276259
0.468249
0.564104
0.472786
1.56879
0
0.703501
0.692678
0
0
1.23705
0.675649
0.594533
0.441096
0.498195
0.451563
0
0
0.614675
0.423788
1.42569
0.639559
0.409598
0.313274
0.703858
0
0.515734
0.77727
0
1.041
0.862059
0.83312
0.656412
0.85153
0.423668
0
0.543672
0.504317
0.413441
0.361055
0.660905
0.421767
0.579711
0
0
0.177652
0.703045
0.222425
0
0.82778
0.878053
0.0593861
0.694892
0.753628
0.503333
1.05105
0
0
1.34772
0.525972
0.531603
0.822607
0
0.59616
1.54911
0
0.53585
1.25305
0
0.925514
0.818038
0.984856
0
0.561488
0.942983
0.0998928
0.790664
0
0.723492
0.386387
0.276381
0.592913
0.71579
0
0.580994
0
2.27377
0
0.854242
0.466585
0.767038
1.04819
0.52791
0.363865
0
0.521002
0.469606
1.11885
1.05365
0.595623
0
1.16382
0
0
0.341485
0.914992
0.332273
0.37666
0.514951
0.467098
0
0.248276
0.542705
0
0.618248
0
0
0
0.88255
0.672323
1.0547
0.993566
0.959625
0
0.697944
0
0.670771
0
0.817865
0
0.771411
0
0.522629
0.94708
1.34549
1.05432
0.605488
0.279663
0.824679
0.963337
0
1.80734
0
0.324754
0
0.512777
0.869551
1.47704
0.420885
0.616656
1.10259
0.422771
0.11898
2.0871
0.585824
1.79673
0
0.986564
0.114708
0.44585
0
0.704366
0.988298
1.00001
0.809195
0.504936
1.09292
0.410039
0.925116
0.426409
0.65633
0.69455
0.531287
0
1.48908
0.77989
0.447777
0.548442
0.760112
0.76583
1.36754
0.39034
0.470954
0.755328
0
0.771197
0
0.309043
0.389182
0.649788
0.477264
0.883798
0.55733
0.501844
0.415195
0
0.704864
0.520823
0.423955
0.72007
0.772033
0
0
0
0.770354
0.869963
1.47237
0.672205
0.540254
0
0
0.389286
0.575924
0
0
0.651792
0.444173
0.494986
0.814829
0.422194
0.43985
1.0358
0
0
0.503493
0.532686
0.159822
0.773223
0
0.46719
0
0.848132
0.654365
0.530365
0.616896
0.945329
0.850158
0.862289
1.01303
0.304146
0.51748
0
0
0
0.632856
0.78464
0.373367
0.547054
0
0.260518
0.499095
1.03031
0.725109
0.531588
0.628958
0.662709
0
0
0.508189
1.16551
0.93862
0.836563
1.17149
0.72131
0
0.755053
0.0775367
0.388118
0.35451
0.336203
1.24948
0.150992
0.460757
0
0.877882
0
0
0.855853
0.849783
0
1.09582
0
0.884343
0
0.882641
0
0.654057
0
0.543144
0
0.271715
0.817616
0.719407
0.467315
0
0.173173
1.20249
0.593412
1.4396
0.606527
0.629004
1.54174
0
0.959392
0.544372
0.6341
0.539218
0.634608
1.13424
0
0.60453
1.50171
0.614759
0.347622
0
0
0.60042
1.00298
0.318664
0.158956
0.179732
0.349093
0
0.661184
0
0.661272
0
0.90761
0
1.22924
0.506115
0.368887
0
0.422412
0.383713
0
0.889211
0.761306
0.562578
0.183977
0.856627
1.52956
0.355539
0.511435
0.452651
0.653523
0
1.14529
0
0.403317
0.512042
1.0644
1.03769
0
0.517626
1.1301
0
1.3925
0.496521
0.402729
0
0.597465
0
0.568435
0
0.715016
0.46041
0.499492
1.05274
0.468771
0.556272
0.800603
0
0.47945
0.496731
0
0
1.16896
0.360374
0
0.832854
0.387444
0.668815
0
0.722784
1.03037
0.358248
0
0
0.31289
1.17973
0.144546
0.854369
0.410381
0
0.984634
0.946935
0.974924
1.40624
0.451452
0.747443
0.501111
0.421136
0.454747
0.639167
0.833073
0.386087
0.551736
0.521108
0.474894
0.315957
0.93135
0.600331
0.56188
0.764363
1.57599
0.941836
0
0.476772
0
0.505791
0
0.663704
0.179924
0.493998
0.475149
1.23157
0.453083
0
0.597089
1.03259
1.24463
0.472813
0.332541
0.625982
0.636998
0.685345
0
0.264237
0
0.936675
1.07257
0.450005
0.400584
0.594596
0.720869
0.792594
1.04563
0.355015
0
0.631945
0.515676
0
0
1.351
0.509721
0
0.409183
0
0.783155
0.337295
0.541125
0
0.549321
0.806017
0
0.882578
0.371853
0
0
0
0.217232
0
1.06198
0
1.50596
0.836944
0.495236
0.673505
0.385261
0.542842
0
0
0.555966
0.550345
0.509603
0.599924
0.834408
1.06131
0.376491
0.622864
0.385821
0
1.02609
0.541331
0.783939
1.08619
0.316847
1.20344
0.672246
0.576787
0.669384
0
0.586022
0.345271
0
0
0.527208
1.08428
0.489304
0.705429
0.910381
0.410566
0.755094
1.18108
0.734961
0.490486
0
0.634794
0
0.601166
0
0.540487
0
0.574201
0
0
0
0.498995
0
0.518028
0
0.503909
0.541793
0.615397
0.308055
0.406627
0.851861
0.676674
0.841028
0
0.879973
0.695619
1.17593
0.979789
0
1.35954
0
0
0.658141
0
0.516628
0.230243
0.217556
0.567812
1.01166
0.823067
0.377278
1.08151
1.15374
0.364272
0.356698
0
0.623863
0.400574
0.681602
0.803555
0.419272
0
0.899218
0
0.45773
1.11592
0.638308
0
0.638985
0.720456
0.414131
0
0.614589
0.365304
0.885657
0.744676
0.732243
0
0.458942
0
0.585027
0.49362
0.860689
1.56218
0
0.566391
0
0.770822
1.2809
1.07504
0.775311
0
0.622876
0
1.02286
0.427741
0
0.303138
0
0.701724
0.306752
0
0.614705
0.975103
0.757764
0
0
0.383962
0.668283
0.470828
0.263954
0.53852
0.372771
0.559245
0.70149
0.766577
1.39767
0.379847
0.196727
0.969492
0
0
0.507955
0.528218
1.03762
0
0.467068
1.01702
1.17894
0.797007
0.817201
1.10921
0
1.08153
0
0.638771
0.630494
0
0.513345
0.718971
0.429299
0.561441
1.21984
0.483113
0
0
1.4209
0
1.27367
0.831568
1.1342
0.528366
0.593622
0.442326
0
0
0.390202
0
0
0
1.26018
1.38451
0.43736
0.455266
0.178008
0.84041
0.565786
0.810326
0
2.26785
0.342053
0
0.441407
0.485777
0.325896
0.600461
1.61218
0.492404
0
0
0.450884
0.862235
0.516454
0.471073
0
0.529925
0
0
0
0
0.946561
0.523017
0.468065
0
0.232822
0
0
0.326853
0.605016
0.958844
0.718023
0
0
0.741184
0.524184
0
0
0.618952
0
1.09975
0
0
0.481199
0.247048
0
0.392227
0.693286
0.556995
0.626037
0.315618
0.809317
0.71007
1.18531
0.400302
0
0.414664
0
0.706856
0.548738
0.582623
0.59773
0
0
0.151209
0.502978
0.192647
0.733105
0.365643
0.509194
0.674056
0.32311
0.348433
0.428522
0.662279
0.563056
0.35192
0.618294
0
0
0
0
0
0
0
0
0
0
0
0
0
0
0
0
0
0
0
0
0
0
0
0
0
0
0
0
0
0
0
0
0
0
0
0
0
0
0
0
0
0
0
0
0
0
0
0
0
0
0
0
0
0
0
0
0
0
0
0
0
0
0
0
0.290303
0.542715
0.055522
0.451437
0.718851
4.62285
0.537947
1.07489
0.333098
0.519357
1.73328
0.449521
0.603767
0.471134
0.494264
1.30055
0.0625358
0.62468
0
0.279566
0.700987
0.577558
0.40935
1.49635
0.416546
0.560316
2.15007
0.503712
0.46301
0.680028
0.543796
0.892443
1.27805
0.41315
0
1.35758
0.49306
0
1.11748
0.468233
0.164688
1.38708
0
0.374308
0.947487
0
0.318867
0.810017
0.678665
0.356136
0.423189
2.24364
0.181013
0
1.30998
0.487777
0.164955
1.32372
0
0.529801
1.65186
0
0.389465
0
1.20945
0
0.929185
0.700026
0.443356
0.688805
0.763259
0.985991
0.714967
1.01618
0
0
1.17901
1.24058
2.06985
0.591812
0.895147
0.722403
0.608836
0.954058
0.538446
1.65104
1.16582
0
1.02648
0.646556
1.05305
1.25608
0.535802
0.607725
0.847997
0.812266
0.708798
1.46543
0.342337
0.448385
1.19952
0.822856
0.525205
0.687181
0
0.907937
0
0.989452
0.110503
0.652203
0.979719
1.03088
0.770409
0
1.15812
0
0
1.43901
0.655574
1.01402
0
1.0071
0
2.74582
1.58835
0
0
0.518396
0.603017
0
0
0.543473
0.637963
0.763504
0.461965
0.911988
0
0
0.540642
0.661217
0.64534