<?xml version="1.0"?>
<VTKFile type="RectilinearGrid">
<RectilinearGrid WholeExtent="0 32 0 32 0 32" Origin="0 0 0" Spacing="1 1 1">
<Piece Extent="0 32 0 32 0 32">
<PointData>
</PointData>
<Coordinates>
<DataArray type="Float32" format="ascii">
0 0.524874 1.04975 1.57462 2.0995 2.62437 3.14924 3.67412 4.19899 4.72386 5.24874 5.77361 6.29849 6.82336 7.34823 7.87311 8.39798 8.92285 9.44773 9.9726 10.4975 11.0224 11.5472 12.0721 12.597 13.1218 13.6467 14.1716 14.6965 15.2213 15.7462 16.2711 16.796 
</DataArray>
<DataArray type="Float32" format="ascii">
-5.03879 -3.62163 -2.20447 -0.787311 0.629849 2.04701 3.46417 4.88133 6.29849 7.71565 9.1328 10.55 11.9671 13.3843 14.8014 16.2186 17.6358 19.0529 20.4701 21.8872 23.3044 24.7216 26.1387 27.5559 28.973 30.3902 31.8074 33.2245 34.6417 36.0588 37.476 38.8931 40.3103 
</DataArray>
<DataArray type="Float32" format="ascii">
0 0.524874 1.04975 1.57462 2.0995 2.62437 3.14924 3.67412 4.19899 4.72386 5.24874 5.77361 6.29849 6.82336 7.34823 7.87311 8.39798 8.92285 9.44773 9.9726 10.4975 11.0224 11.5472 12.0721 12.597 13.1218 13.6467 14.1716 14.6965 15.2213 15.7462 16.2711 16.796 
</DataArray>
</Coordinates>
<CellData>
<DataArray type="Float32" Name="Scalar" format="ascii">
0
0
0
0
0
0
0
0
0
0
0
0
0
0
0
0
0
0
0
0
0
0
0
0
0
0
0
0
0
0
0
0
0
0
0
0
0
0
0
0
0
0
0
0
0
0
0
0
0
0
0
0
0
0
0
0
0
0
0
0
0
0
0
0
0.173289
0.20968
0
0.197486
0.345528
0
0.287065
1.58435
0.188458
0.342886
0
0.342408
0.339106
0.927136
0.223603
1.64567
0.263909
0.229777
0.990553
0.406406
0.314785
1.1473
0.293394
0.927047
0.137756
0.342371
0.549994
0.253515
0.509112
0
0.187936
1.28507
0.167448
0.887398
1.54087
0.720235
3.40677
0
0.719616
1.21963
0.536202
0.221364
0
1.31127
0.213622
0.289039
0.935315
0.937574
0.102827
0.395067
0
0.267321
0.745547
0
0.207162
0.866006
1.63236
0.371736
0
1.50284
0.397817
0
0.323054
0.747701
1.63574
1.99828
0.953368
0.748072
1.40025
0
1.03686
0.77396
0
0
0
0.722669
0.711963
0
0.491103
0.993868
0.899725
0.577618
0
0.457096
0.59324
0.406348
0.647732
2.22498
0.923596
1.17005
0
0.644677
0
0.629549
0.999392
0.587284
0.381405
0.925687
0
1.81696
1.43371
1.1414
0.871457
1.89134
0.666714
0.109361
0.468433
0
0
0
0.569427
0
0.593652
0.762434
0
0.957334
1.61664
0.989996
0
1.91717
0
0.892098
1.94457
0.242952
0.459652
0.392606
0.844371
0
0.612424
1.9983
4.30439
1.28964
1.03888
0.915598
0.618123
2.41669
1.87928
0.743847
0
0
0.588244
0
0.669659
1.13637
0.814508
0.870578
0.921757
0
0
0.66255
0
1.23768
0
0
1.48427
0
1.23732
0.323907
0.976554
0
0.433172
0.583468
0
0.470888
0.765705
1.62148
0.384542
1.0653
0.556181
0
0.751137
0
1.3142
0.769431
0
0.563375
0
0.402317
0
0.541071
0.282514
0
0.872857
0.725273
0
0.719575
0
0.941228
1.26263
0.894054
0.933009
0.974207
0.794251
1.35453
1.59923
1.21684
0.958133
0.934246
0.970154
0.786755
1.36361
0.865256
0
0.227333
0
0.685675
0
0.639408
0
0.765803
0
0.995006
0
0.22335
0
1.91358
1.06489
0.433178
0.917652
0.459358
0
0.420043
0.599256
0.917177
0.47795
0.972362
2.09848
0
0.639057
0
0
0.57721
0.445472
0.792764
1.57826
0.52161
0.425932
1.47366
0.561914
0.782959
0.358874
0
0.816763
0.503951
0.294096
0.160735
0.289955
0.387429
0.580396
0
1.09077
0
0
0.23247
0
1.11931
0
0.546486
1.05574
0.578646
0.626371
0.518822
0
0.698036
0.317519
2.43145
0.946789
0.697528
0.592954
1.04462
0
0.318982
0
0
0.78231
0.395942
0.57676
0.295845
0.436564
0.72642
0
0.849358
0
0.894698
1.0459
0.590914
0
0
2.6551
0.839385
1.72438
0.818998
0
0.57801
0.823163
0.862311
1.2992
0.723399
0
0.542927
0
1.39976
0
0.708494
0
0.641516
0.474658
0.53776
1.06245
0.25513
0.849003
0.310397
0.242825
0.73552
0
0.454166
0.298671
0
0.337441
0.813735
3.18108
0.853825
0.469162
0.255174
0.940305
0.917121
0.84856
1.20788
0.588315
1.04835
0.709093
0.430457
0.68862
0.20681
0.0564048
0.674887
0
0.666206
0.956853
0.490658
0.632033
0
0
0.629455
1.06258
0.399887
0
0
1.20176
0.47358
0
0
0.204967
0.815602
1.35404
0.838336
0
0.668949
0.402912
0.761939
0
0.294015
0
0.607789
0
0
0.594701
1.48623
0.712681
0.792138
0.692137
1.12936
0.972392
0.605024
0.561934
0
0.508182
0
0.512253
0
0.901578
0.923034
0.291917
0.531706
0
0.693995
0.773973
1.90441
0.433351
0.488024
0.490437
0.179291
1.6516
1.23536
0
0.524523
0.497553
0.231148
0.38151
0
0.266103
0
0.48491
0.973982
0.732885
0.59692
1.26355
0.872005
0
0.682768
0.431935
0.76911
1.02621
1.12836
0
0.779462
0.370642
0
0.567877
0
0.735067
0.204844
0.693501
0.226261
1.03978
0
0.302786
0.770162
1.93911
0.937125
0.689002
0
0.552704
0.560624
0.80308
0.555047
0.200183
0.792814
0
0.500553
0
0.626731
0.73251
0.375146
0.862397
0.916074
1.3357
0
0.928054
0.470791
0.798551
0
0.672607
1.49917
0.897212
0
0
0
0.885485
0.588565
0
0.837516
0.348606
0.592735
0
1.53847
0.547834
0
0.332898
1.30365
0.533979
0.704023
0
0
0.49346
0
0.658225
0
1.1413
0
0.760908
0.75964
0
0.291261
1.31464
0
0
0.640514
0
0.675116
0.603241
0
0.560604
0
0.297191
0
0.329087
0.380813
0.513222
0.521023
0.74017
0.521122
0.727875
1.51291
1.0454
0.820359
0
0.637089
0.528904
0.645097
1.85005
0.728285
1.13853
0.84599
1.15507
1.24937
1.19464
0.553243
0.69327
0
0.598894
0.320801
0.746915
0.473633
0.89791
0.529283
0.707472
0.482774
0.664326
0.891743
0.428792
0
0.303675
0
1.09646
0.830602
0
0.977394
0.577407
0.670221
0.834087
0.502305
0.966005
0
0
0
0.790715
0.866709
0.61348
0.724066
0
0.53551
1.03735
1.29009
0
0.708766
0
0.640443
0.324408
0.454812
0.887178
0.574832
0
0.308836
1.10765
0.695686
0
1.36597
0.90872
0
0.428827
0.849749
0
0.560355
0
0.526127
0.744491
0.64736
1.01818
0.748685
1.02897
0
0
0.633936
0.795287
0.484981
0.56426
0
0
0.518957
0
1.30209
0.471588
0.362762
0.242663
0.232748
0
0.837374
0.592235
0.646171
0.476432
0.647853
0.501461
0
0.538804
0
0
0.311383
0.292412
0.363313
0.874692
1.18319
0.888495
0.540999
0
0
0.524766
0
0.485318
0.659561
0
0.352034
0
0.591928
0
0.336018
0.780528
0
0.491492
0.0958611
0.939679
0.621209
0
0.511019
0.822983
0.739524
0.633564
0.819076
0.540094
0.555217
0
0
0.313828
0.694622
0.907537
0.727368
0
0.65447
0.992277
0
0.703993
0
0.963245
0.425306
0.389558
1.5299
0
1.29296
0.761197
0.388324
0
0
0.476557
0.450411
0.546108
0.986313
1.12319
0.883254
0.541901
0.517872
0
0.821194
0.77744
0.328501
0
0.73509
0.712823
0.505732
0
0.487173
0.745909
0.851608
2.26054
1.33301
0.968006
0.545088
0
0
0.937032
0.776341
1.00324
0.594796
1.19904
0.520297
0
0
0.606698
0
0
0.478293
1.02874
0.95184
0.851954
0.328483
0.418748
0
0.477915
0.650751
0.593659
0.399449
0.42019
0.867822
0.72319
0
0.619348
0
0.5723
0.229254
0.621302
0
0.839661
0.231052
0.603111
0.997824
0.444289
0
0
0.329525
1.33185
0.446214
0.444137
0.643982
0.788378
0.341668
0.0796313
0.356212
0.697441
0.503941
0.458531
0.554811
0
0.460716
0
0
0.695938
0.484566
0.673239
0
0
0.726142
0.264964
0
0.595196
0
1.08744
0.647156
0.102019
0.431993
0.964709
0
0.463614
0
0.446696
0
0.590849
0
0.762054
2.08549
0.490805
0.61272
0.526387
0.330248
0.376878
0.651015
0
0
0.307087
0.55787
0
0.25147
0.437523
0.938759
0.359968
0
0.953911
0.769057
0
0
0.566368
0
1.24292
0.8547
0.801723
0
0
0.267109
0.743171
0
0.339486
0.938612
0
0.38632
0
0.386882
0
0.602812
0
0.448363
0.448855
0.690104
0.259818
0
0.797142
0
0.880661
0
0.468435
0
0.455298
1.1097
0.187086
0.843221
0
1.25597
0.377919
1.01235
1.15872
0.301253
0.798665
0.608228
0.1836
0.831927
1.22062
0.383901
0
0
1.02626
0.840206
1.10453
0
0.952541
0.841767
0.642413
0.871514
0.28854
0.471188
0.617333
0.771651
0.537806
0
0.744021
0.692112
0.558214
1.64812
0
0.872052
0
0.439632
0.52052
0.424045
0.823885
0.618518
0.474717
0.831658
0
0.565429
0.70573
0.502011
0.547097
0.516847
0.896744
0.335923
0
0.45202
0.505699
0
0.379442
0
0.313717
0
0.34107
0
0.447862
0.594651
0
0
1.03739
0.60795
0.419146
1.12344
0.751598
0.988302
0.759259
0.609188
0.878492
0.47693
0.372638
0.216058
0.366805
1.49378
0
0.374535
0.259893
0.129857
0
0.357522
0
0.634672
0.482642
0
0.391599
0.327432
0.525911
0.528709
0
0.524424
0.320063
0
0
0.843191
0.572516
0.894349
0
0.260148
0.516679
0.5616
0
0.238081
0.357435
0
0.566965
0
0.470482
0.395825
0.612438
0
0.597342
0.6466
0.858493
0.649413
0.714355
0.388998
0
0
0.566101
0.226051
0.270638
0.196311
0
0
0.683578
1.12029
0.698653
0.421682
0.667955
0
0.26726
0.107995
0.491696
0
0
0
0
0
0
0
0
0
0
0
0
0
0
0
0
0
0
0
0
0
0
0
0
0
0
0
0
0
0
0
0
0
0
0
0
0
0
0
0
0
0
0
0
0
0
0
0
0
0
0
0
0
0
0
0
0
0
0
0
0
0
0
0
0
0.370487
0.672062
0
0.459487
0.518597
0
0.371746
0.492562
0.110096
0.486018
0
0.536981
0.51536
0.687426
0.50612
1.12271
0.190136
0.692275
0
0.518913
0.644655
1.70813
0.380818
1.35188
0.318995
0.844435
0
0.458316
0.382357
0
0.557194
0.637158
1.16303
0.915087
0
0.977813
0.33
0
1.20924
0.837057
0.206562
0.758802
0
0.497267
1.46297
0
0.57301
1.04389
1.80938
0.475401
0
1.43396
0.850372
0
0.810944
1.45075
0.410518
1.92085
0
0.123025
0.985874
0
0.413866
0
1.42357
0.587578
1.09162
1.1735
0.552966
0
0.273157
0
0.558221
0.967455
0.747809
0.575527
0.794005
0.838423
0
0.647659
0.54118
1.06239
0.467301
0.836904
0
0.772437
0.943954
0.781861
1.34437
0.848551
0.564157
1.27873
0.460249
0
0.736493
0.378723
0.367801
0.398904
0.521715
0.693552
0
1.54924
1.03387
2.07618
0.696256
0.512921
0.419061
0.467683
0.159959
0.642787
0.641737
0
0.986762
0.646146
0.422741
0.289163
0.636371
0.928409
0.389879
0.647874
0
0.830605
0.7252
0.654917
2.16189
1.24252
1.54529
0.953515
0.622388
1.07399
1.83716
0.561081
0.881119
0.873249
0.514693
1.47051
0.590606
0
0.813341
0.62546
0
0.764271
1.90251
1.28336
0.378009
0.467865
0.712104
0.479173
0
1.04656
0.57698
0.690408
0.64513
0
0.507812
0
0.540478
0.454529
1.11416
0.571111
0.478331
0
0.586972
0.322743
0.428738
0.633861
1.53074
1.83183
0.670081
0.31314
0.815888
0.0605107
0.610705
0.909442
0.648486
0.719267
0
0.619083
0
0.808157
0.315966
0.361559
0
0
0.753331
0.687622
0.312792
0
1.06724
0.879976
0.922816
0.775772
0.625041
0.853584
0.70288
1.08946
0
0
0.986518
0
0.718335
1.62089
0
0.512088
0
0
0.953163
0.600592
0
0.829147
0
1.19696
0
0.564094
1.44105
0.858295
0.309291
0.460767
0.823183
1.09284
0.673414
1.13979
0
0.995831
1.2148
1.01648
0.651558
0
0
0
0.750679
1.0433
1.60065
0.5432
0.426158
0.461517
0.775137
1.13107
0.576891
0.79566
0.359125
0.548376
0.431216
0.688601
0
0.62121
0.750252
0.484425
0.49746
0.326134
0.78882
0.631698
0.571856
0.654158
0
0.725074
0.921985
0.686444
0.331368
0.588903
0.714545
0.416613
0.876621
0
0
0.346905
0
1.58959
0.455707
0
0.457136
0.914301
0.607154
0.698955
0.544389
0.547728
0.548864
0.818026
0.991469
0.389828
0
1.32319
0
0.305329
1.23341
0
0.351102
0.660017
0.678138
0.909007
0.286713
0.127505
0.875825
1.10072
0.512679
0.720931
0
0
0.612611
1.20061
1.21558
0.919774
0
0.307335
0
0
0.596415
0.488649
0.328881
0.893765
0
0.987868
0.678771
1.18164
0
0.605758
0.506349
0.408429
0.961646
0.73006
0.749433
0.876947
0
0
0.597007
0
0.534248
0.395375
0.86657
0
0.608525
0.416528
0.484714
0.966
1.04163
1.22892
0.968258
1.02904
0.732275
0
0
0
0.759939
0
0
0.41001
0.201495
0.573474
0.537685
0.484508
0
0.492508
0
0.86218
0
0.570362
0
0.338515
0
0
0.898789
1.0159
0.401205
0.310012
0.398079
0
0.584659
1.80828
0
0.508526
0.279336
0.654499
0.676073
0.361001
0.741311
0
0
0.601264
0
0
0.716897
0.275787
0.533428
0.0857223
1.29003
0.873659
0
0
0.728245
0.549052
0.738353
0.566316
0.701617
0.663593
1.77242
1.29465
0.639579
0.298466
0.393093
0.552085
0.568097
0.260745
1.24093
0.807064
0.685573
1.25366
0.401245
0.925219
0.368389
0.336949
0.645582
0
0.79031
0.954392
1.95049
0.737264
0.291369
0.452953
0.488399
1.04965
0
0
0.400271
0.537351
0.37544
0
0.399352
1.05031
0.552317
0
1.37708
0.758442
0.294393
0
0.760643
0
0.314636
0.438998
1.33195
1.12683
0.835699
0.541401
0.686765
0.782193
0.949302
1.03532
0.567238
1.55949
0.957482
0
1.01073
0.361262
0.688174
0
1.50075
1.17337
0.832402
0.86366
0.966891
0.550326
0.45822
1.1181
0
0.65121
0.714304
0.74567
1.68544
0.787358
0
1.15709
0
0.407418
1.32629
0.248526
0
0.356155
0.955989
0.716912
0.882496
0
0
0
0.137946
0.383915
0.312757
0.767924
0.599058
0
0.132784
0
0.982664
0.88562
0.585753
0.573525
0
0.52912
0.586432
0.42118
0.83257
0.467719
0.30304
0
0.877471
1.14949
0.952139
1.42662
0.46097
0.567564
0
0
0
1.14287
0.561322
1.4795
1.03398
0.528444
0
0.479514
0.598646
1.23387
0.542604
0.445309
0.308916
0
0.325685
0.7275
1.08707
0
0.435868
0
0.434837
0
0.569495
0.705315
1.39539
0.296575
0.236489
0.768493
0.491564
0
0
0.64633
0.817245
0.623404
0.33557
0.595017
0.640402
0
0.511292
1.98923
0.916078
0
0.463199
0.439152
0.676311
0.353472
1.40407
1.22167
1.34344
0.623631
0
0
0
0.368379
0
0.769083
0.453983
0.71959
0
0
0
0.609758
0.450404
0
0.758242
0
1.84593
0
0.494161
0.381881
1.23629
1.02991
1.23308
0.519997
0.19251
0.362048
0
0.725265
0
0.564835
0
0.603048
1.57917
0.985267
0
0.222613
0
0.932489
0.549539
0.36097
1.84381
0.568669
0.833942
0.912259
0
0.371387
0.474491
0.58338
0.480859
0.753407
0.794259
0
0.415383
0.377165
0.503451
0
0.379191
0.288622
0.8765
0.590003
0.773756
0.864401
0
0
1.32234
0.849592
0
0.365139
0.136419
0.0916658
0
0
1.22515
1.01778
0.234684
0.385658
0.175328
0.665085
0
0.462068
0.538578
0.962707
2.07389
0
0.524217
0.293223
0.338364
0.767082
0.680536
0.281726
0
0.366663
0
0.288461
2.16762
0.615033
1.05621
0.935426
1.08434
0.652592
1.57581
1.0253
0.605169
0.810586
0.678649
0.878837
0.829493
0.852234
0
0.413308
0.237117
0
0
0
0.516933
0
0
0
0.642763
0
1.12435
0
0.41903
0.365393
1.29647
0.470201
0.435168
0.175708
0.925168
0.618125
0.438951
0.36865
1.14332
0
0.4668
0.525199
0.980786
0.694568
0.567191
0.815951
0
0.592294
0
0.470337
0.240389
0.417869
0.993734
0
1.25231
0.880398
1.72258
0
0
0.312595
0.833806
0.653268
0.878615
0.449251
0.510173
0.53857
0.929713
0.475188
0.865186
1.35686
0.196753
1.06578
0.427797
0.493523
2.22896
0
0.615365
0
0
0
0.485081
0.705881
0
0
0.494678
0
0.83327
0.729459
0.94374
1.03294
0.214466
0.283389
0.320087
0.936353
0.531763
0.792855
0
0.799042
0.506603
1.00193
0
0
0.286797
0
0
0.435452
0.535734
1.26578
0
0.737591
1.02057
0.731591
0.398497
0.686231
0.546554
0.706391
0.637296
0
0.506867
0
1.02764
0.433339
0.417329
0.667285
0.581895
0.438493
0.508742
0.793803
0.655672
0.514552
1.2586
0
0.692802
0
0.517475
0.218956
0.48279
0
2.00552
3.05039
0.864585
0
0.411145
0.880386
0.669751
1.25424
0.428691
0
0.44197
0.286826
0.548115
0.137263
0.483781
0
1.64009
0.998127
0.7506
0
0.663696
0.730953
0.762428
0
0.354907
0.577266
0.491856
0.600699
0.813503
1.1565
1.21535
0
0.48522
0.859352
0.60016
1.18859
0
0.518664
1.02989
0.721962
0.450749
0.440798
0
1.02583
0
0.953777
1.47203
0.543134
1.31629
0.633665
0.894666
0.585156
0
0.209926
0.350174
0.610049
0.862441
0.464604
0.60152
0.580658
0.37736
0.728212
1.31552
1.5612
0
0
0.297952
0.791637
0.385034
0
0
0.344579
0.610875
0.450249
0
0
0.283091
0
0.8384
0.61631
0.321056
0
0.212956
0.494861
0.363342
0.536095
0.827569
0
0.952231
0.443007
0.426781
0.6587
0.402693
0.374372
0
3.00669
0.962959
0.843161
0.620957
3.22795
0.692982
0.564811
1.07592
0
0
0.217952
0
1.77042
0.66378
0.745449
0
0.358874
0.732351
0
0.615236
0
0.396408
0
0.550864
0.374008
0.287208
0.603608
0
0
0
0
0
0.806959
0
0.427715
1.06857
1.07816
0.291469
0
0.227065
0.657932
0
0.295724
0
0.632159
0
0.546905
0
0.687438
0
0
0.561225
1.24213
0.429617
0.0575046
0.216513
0.504953
0
0.228612
0
0.560987
0.843468
0.661337
0
0.334919
0.685533
0
0.710044
0
0.771205
0
0.328928
0.357841
0
0
0
0
0
0
0
0
0
0
0
0
0
0
0
0
0
0
0
0
0
0
0
0
0
0
0
0
0
0
0
0
0
0
0
0
0
0
0
0
0
0
0
0
0
0
0
0
0
0
0
0
0
0
0
0
0
0
0
0
0
0
0
0
0
0.797809
0
0
0
0
0
0
0
0.38229
0
0.936726
0.64241
0
0
0
0
0.461065
0
0
0.28236
0
0
0
0
0.932611
0
0
0
0
1.59939
0
0
0
0
0
0
0
1.9764
0
0
0
0
0
0
0
0
0
0
0
0
0.827182
0
0
0
0
0
0.122077
0
0
0
0
0.905172
0
0
0.617213
1.11903
1.12971
1.18763
0
0.907279
0
0.568266
0
0.76265
0.185101
0.699941
0
1.54176
1.04054
0.528161
0.92587
0
0
0.503653
0.483387
0
0.699984
0.485814
0.346906
0
1.14363
0.722394
0
0.727345
1.02222
1.26314
0.777895
1.07533
1.54126
1.03554
1.50445
0.583859
0
0.576917
1.16623
0.937186
0.317715
0.738114
0
0
1.0565
1.03058
0
0.509128
0.588386
1.25213
0.610918
1.15172
0
0.684797
0.57206
0.746442
0.488953
0
0.603652
0.252683
0.177136
0
0.781386
1.027
1.17692
0.347158
1.75978
0
0.68723
0
0.856206
1.98964
0.363245
1.02978
0
0
0.868564
0.662539
1.30781
0
0
0.472019
2.18336
0.768666
0.932984
0.793368
0
1.63848
0.848739
0
1.71046
1.20799
0
0.862087
1.41706
1.139
0.779868
0.977106
0
0.429213
0
0.74522
0
0.607541
0.23562
0.524377
1.75584
0
0.452483
0.735018
0.729189
0.423579
0.601366
1.54343
0.878534
0.35541
0.522934
0
0.617624
0.530015
0.340214
0.638089
0
0.232648
1.09925
0
0.382098
0.505042
0.545209
0.455261
0.519698
0.819956
0.610058
1.85727
0
0.747016
0
1.01065
0
0.57859
0.467086
0.778477
0
0.524306
0.85643
1.04922
0
1.24315
0
1.12871
0.890201
0
0.518705
1.03908
0
0.278413
0.739614
1.05037
0.856566
1.73377
0.232351
0.737291
0
0
0.87232
1.82737
1.00352
0
0.546018
1.25709
0.797069
0.804564
0.544614
0
0
0
0.661104
0.570634
0.878494
0
0.746593
1.08674
0.766674
1.08919
0.432625
0
0.710425
0
1.05986
0.495591
0
0.585905
0
0.603706
0.617627
0.779716
0.620901
0
0.207664
0.525123
0.818533
0
0.767497
1.13971
0.99261
1.13005
0.214726
0
0.234426
0.689226
0.938197
0.834515
0.736319
0.623039
0
1.15655
1.53389
0.951108
2.4047
0
0
0
0
0.320265
0
0.582076
0
0
0
0.459965
0
0.488332
0
0.656416
0.620086
0.373993
0.683546
0.960549
0.746582
0.652029
0.684086
1.11409
0.947134
1.20484
0.741129
0.466451
0
0
0.600513
0
0.642544
0
0.4154
0
0.922536
1.46804
0.874614
0.724806
1.18842
1.74772
0
0.745452
0
0.505647
0.706223
0
0
0.622669
0.440296
0
0.338574
0.871043
0.640247
1.05006
0
0.489097
0.646088
0.75037
0.464512
0.496773
0
0
0.666411
0
0
0.685724
0.94146
0.744778
1.755
0
0.197346
1.65543
0.780513
0
0
1.43408
0.397058
0.668786
0
0
0.912059
0.620517
1.15181
0.503854
0.671239
0.564869
1.0995
0.833384
0.756414
0
0.467017
0.431368
0.419428
0
0.342074
0.60144
0.65637
1.02534
0
0
0.974689
0
0.695546
0.25295
0
0.662528
0.590412
0.44467
0.304411
0
0
0.391467
0
0
0.355152
0
0.650422
0.51363
1.15414
0
0.42585
0
0.735624
0.557589
1.34763
0.797481
0
0.678733
0
0
0.291637
1.22906
1.52597
1.44656
0.431343
0.570778
0.590165
0
0.513729
0
0.119997
0.749599
0.216591
1.0999
0.658365
0.540885
0.807179
0
0.483549
0.303066
3.17913
0.690859
0.294798
0.444021
0.352491
0.95781
0.666536
0
1.58947
0.667602
0.699861
0.528734
0.679858
1.25979
1.13203
0
0.698148
0.34144
0.599481
0
0.57919
0.771931
0.737477
0.997175
1.51956
0.992987
0
0
0.403382
0
0.400931
0
0.461154
0
1.16423
0.763644
0
0.636883
0
0.91263
0.955815
0.849564
0.245993
0
0.475258
0
1.1664
0
0.735475
0
0.657755
0.636999
0.652012
0.703487
1.4094
0
0
0
0
0
0.543437
0.485716
0.432303
0.238305
0.448628
0.673516
0.662835
0.337237
0.176122
0
0
0
0.425632
0.7778
0.455621
1.0786
1.47756
0.55387
0.308606
0.472923
1.33089
1.91217
0.263539
0
0
0
0.583643
0
0
0.578386
0
0
0.907196
0.645844
0.451661
0
0
0.839673
0
0
1.35878
0.561823
0.480964
0.743516
0.673666
0.252162
1.08564
0.537218
0
0.545647
0.773519
2.32321
0.820923
0.344236
0.787777
0
0.428276
0
1.04004
0.512192
0
0.559424
0.329264
0
0.807381
0.451053
0
0.265604
0.0787128
0.890154
0
1.09652
0.702817
0.784052
0
0.743356
0.573913
0.508444
1.18135
0.574787
0.60593
0.275626
0
0.786932
0
0
0.238198
1.02786
0.611023
0.428949
0
0
1.25947
0.823456
0.439987
0.629737
0
0.498269
0.454559
0.9012
1.35522
0.309536
0.440217
0.974067
0.622306
0.232614
1.19483
0
0.291478
0.488069
0.464578
0.700477
1.27524
1.23885
0.564695
0.843199
0.63529
0.484068
0.586624
0.477935
0.639331
1.82803
0.142222
0.110138
0
0.850198
0.608954
0
0.360914
0
0.810778
0
0.581981
0.141369
0.561593
0
0
0
0.42088
0.253012
0.264442
0.692509
0
0.361001
0.943849
0.751925
0.977093
0.961264
0.710036
0
0.670116
0
0.174506
0
0.638163
0.668157
0.360896
0
0
1.14208
0.94343
1.2772
1.21349
0.479286
0
0.704074
0.207868
0.638383
1.69888
0.905234
0.432146
0
0.461685
0.655344
0.840692
0.180368
0.795338
0
0.218562
0.748754
0.952031
0.554111
0.499895
1.38863
0.297989
0
0
0.719926
0.743179
0
0
0.653508
0
1.66554
0.747431
0
0.458038
1.06597
1.37497
1.9407
1.45043
0
1.41808
1.02452
0
0.163118
0.429318
0.722647
0
0.0697841
0.539656
0.892411
1.28045
0
0.554263
0.663273
0.555468
0.027713
0.354653
0.560484
1.41011
0.730241
0
0.898424
0.34305
0.785493
0.480778
1.61225
0.557172
0
0
0.674248
0.74324
0.430753
0
0.763285
0.775485
0.692578
0.299777
0.548392
0.871515
0.622613
0
0.34194
0.791982
0.649358
0
0.70929
1.77319
0.367376
0.921974
0
0.40965
0.677064
0
0
0.638027
0.79651
0.544723
0
0.49067
0
0.607443
0.384559
0.370412
0.451036
0.212603
0.454775
0
0
0.731013
0.693371
0.752072
0.31538
0.876688
0.704933
0.695621
0.613074
0
0.617766
0.596835
0.624153
0
0.347695
0.708401
0.783608
0
0.710079
0.686209
1.0036
0.56624
0.473871
0.208522
1.0901
0.700213
1.18709
0.427541
0.438734
0.290982
0.69841
1.39904
1.59236
0.602463
0.38223
0.529621
0
0
0
0
0
0
0.57588
0
0.448356
0
0.752702
0
1.16265
0.37124
0.630538
0.698299
0.215812
0
0
0.201699
0
0.48105
0
1.03102
0
0
0.579683
0
0
0.628837
0.439145
0
0
0.845217
0.377495
0.578989
2.09271
0.895598
0.763895
0.335381
0.35451
0
0.53706
0.436647
0.314303
0.398385
0
0.797231
0
0
0.63947
0
1.01979
0
0.60842
0
0.900044
0
0.422078
0
0.55559
0.136304
0.408613
0
0.615469
0
0.65404
0
0.435869
0.469857
0.315992
0.185614
0.443991
0
0
0.443324
1.05621
0.514945
0
0.233674
0.125734
1.258
0
0.269094
0.534176
2.08294
0.39454
0
0.772104
0
1.23171
0
0.792553
0.738575
0.814466
0.512731
1.00343
0
0
0.12236
0.487546
0.721518
0.611431
0.15098
0.635296
0
0.344151
0
0.847484
0
0.407634
0.341001
0.721394
0.692552
0.529666
0.773901
0
0
0.759917
0.401171
0.314365
0
0.481702
0.860734
0
0.940782
0.472757
0.603599
0.870554
0
0.596473
0.291186
0.534633
1.09138
0.978
1.26023
0.388872
0.369743
0.665172
0.531871
0.27202
0
0.215244
0.628232
0
0
0
0.593562
0.829202
0
0.454016
0
0.721069
0
0.703388
0.372964
0
0.746335
0
0
0
0
0
0
0
0
0
0
0
0
0
0
0
0
0
0
0
0
0
0
0
0
0
0
0
0
0
0
0
0
0
0
0
0
0
0
0
0
0
0
0
0
0
0
0
0
0
0
0
0
0
0
0
0
0
0
0
0
0
0
0
0
0.500141
0.483894
0
0.327146
0.511928
1.43583
0.485231
1.34567
0.300199
0.476623
1.50698
0.565146
0.459455
0
0.415405
1.37314
0.424418
0.403516
0.469986
0.319706
0.474073
0.94714
0.47429
1.1507
0.380345
0.594887
1.90822
0.428743
0.403821
0
0.398478
0.738324
0.173338
1.24006
0
0.37698
0.861959
0
0.800668
0.487939
0.884313
0.939276
0.477256
1.05495
1.00191
1.41684
0.639283
0.642609
0.235986
1.46259
0
0.48829
0.841934
0
0.210696
0.814156
0.867767
0.289872
0
1.38294
0.43923
0.354714
0.666372
0.577725
0.500245
0.854322
0
1.74674
0.874317
0
0.511409
0.436882
0.611341
0.954186
0.734966
0.856148
0.796868
0
1.49191
0.405351
0
1.07088
0.881259
0
0.719655
0
0.232535
1.63076
1.19578
0.313881
0.94164
0.554368
0.668069
0.437794
2.36151
0.749369
0
0.558829
0
0.684638
0
0.836882
0.889562
0.719083
0
0.906997
0.704193
0.532344
0.627997
0.654544
0
0.630006
1.12491
0
0.544371
0
1.23595
2.34907
0.486059
0
0
0
0.347516
0.615115
0
0
0
0.406903
0.681318
1.25923
0.903736
1.24179
0
0.831959
0.687689
0.501696
1.16133
0
0
0.908147
0.667794
0
0.705892
0.802026
0.728588
1.15269
0.594521
0.657131
0.591969
0.619957
0.459905
0.596755
0.391688
1.0236
1.34448
0
1.16514
1.11941
0.483872
0.542191
0.249699
0
1.2593
0.525345
1.14273
0
0.834008
0
1.06625
0.522346
0
1.56721
1.19808
0.993458
0.645591
1.36063
0
0.293406
0
0
0.686463
0
0
0
0.473068
0.264639
0.417078
0
0.849553
0.444488
0.733503
0.795247
0.93623
1.03887
0.561215
0.874952
0
0.413314
1.82067
0.689353
1.26028
1.39688
1.72525
1.01365
1.13957
0.55605
0.648346
0.710767
1.236
0.897937
0.534088
0
0.390677
0.98272
0.303673
0
0
0
1.21091
0
0.739239
0.326124
0
0
1.49611
0.719322
0
0.937845
1.1185
0.646245
0.629651
0
2.94572
0.870597
0
0.879232
0.566963
0
0.428059
0.647176
0.499383
0.793429
0.467356
0
1.17991
0.431981
0
0.74233
0
0.682927
0.698678
0.493956
0.285716
1.88226
0
0.844236
0.385405
0
0.667955
0
0
0.64946
0.77236
0.750221
1.00004
0.389427
0
0.484057
0
0
1.27353
0.596358
1.06655
0.485809
0.381766
0
0
0
0.584635
1.20643
0
0.488069
0
0.693106
0
0
0.291804
0.576433
0.259881
0.34631
0.744738
0.50862
0.765048
0.311196
0.392382
0
0
0.400297
0.533433
0.383202
0
0.77667
0.485702
0.37141
1.61107
1.6976
0.271873
0.479482
0.484337
0.486657
0.550633
0.744519
0
0.62075
0.542829
0.783581
0.560925
0.433987
0
0
0.469895
0
1.15074
1.21399
0.321686
0.721609
1.05323
0.394805
0
0.168173
0.243403
0.535598
0.766038
0.793126
0
0.493782
0
0.4418
0
0
0.78613
0.508883
0.784118
1.12343
0
0.960661
0
0
0.517629
0.436956
0.531865
1.04503
0.849437
0.708932
1.14135
0.687819
0.311992
0.60493
0.621146
0.646895
0
0.482268
0
0.399778
0.84654
0.629139
0.36369
0
1.24188
0.399023
0
0.297225
0
0.902928
0.367053
0.71591
0.373243
0.257726
0.880095
0.227887
0.709456
0.607311
0.725413
1.04312
0.501541
0.653368
0.640308
0
0.535875
0.509677
0.553375
0.439465
1.0961
0.860085
0
0.682223
0.330055
0.657506
0
0.663832
0.7432
0.620985
0
0.799843
0.636323
0.597744
1.28407
0.412253
0
0.741799
0
0.462471
0.627657
0
0.504274
1.24983
0.992278
0
0.530109
0.859082
0
0
0
0.342027
0
0.506767
1.00385
0.443463
0
0.204237
0.792209
1.05657
0.476179
0
0.303214
0
0
1.19057
0
0.789804
0
0.575814
0
1.9407
0.962369
0
0.582904
0
1.26909
0.596379
0.438377
0.514779
0.393238
0
0
0
0.413943
0
1.29954
0.681065
0.724258
0.654857
0.522301
0
0.817056
1.22925
0.241512
0.857605
1.05655
0.46244
0.69106
0.579171
0.780242
0
0
0.352691
0.715999
0.135405
0.219494
0
0
0.911585
0.845773
0.73288
0.718914
0.944847
1.18327
0.6819
0
0.517839
0.378994
0.770846
0.408473
1.29404
0.65121
0.602739
0.553295
0.701123
0.782782
0.710306
1.06608
0.706379
0.547747
0.470213
0.33257
0.473266
1.42516
0.557502
0.713928
2.15649
0.41418
0.708103
0.552811
0.800858
0
0.933511
0
1.36007
0.89529
0.850381
0.704306
0.602992
0.834366
0.560009
0.439684
0.281309
0
0.83603
0.413477
0.701895
0.267444
0
0.44103
0.344388
0
1.30534
0.56643
0.801935
0.703429
0.492642
0.583971
1.27704
0.403974
0.472205
0
0
0.701044
2.30183
0.766697
0.995419
0.529026
0.51363
0.587906
0.438915
0.762662
0.377748
0.524335
0.446549
0.794986
0.525647
2.04368
0
0.848421
0.371822
1.2559
0.667804
0.613336
1.86073
0.657686
0
0
0.616167
0.415038
0.601039
0
0
2.04697
0
1.36951
0
1.32293
0.507819
1.10682
0
0.488286
1.0339
0.685467
1.12632
0.692979
0.406031
0.561146
0
0.780486
0.674787
0.540255
0
2.02876
0.390979
0.649243
1.08122
0
0.503876
0
0.737018
0.91386
0.421678
0
0
0.818079
0.69019
0.955399
0
0
0.7042
0.668544
0
0.383218
0.697365
0.549869
0
0.55634
0.873937
0
0
0
1.04472
0.520874
0
0
0.739503
0.926138
0.489621
0
1.46089
0.660275
0
0
0
0
0.651427
0.908757
0.522522
0.606836
0.433693
0.285576
0.361479
0
0.394854
0.606675
0
0.908828
0.564163
0.620747
0.26854
0.276815
0
1.16823
0
0.675797
0.677807
0.760619
0.299787
0.416508
0
0.591277
0
0.316641
0.574379
0.75332
0.178053
0.860321
0.80738
0.380464
0.289172
0.267061
0.636227
0
0.72169
0.302277
0
0
0.600954
0
0.461633
0
0
0.487921
0.622105
0.425034
0.622607
0.440702
0
0.580502
0
0.735366
0.760989
0.84407
0.676779
0
0.206232
0.467494
0.663136
1.05225
0
0
0.809516
0
0.884226
0.53362
0.272897
0.715041
0.519089
0.247008
0.578071
0
0.676092
0.129272
0
0.524001
0.773944
0
0.479055
1.00316
0.548845
1.21691
0.458547
0
0.726115
0
0.548254
0.399967
0.44483
0
0
0
0.461642
0.277775
0.657706
0
0.367612
0
0.804829
0.650902
0.363678
0
1.00522
0.556966
0.439845
0.493491
0.349929
0
0.669927
0.308351
0.341482
0
0.821501
0
0
0
0.621754
0
0.304979
0.353816
0.536703
0.764714
0
1.66964
0.741276
0
0.691879
1.28993
0.333393
0
0.495155
1.38166
0.494275
0.364013
0
0
0.230042
0.454294
0
0.53215
0
0.790649
0
0.455676
0
0.644503
0.625298
0
0.392694
0
0.795746
0.220757
0.356829
0
0.261821
1.80769
0.765999
0.729504
0.455245
0.583023
0.793147
0.270938
0.534018
0.564562
0.708927
0
0.0893643
0.320262
0
0.206893
0.650205
0
0.784709
0.799179
0
1.23489
0.643711
0
0.424202
0
0
0.370681
0.834957
0.548373
0.296305
0
0
0.548413
0.472357
0.633738
0.589221
0.534013
0.438434
0.474387
0.306839
0.817202
0
0.353528
0.121361
0.466689
1.02528
0
0.452538
0.646259
0
0.345881
0.23425
0.479507
0.757174
0
0
0.952519
0
0
0.865018
0
0.600767
0
0.684092
0
0.413419
0.386134
0
0.517333
0.63406
0.248356
0
0.317587
0.470073
0.739483
0.12638
0
0.943483
0.572524
0.582929
0.551231
0.534193
0.706625
0.164956
0.372047
0.808847
0.92393
0.59131
0
0
0
1.1616
0.489481
0.596871
0.846115
0.486447
0.909385
0.793055
0
0
0.362451
0.477416
0
0
0.222656
1.04826
1.18853
1.95857
0.916721
0
0.529257
0
0.36994
0.218908
0.177715
0.235174
0.381584
0.595852
0.156351
0
0
0.360056
0
0.80018
0.379404
0.222982
0.335429
0.906468
0
0.784553
1.04078
0.564081
0.556836
0.514943
0.487353
0.796931
0.238644
0.537896
0.72203
1.41379
0.428956
0.884179
0.977041
0.38399
0.259686
0.369881
0.382504
0.342179
0.293248
0.315558
0.306944
1.11017
0.285102
0.0988419
0.516194
0.481019
0.522737
0.816848
0
0
0
0.48521
0
0
0
0
0
0
0
0
0
0
0
0
0
0
0
0
0
0
0
0
0
0
0
0
0
0
0
0
0
0
0
0
0
0
0
0
0
0
0
0
0
0
0
0
0
0
0
0
0
0
0
0
0
0
0
0
0
0
0
0
0
0
0
0
0.315567
0.325787
0
0.341571
0.535708
0
0.383281
0.901076
0.284861
0.569579
0
0.742517
0.440927
0
0.397316
1.25104
0.351029
0.621764
0.746561
0.532669
0.628689
1.34967
0.48748
1.08563
0.317435
0.323473
4.59696
0.387742
0.455413
0
0.573673
1.3429
1.79006
0.302138
0.435231
1.13713
0.379546
0
1.25964
0.746728
0.33171
0.763565
1.4794
1.1387
0.676594
0
0.396148
0.843263
0.97729
0.39078
0
0.871751
0.318374
0
0.463178
0.914843
0.301341
0.588165
0
0.399447
0.525929
0
0.283561
2.51945
0.205833
0.243314
0.51822
1.74549
0.765058
0.305927
0.65137
0
0.581009
0.95275
0.661715
0.801083
0
0.630493
1.2081
1.02806
0.947181
0
1.55942
0.906862
1.1975
0.842681
0.490644
1.93231
1.01166
0.877866
0
0
1.12391
1.09267
0.54507
0.416593
0.822206
0.930189
0
1.20951
0.640827
1.09689
0
0.555167
0
0.950544
0
0.493879
0.105436
0.215108
0.523169
0.258867
2.28283
0.448941
0
0.882297
0.94403
0.238907
0
0.988093
0
0.868808
0
0.425352
0
0.971898
0.847365
1.20933
0.872837
0.212726
0.711993
0.725307
0.526154
0
0
0.913602
0.85731
0.506396
0.126662
0.458225
0.472339
0.613628
0.591989
0.650004
0.119319
0.621448
0.938838
0
0.773541
0.771711
1.23572
0.989873
0
1.53485
0.615175
0
3.23112
1.84258
1.01089
1.47789
0.951074
0.550188
1.03703
0.814927
0.890608
0.203511
0.76987
0
1.42053
1.48654
1.27549
0.572487
1.21456
1.55351
0
0.888416
0.858563
1.48538
0.949552
0.40043
0.803831
0.674413
1.05078
0.775618
0.482132
0
0.825466
0.722255
1.84958
0.716583
0.896089
1.00083
0
1.32962
1.1187
1.27196
0