<?xml version="1.0"?>
<VTKFile type="RectilinearGrid">
<RectilinearGrid WholeExtent="0 32 0 32 0 32" Origin="0 0 0" Spacing="1 1 1">
<Piece Extent="0 32 0 32 0 32">
<PointData>
</PointData>
<Coordinates>
<DataArray type="Float32" format="ascii">
0 0.524874 1.04975 1.57462 2.0995 2.62437 3.14924 3.67412 4.19899 4.72386 5.24874 5.77361 6.29849 6.82336 7.34823 7.87311 8.39798 8.92285 9.44773 9.9726 10.4975 11.0224 11.5472 12.0721 12.597 13.1218 13.6467 14.1716 14.6965 15.2213 15.7462 16.2711 16.796 
</DataArray>
<DataArray type="Float32" format="ascii">
-5.03879 -3.62163 -2.20447 -0.787311 0.629849 2.04701 3.46417 4.88133 6.29849 7.71565 9.1328 10.55 11.9671 13.3843 14.8014 16.2186 17.6358 19.0529 20.4701 21.8872 23.3044 24.7216 26.1387 27.5559 28.973 30.3902 31.8074 33.2245 34.6417 36.0588 37.476 38.8931 40.3103 
</DataArray>
<DataArray type="Float32" format="ascii">
0 0.524874 1.04975 1.57462 2.0995 2.62437 3.14924 3.67412 4.19899 4.72386 5.24874 5.77361 6.29849 6.82336 7.34823 7.87311 8.39798 8.92285 9.44773 9.9726 10.4975 11.0224 11.5472 12.0721 12.597 13.1218 13.6467 14.1716 14.6965 15.2213 15.7462 16.2711 16.796 
</DataArray>
</Coordinates>
<CellData>
<DataArray type="Float32" Name="Scalar" format="ascii">
0
0
0
0
0
0
0
0
0
0
0
0
0
0
0
0
0
0
0
0
0
0
0
0
0
0
0
0
0
0
0
0
0
0
0
0
0
0
0
0
0
0
0
0
0
0
0
0
0
0
0
0
0
0
0
0
0
0
0
0
0
0
0
0
0.141972
0.374778
0
0.259649
0.152517
0
0.434098
1.24386
0.266955
0.441374
0
0.249545
0.290901
1.30596
0.379455
1.05893
0.117439
0.352519
0
0.365939
0.335787
0
0.292548
1.17693
0.194521
0.152208
1.08779
0.338944
0.468582
1.0002
0.377007
0.69326
0.264903
0.806807
0.991762
0.644071
1.22569
0
0.163995
0.65602
0
0.324622
0
0.945451
0.206138
0
1.42518
1.38786
0.282183
0.54642
0
0.444809
1.47415
0
0.382202
0
1.10523
0.453273
0
0.936297
0.146431
0
0.864094
1.00198
0
1.16688
0.363688
0.783685
0.71998
0.574348
0.847074
0.866383
1.03433
0.752885
0.894626
0.787509
1.00924
0.67132
0.867185
0.78082
1.04934
1.41423
0.765524
3.01001
0.716649
0
0
0.693295
0.73034
1.20472
1.29633
0
0.812386
0
0.747454
1.35127
0
0.682062
0
0.396536
0
0.209124
0.676888
1.25172
1.65535
0.776606
1.265
0
1.17999
0
1.64472
0.999839
2.32719
0.666686
1.1235
0.288969
0.470032
1.15519
0.888072
0.540556
0
0.318261
0.805307
0.841684
0
0.615301
0
0
0.293452
0.820595
1.44796
0.464135
0.291965
0.321422
0.543087
2.64473
0.772652
0
1.27705
0
0.896268
0.949616
0.352385
2.33543
0.573867
0.757039
0.299744
1.84051
1.38234
0
0.603217
0.493974
1.6468
0
0
1.32267
0.750245
0.581259
0
0.322091
0
0
0.440227
0
0
0.551424
0.524741
0
0
1.52405
0
0.766933
0.422342
0.806992
0.244265
0.990088
0.765324
0.858995
0.882012
0.885796
0.645079
0.304227
1.0122
1.70951
1.18224
0.530109
0.879223
2.62816
1.04425
0.964363
0
1.22402
0.383002
0.650056
0.332236
0.906326
0.99373
1.56072
0.974306
0
0.356282
0
2.80517
0
0
0
0.41248
0.649119
0
0.836236
0
0.960935
0.362035
0.607755
0.369666
0.303407
0.742839
0.305343
0.517956
0
0
0
0.572114
0.560978
0.864752
1.18805
0.797575
0.393001
0.677335
0.660449
0.81861
0.85869
0
0.344515
0
0.102896
0
1.03766
0.56959
0.546035
0.366761
2.2837
1.02784
0.614705
0.895977
0.659179
0.767623
0.290772
0
0.800487
0.538057
0.383892
0.755195
0.865605
0.777474
0
0.87306
0.64934
1.05137
1.77304
0.69217
0.571732
0.710588
0.482879
0
0.589524
0
1.49235
0.418448
0.551433
0.792466
0.799667
1.35507
0
0.831267
0
1.0717
0
0.913536
0.82752
0.556217
1.53217
0.955271
0
0.956643
0.861926
0.614857
1.43523
0.701552
1.16493
1.00811
2.47597
0.233414
0.733772
0.7466
0.171223
0
0
0.259956
0.173735
0.817475
1.01499
0
0.845057
1.53856
1.85239
1.22158
1.46633
0.55679
0.903056
0.375389
1.92388
1.73908
0.409002
0.236229
0.685765
0.484203
0.479446
0.558231
0
0.591188
0.665803
0.669874
0.471444
1.06318
0.709551
0
0
0.322345
0.255599
0
0.868765
0
0
0.524219
0.642257
0
0.561489
0.638054
1.33137
0
2.11847
0
0.10275
0.620916
0.189337
0.39866
0
0.465152
0
1.0721
0
1.021
0
0.562884
0
0.524748
1.14052
0.498229
0.088975
0.850033
0.792522
0.640733
1.65775
1.17621
0.684977
0.56349
0.700076
0.4203
0.532295
0.436709
0.314033
0
0
0.70294
0.673094
0.855557
0.662315
0.259273
0.45159
0
0.435919
0.95507
1.15224
0.881566
0
0.747922
0
0
0.380202
0.97551
0
0.790801
0
0.50875
0.512644
0.60604
0
0
0.217612
1.06177
1.15947
0.506134
0.235371
0
0.806574
0
0.229563
0.691864
0.682266
0
0.563291
0
0.428925
0
1.17897
1.23874
0.354368
0.536795
0.300465
1.65269
0
0.998258
0.749945
0.278246
0
0.410542
0.669844
0.269944
0.126467
0.480226
0
0.346891
0.466082
0.453617
0.284364
1.38625
0.770178
0
0.669176
0.406043
0.600002
0
0.900492
0
0.457633
0.821767
0.701923
0
0.937454
0.976051
0.49788
0
0.477275
1.1376
0
0
0.604746
0.504359
0
0.424076
0.474998
1.20427
0
0.666353
0
0
0.888841
0.537697
0.490733
0
0
0.735557
0.499253
0.363242
0
0.745768
1.01639
0.636667
0.467517
0.881699
1.15517
0.813896
0.550551
0.529589
0.86584
1.1054
0.539022
0.601741
0.433622
0
0.333
0.655425
0.77746
0.421419
0
0
0.269083
0
0.596157
0.647022
1.15825
0.59769
0
0
0
0.724811
0.243651
1.56969
0.754091
0.423139
0
0
0.71286
0.516018
0.435331
0.773574
0.463204
0.483092
0.364764
0.52842
0
0.445681
0.275971
0.449029
0
0.152991
0.303697
0
0.537061
1.44711
0.548666
0.576943
0.270771
0.868461
1.28266
0.427655
0.449413
0.543304
1.0532
0.39325
0.426856
0.611026
0.858006
0.264966
0
0.528263
0.172549
0
0.511888
0.999222
0
0
0.471246
0.549325
1.39375
0.491475
0.285482
0.730041
0.274693
0
0
0.46191
0.505867
0.403375
0
0.706468
0.518284
0.495627
0.857095
0.50539
1.17074
0.724155
0.767734
0.855766
0.806799
0.494254
0.976543
0.374607
0.410819
0
0
0.756521
0
0
0.46078
0.330633
0.804369
0.592454
0
0.375974
0
0.827417
0.712247
1.05035
0
0.553505
0.773016
0.543827
0.586686
0
0.498585
0
0
0
0
0
0.395701
0
0
0.818848
0.539496
0
0.575897
0.31583
0
0.808775
0.667405
0
0.692452
0.432883
0.665255
0.528525
0
0.2657
0.696001
0.655302
0.742315
0.82985
0.142286
0
0.32013
0.863257
0.364212
0
0.650094
0
0.644856
0
0.657779
0.863348
0.492538
0.581841
0.538793
0
0.558628
0.311478
0
0
0.835758
0.144243
0
0.965622
0.202825
0.578642
0
0.473949
0
0.788721
0
1.45331
1.44585
0
0
1.15805
0.579462
0.739435
0.178867
0.155841
0.726013
0.339337
1.50103
0.621653
0.550756
0.558992
0.528747
0.592087
0
0.694324
0.251594
0.605217
1.44554
0.92928
0
0.748743
1.85087
0.631237
0.839357
0.517547
0
0
0.86408
0.762106
0.701533
0.6735
2.66673
1.10241
0.164402
0.346386
0.526425
0
0.143589
0.625672
0.982224
0.337635
0
0
0.524755
0
0.315958
0.87688
0.813357
1.09924
0
0.608445
2.06707
0.849225
0
0.335878
0
0.891307
0.46175
0.537127
0.708258
0.669552
0.877967
0.462017
0.544624
0.444414
0.546035
0.343484
0.542786
0
0.264729
0.543644
0.573468
0.469528
0
0.136468
0.522021
0.265215
0.305631
0
0.384123
0.884456
0.556343
0.812542
0.474982
1.06129
1.17897
0.530768
0
0.659956
0.5081
0.531192
1.63847
0.843737
0.680589
0
0.0919127
0.53805
1.24637
0.685359
0
0.361045
0.629228
0.282338
0
0
0.283788
0
0.514759
0.40895
1.13953
0
0.999476
0.473535
0.316787
0
0.633078
0.77983
1.63573
1.26649
0.318261
1.39078
0.664203
0.575615
0.87829
0.787827
0.580605
0
1.23626
0
0
0.515607
1.0334
1.72746
0.396379
0.640177
0.984327
0.404182
0.572189
0
0.407829
0.668335
0.384404
0.562688
0.76243
1.64428
0
0.629718
0.509174
1.21693
0.945577
0
0.590106
0
1.8084
0
0.865496
0
0.911391
1.19652
0.840092
0.644632
0
1.02107
0.776673
1.06247
0
1.06404
0.593008
0.601873
0
0
0.959845
0.663839
1.53467
1.04415
0.950747
0.508617
0
0
0.215676
0.661002
1.40976
0.75426
0
0.419131
0.600657
0.72509
0.292792
0.860549
0
0.962383
1.5049
0.973854
0.279879
0
0
0.548077
0.647866
0.471053
0
0.478167
0.660837
0.244961
0
0.290866
0
0.178107
0
0.595475
0.5816
0.370769
0
0.596843
0.405865
0
0
0.359867
0.414345
0.474977
0
0
0.662353
0.512865
0
0.412965
0
0
0.597205
0.78847
0
1.38101
0.704523
0.435718
0.853921
0.32174
0
0.599245
1.0001
0.272033
0.345132
0
0.971236
0.483919
0
0
0.226315
0.647574
0.948463
0.380494
0.591304
0.607502
0
0.672092
0.422204
0.52448
0
0
0.511892
0.50057
0.790684
0.37457
0.564056
0
0
0.419965
0.666899
0.510933
0
0.716591
0.306519
0.151883
0
0.262147
0.281197
0
0.660149
0
0.347241
0.151974
0.714262
0.367541
0.772185
0.421662
0.381855
0.578342
0.292381
1.00409
0.580254
0.554248
0.605934
0.3951
0.357506
0.698145
0
0.38992
0.485044
0
0
0
0
0
0
0
0
0
0
0
0
0
0
0
0
0
0
0
0
0
0
0
0
0
0
0
0
0
0
0
0
0
0
0
0
0
0
0
0
0
0
0
0
0
0
0
0
0
0
0
0
0
0
0
0
0
0
0
0
0
0
0
0
0.212645
0.499842
0
0.566304
0.444698
0
0.384074
1.11565
0.0906295
0.678442
0.817079
0.322996
0.45289
0
0.720124
1.67907
0.646298
0.77122
0
0.385792
0.541416
0
0.41894
0.735566
0.190946
0.558714
2.53867
1.09123
0.468137
0
0.714354
0.871321
0.482944
0.2926
0
1.45211
0.518855
0
0.997042
0.589822
0.210308
1.81486
0
0.426669
0.45175
0
0.317523
1.0526
2.58602
0.482678
0
1.40074
0.528524
0
1.30789
1.15385
0.37015
1.12763
0
0.377412
1.42735
0
0.261773
0.386322
1.19215
0.795162
1.4377
0.422586
0.522402
0.0346193
0.526828
0.604651
0.847316
1.58846
0
0.894206
0.503998
0.836783
0.771796
0.638652
0.978568
0.508476
1.40133
0.591103
0.631592
0.529506
0.436289
0.80366
0.686662
1.14106
0.638947
0.405314
1.17596
1.62383
0.566464
1.19665
0
0.410679
2.26336
0.839917
0
0
0
0
0
0.979354
0.51094
0
1.02948
0.316503
0
0.539361
0.952547
0.384145
0.343237
0
0.487843
1.19568
0.529173
0.574395
0.669155
1.04608
0.901591
0
0.497387
0.483453
0.45128
0.875566
0.250321
0.221005
0.65874
1.41199
0.354738
0
0
0.76726
0.834617
0.382593
0.547774
0.512601
0.759119
0.875023
1.20223
1.89855
1.68359
1.20258
1.32818
0.930346
0
0.922324
0
0
1.17356
1.4081
0.588899
0.814914
0
0.716013
1.17327
0.867019
0.482631
0
0
0.884688
0.722661
0.37058
0
1.4292
0.905526
1.04959
0
0.450264
0.165512
0
0.518956
0.539328
0.713687
0.696693
1.18048
1.01119
0.492146
0.884268
0.830508
0.656697
2.05796
0
0.46775
0.729543
0.735155
1.13178
0
0.453435
0.682755
0
0.413273
0.610454
0.810885
0.547662
1.15204
1.14731
0.403636
0.785695
0.780125
0.590116
0.799962
0.488193
0.856443
0.836819
1.52378
0
0
0
0.477564
1.82768
0
0.998435
0.673543
1.28529
0.345202
0.427715
0.558759
0.793075
0.584764
0.554143
0
0.922134
0.524781
0.519626
0.328068
0.694366
0.585161
0.506695
0.29273
0.318138
1.87926
0.942422
0.275407
0.818508
0.353603
0
0
1.64211
0.648314
1.68355
1.92004
0.80101
0.662034
0.81996
1.17262
0.731772
0.598939
1.30943
0.487946
1.25541
0.547679
0.431548
0
0.349352
0.409997
0
2.93323
0.790803
0
0
0.53432
0
0.53199
0.398516
0.156153
1.03589
1.04193
0
0.709708
1.33681
0
0
0.634796
0.18358
0.595854
0.779132
2.7511
0.858648
0.420886
1.59891
0.899372
0
0.429737
0.388569
0.29947
1.35692
0.935399
0.768099
0
0.487539
0.61509
0.193596
0.338658
0
0.711978
0.308571
0.653314
0.780044
0
0.72652
0
0.876268
0.786624
0.639681
0.859299
0.590993
1.90676
0
1.23692
0.611553
0.682959
1.07339
0
0.543085
0.435874
0
0.391019
1.24407
0
0
0
0.461128
0
0.396771
0.558091
0.291952
1.24284
1.22121
0.795759
0.447543
0.866195
0.848287
0.621769
0
1.34744
1.0903
0.414651
0.94376
1.24346
0.634369
0.733894
0
0.374169
0.474754
0
0
1.0164
0.7624
0.861018
0.669353
1.00958
0.373099
0.389739
0
0
0.693692
0.873947
0.550367
0.370718
0.400496
0
0.454275
0.805031
0.67631
0.787215
1.4444
0.670906
0
0
0
1.41294
0.587553
0.543651
0
0.751634
1.1972
0.713501
0.89952
0.908809
1.34062
0.728147
0.754523
0.515347
1.01666
0.686202
0.755641
0.433633
0
0.137321
0.392753
0.561095
0.862527
0.823538
1.06258
0.32776
0
0
0.931016
0
1.51268
0.747704
0
0
0.384988
0.476448
1.02363
0
0.796495
0.80641
1.23542
0.470105
0
0.390685
0
1.0935
0
0.79832
0.434033
0
0
0.423767
0.783196
0
0.807482
0.574069
0.938066
0
0.333995
0.422296
0.503847
0
0.130382
0
0.585531
0.694214
0.522979
0
0.596796
0.0613048
0.5885
0
0.808452
0.519316
0
0
0.751666
1.27826
1.08266
0.749787
0
0.938465
0.646413
1.4071
0.576823
0
0.654728
0.47208
0.399236
0.349703
0.457543
0.341783
0
0
0.07342
1.57681
1.37878
0
0.671799
0
0.700418
1.17067
0.279619
0.434415
0.444009
0
0.639255
0.557535
1.19919
0.962403
1.29225
0
0.59372
0
0.45207
1.74613
1.04513
0
0.688848
0.197402
0
0.514259
0.530576
0.288439
0.882453
0.986647
0.695855
0
0.826981
0
0.360697
0.420394
0.63117
1.40142
0.995657
0.42448
0.512207
1.33546
0.579534
0.911491
0.658611
0
0
0
0.761267
0.680421
0
0
0.773309
0.50528
0
0
0.0751851
0.516736
0.311318
0.269062
0.841228
0.885952
1.25505
0.427334
0.54706
0.863315
0
1.17035
0
0.800546
0.833426
0
0
0.481491
0.467086
0.645785
1.25651
0.496712
0
0.46923
0
0.442906
1.07709
0.629597
0
1.76522
0.846034
0.415453
0
0.506857
1.10737
0.856951
0
0.183032
0
0.175527
0.643754
0
0.477378
2.6814
0
0
0.581759
0.284666
0.258321
0.239605
0.576815
0.486846
0.849215
0
0.673968
0.771325
0
0
0.604895
0.524877
0
0
0.229081
0.495073
0.558378
3.80947
2.22523
0.465112
0
0
0.774711
1.05012
0
0.179316
0.283782
0.247466
0.680294
0
0.856705
0.902253
0.536364
0
1.01658
0
0.405078
0
0.825269
0.531314
0
0.312351
0.472832
0.450139
1.37051
0.220703
0.900011
0.836979
0.751849
0.714405
0.471254
0.310556
0.595502
0.565407
0.813239
0.716088
1.00035
0.421554
0.295701
0.299969
0.524826
0.36882
0.832693
0
0.429988
0.714295
0.140314
0.850064
0.649461
1.28075
0
0
0.854235
0.36117
0.461883
0.164653
0.535939
1.21522
0.369026
0.622178
0.346465
0
0.895581
0.730407
0.843316
0.625902
0.398977
1.14452
0
0.828918
0.589951
0.479973
0
0.304724
0
0.349088
0.332795
0
0.492451
0
0.470197
0
0.0640922
0
0
1.43315
0.609938
0
0
0.905747
0.540501
0.767671
0
0.348548
0
0.61945
0.463733
0.674057
0
0.661046
0
0.876243
0
0.424098
0.113517
0.656929
0
0.548845
0
0.789939
0.619279
0
0.377762
0.404905
0
0.747429
0.392302
0.596459
0.420053
0
0.709607
0.563542
0.915592
0.863954
0
0
0.263529
0.794105
1.28738
1.5464
0.846234
0.60763
0.468237
0.342495
0
0.866774
0
0.389627
0
0.968604
0.298372
0.304187
0.599787
0.615852
0
0.303349
1.00825
0.461155
1.52944
0
0.494346
0
0.831087
0.543414
0
0.912117
0.294508
0.439334
0.963261
0.418082
0.890899
2.29778
0
0.472658
0
0.267534
0
1.157
0.960752
1.13575
0.348059
0.435931
0
0.227214
0.462749
0
0.450713
0.599434
1.16365
0.698337
0.998283
0.393963
0.651062
0
1.09127
0.421671
0.445381
0.421159
0
0
0.521828
0
0
0.508053
0.599212
0
0.597817
0.608699
0
0.213211
0.412671
0
0
0.0673213
0.599669
0.433252
0.274471
1.26243
0.491302
0.569947
0
0.936399
0.54584
0.169482
1.00199
0
0.989118
0.37931
0.777208
0.52344
0.0691418
0.400184
0
0.254892
0
0.572323
0.737798
0.51303
0.645951
0.352947
0.192616
0.643213
0.293951
1.17581
0.559365
0.541093
1.10949
0.902959
0.938002
0.263243
0
0.737398
0.371339
0.601638
0.545352
0.886132
1.16158
0.814363
0.456976
0.6447
0.3513
0.204025
1.38593
0.696156
0.868994
0.169741
0
0.342547
0.677115
0
0.368127
0
0.932199
0
0.479877
0.373905
0.206299
0.702593
0.665102
1.46678
0
0.51091
0
0.508615
0
0.0489514
0
0.678659
1.24402
0
1.11
0.62277
0.41694
0.496169
1.0912
0.449728
0.530505
0
0
0.343708
0
0.820195
0
0.835506
0.502806
0.477722
0.852201
0.574111
0
0.467609
0.498375
0.898165
0.906155
0.415338
0.680074
0
0.213109
0
0.110251
0
0.529929
0
0.44137
0.702886
0.42248
0
0
0.66569
1.0071
0.674795
0.432907
0.185061
0.262964
0.316995
0.52798
0.273204
0.673562
1.39745
0.55608
0
0.50713
0
0.258666
0.395718
0.615857
0.422927
0
1.59086
0.526487
0.550105
0.265792
0.410157
0.4751
0.594235
0.478854
0.517488
0.430013
0.334084
1.12772
0.497736
0
0.637772
0
0.690307
0.500811
0.564239
0.561884
0.24696
0.637888
0
0.700291
0.935963
0.596465
0.354202
0.282178
1.17842
0.175959
0
0
0
0
0
0
0
0
0
0
0
0
0
0
0
0
0
0
0
0
0
0
0
0
0
0
0
0
0
0
0
0
0
0
0
0
0
0
0
0
0
0
0
0
0
0
0
0
0
0
0
0
0
0
0
0
0
0
0
0
0
0
0
0
0.466577
0
0
0.374625
0
0
3.06569
0
0
0
0
0
0
0
0.939414
0
0
0.424343
0
0
0
0
0
0.916524
0
0
0
0
0
0
0
0.409051
0
0
0
0
0
0
0
0
0
0
0
0
0
0
0
0
0
0
0
0
0
0
2.14877
0.766973
1.23237
0
0
0
0
0
0
0
0
1.39136
1.10173
0.682495
1.00088
0.711591
1.03557
0
0
0.630981
1.6633
0.904731
1.20467
0.468032
0.67563
0.654067
0
1.25461
0
1.05549
1.86058
1.01912
1.64946
0.559006
0.162974
0.624177
0
0.673251
0
0.698514
1.7642
0.359177
0.759609
0
0.50265
0
0.915848
1.62751
0.813492
1.318
0.900965
0.816236
0.650858
0.891202
1.64996
0
0.467433
0
0.441571
0
1.62131
0.504654
0
0.817621
0.882893
0.631972
0
0
0
0.886069
0.276192
0.690222
0.938295
0
0
0.908649
0
0.331283
0
0.639547
0.569442
0.503974
0
0.535183
0.796756
0.636658
0.691697
1.0373
0.999989
0.688214
0.974268
0.688422
0.24545
1.04067
2.17903
1.09567
0.801725
0
0.465194
1.04584
0.92467
0.492071
0.492442
0.468297
0.605137
1.34227
0.572286
0.759782
1.02773
0.915753
0.605678
0
0.888725
0.622712
1.60886
0.869343
0.464548
0.29612
0.247509
0.798434
0.355211
0
0.994005
0.424905
0.580018
1.14135
0.965099
0.63666
0.698985
1.35795
0.948462
0.402905
1.02946
0.324818
0.810958
0.577757
1.09216
0
0.593354
0
0.444864
0.726605
0
0.544713
0
0
0
0.893949
0
0.357169
0
0
0
0
0.746088
0.530747
0.587226
0.361384
0.533701
2.28523
0.678923
0.534075
0.637848
0.283692
0.371605
0.965242
0.716257
0.767285
0.571997
0.345888
0.473861
0.837171
0
0.721886
1.35641
1.1216
0.322762
0
0
0.567739
0.570686
0
0
0.786753
0.407268
0.401463
0.545614
1.54847
1.22216
0.923684
0
0.620504
0.665207
0.661448
0
0.778675
0.60051
1.20642
0.357428
0.387177
0.609514
0.481188
0
0.746807
1.90052
0.737162
0.488483
0
0.574888
0
0.801331
0
0
0.736667
0.519726
1.40023
0.456892
1.05241
0
0
1.01813
0
0.292038
0.790743
0.420392
0.873175
0
0
0
1.0671
0
0.45268
0.346251
0.447509
0
0.790323
0.793349
1.66742
0.884476
0
1.38481
0
0.494462
0
0.38318
0.768006
0.642315
0
0.924891
0.455343
0
0.688743
0.854605
0.834373
0.92257
0.126813
0.538686
0.855219
0.266944
0.276129
0.168617
0
0.466032
0.537486
0.545556
0.608652
1.05404
0.641096
0.995706
0.675181
0.523605
0
0
0.359396
0
0.316135
0.909536
1.87861
0.5362
0
0.558119
1.01015
0.31557
1.3056
0.994865
0
0
0
0.143584
0.635141
0.588627
0.804902
1.16297
0.511514
0.833166
0.801162
1.02042
0.562984
0
0.44516
0
1.05797
0
0.524305
0
0.511233
0.691024
1.00806
0.441613
0
1.41178
0.729653
0
1.00807
0.648359
0.563299
0.829518
0.73577
0.564492
0.642035
0.841985
0.605072
1.02114
0.360234
0.326144
0.790374
0.75203
0.394381
0
0.232465
0.391779
0.451517
0.502588
0.933113
0
0.436132
0.279857
0.238533
1.29177
0.349641
0.812202
0
0
1.9793
0
0.268897
0.805667
0.973371
0
0.914462
0.758232
0.614224
0.555646
0
0.669929
1.06412
0.870304
1.37643
0.402238
1.36899
1.16499
0.690941
0
0.868591
0.962968
0.504055
0.65365
0.444642
0.673312
0
0
0.687779
0.105487
0.621928
0.240362
1.30043
1.01056
0.951437
0.287369
1.12074
0.568043
0.546978
0.878935
0.876829
0.748663
0.447446
0.483809
0.320716
0.887975
1.49387
0.53694
0
0.533407
0.39573
0.555943
0
0.668625
0
0.500414
0.733585
0
0.153085
0
0.428482
0.90487
0.48305
0.787531
0.445003
0
0
0.404158
0.755944
0.717516
1.13306
0.611831
1.10041
0.302438
0
0
0.79204
0.360245
0.524615
0.338996
0.663295
0.274584
0
1.53849
0.566677
0.85941
0.75414
0
0.629668
0.475495
0.418764
0.615323
1.51742
0.866568
0.225317
0.730734
1.06564
0.54883
0.165488
0
0.602951
0
1.17185
0
1.06454
0
0
0.310976
0.727816
0.75391
2.37097
0.693941
0.235362
0.543472
0
0
0
0
1.01896
0.724531
0
0
0
0.561959
1.21455
0.812699
0.770181
0
0.669629
0.560942
0.445112
0.395471
0.659763
0
1.72512
1.23737
1.26597
0.988278
0.616866
0.578044
0.513207
0.730232
0.675817
0.489246
0.413441
0.643812
0.957826
0.486455
0
0.512076
0.715908
0.280208
0.841063
1.10107
0
0
0.416735
0
0
0
0.327261
0.371975
0.388212
0
0.510849
0
1.01694
0
0.427973
0
0
0.101559
0.459298
0.4331
0.568679
0
0.180742
2.03294
0.779636
0
1.41741
0.725275
0
0.609554
0.775775
0.61926
0
0.621992
0.535055
0.0615011
0.721661
0.614389
0.787427
0.36339
0.822815
0.187778
0.482769
0.618226
0
0.41106
0.283721
0.548213
0.711481
0.126832
0
0
0
0
0
0
0.412554
0.60327
0
0.295215
0
0
0.6234
0
0
0.88051
0.243282
0.453111
1.03561
0.88271
1.03313
0.753812
0.975509
0.103028
0.11111
0.235833
0
0.528569
0.300207
0.631413
0
0.369874
0
0.449794
0.553998
0
0.0796256
0.667801
0
0.786679
0.724424
0.547855
0.972798
1.29478
0.698819
0
0
0.440576
0.419027
0
0
0.75276
0.241271
0.200793
0.571219
0
0.71779
0.521693
0.450589
0
0.510993
0
0
0.304569
0
0.470747
1.02527
0.462538
0.19154
0.437917
0.808284
0.493905
0.658498
0.778496
0.672748
0
0.398797
0.756125
0.549396
0
0.498328
0
0.457863
0
0.318753
0.760541
0.797829
1.04091
0.705262
0.530055
0.590056
0.60794
3.39492
0.987355
0
0.677506
0.545248
0.435274
0
0
1.25344
0.513815
0.503146
0.509138
0
0.593961
0.610941
0.591342
0
0.49584
0
0.0627174
0
1.23392
0.742519
0
0.881866
0.54715
0.579753
0
0.820379
0.835858
0.497188
0.916509
0
1.33504
0.571377
0.868779
0.672718
0.132189
0
0.954552
0.130249
0
0.506516
0.874892
0.165919
0.392943
0.460168
0.494897
0.532449
0.515279
0
0.295677
0.446544
0.560466
0.718404
0.831634
0.885353
0
0.751731
1.17573
0.621976
0
0
0.916815
0.586216
0
0
0.966047
0.470581
1.14153
0.787033
0
0.486736
0.176149
0
0.427109
0
0
0.358322
0
0.485384
0
1.16535
0.714887
0.473028
0.607651
0
0.508377
0.704355
0
0.556029
0.240419
0.633946
0
0.589873
0.351074
0
1.74926
0.446931
0
0.353165
0.721552
0.555003
0.213901
0.665286
0.602522
0.517751
0.386998
0.400021
0
0.574041
0
0.410176
0.225206
0.377517
0.60771
0.989316
0.223293
0
0.747111
0
0.40896
0
0
0.750484
0.747386
0.834232
0.899145
0.123614
0
0.879188
0
0.467551
0
0
0.418686
1.41964
0.434001
0
0.644739
0
0.397823
0
0
0.908217
1.63337
0.7067
0
0
0.307954
0.42071
0
0.443946
0.256903
0
0
0.606288
0.984694
1.0352
0.699628
0.529359
0
0.638921
0.143037
0.675461
0
0.860279
0.909957
0
1.10237
0.733781
0.941075
0.511963
0
0.415557
0
0.305278
0.854665
0
0.382685
0
0.362034
0
0.596187
0.366489
0
0.378055
0
0.485549
0
0.39817
0
0.247485
0.379931
0.675762
0.565608
0.99074
0
0.201185
0.64586
0
0
0.285741
0
0.148617
0
0.572457
0
0.396217
0
0.304251
0
0.444482
0
0.401076
0
0.659194
0
1.68067
0.407079
0.641595
0
0.371281
0
0.524335
0.552208
0
0
0.647991
0
0.401694
0
0.45121
0
0.838243
0
0.425263
0.811247
0.541159
0.66371
1.02861
1.17986
0.778188
0.618523
0
0
0.591957
0
0.483701
0
0.345975
0.222916
0.411953
0.337732
0.59163
0.315923
0.54769
0.550349
0.589455
0.48986
0.451355
0.420681
1.06409
0.895337
0.53429
0
0.184332
0
0
0
0
0
0
0
0
0
0
0
0
0
0
0
0
0
0
0
0
0
0
0
0
0
0
0
0
0
0
0
0
0
0
0
0
0
0
0
0
0
0
0
0
0
0
0
0
0
0
0
0
0
0
0
0
0
0
0
0
0
0
0
0
0.289479
0.645759
0.658707
0.521326
0.383939
0.511949
0.637145
1.87059
0.286218
0.733522
0
0.684191
0.499008
0.388849
0.525174
1.13256
0.256832
0.435805
0
0.730391
0.560433
0.894627
0.72185
1.22703
0.279049
0.558143
0.924893
0.525989
0.53973
0.895548
0.662466
0.822738
0.157333
1.59848
0
0.148881
0.548171
0
0.597577
1.32023
1.49359
0.509167
0
1.03914
0.245958
0
0.866135
0.701938
0.219616
0.96561
0
0.264727
1.27777
1.62709
0.772944
0
1.16538
0.497789
1.0196
1.64255
0.813035
1.61244
1.3521
0.589007
0
1.18667
0.872037
0.705118
1.00625
0
0.959557
1.08366
0.534366
1.33085
1.01633
0.788641
1.7541
0.592982
0.913219
0.931575
0.977194
1.4319
0.971389
1.04148
1.27074
0.967468
0.888317
0
0.418286
0
0.440744
1.29461
0.784884
1.09057
0
0.538926
0.824036
1.00638
1.20865
0.631792
1.24488
0
0
0
0.654791
0.531375
0
0
0.934516
0.510705
0
0.376999
0.956862
0.903766
1.34956
0
0.850284
1.04695
0
0.459294
0.599826
0.642137
0.725865
0.468924
0
0.622401
0.61406
0.836156
0
0.70083
0
0.565781
0
0
0
0.528917
1.34976
0.848185
0
0.694126
0
0.697291
0.737764
1.05783
0
0.216078
0.584192
0
0.732558
0.41019
0.396274
0.907543
1.18475
0.352128
0.605549
0.913209
0
0.413126
0
0.798326
0.403258
0.610035
0.500387
0.469462
0.437904
0.949796
0.648176
0.586775
1.19319
0.460795
0.666916
0.781004
0
0
0.419416
1.78621
1.00228
0.39666
0.933481
0.647973
0
0
0.993793
0.746853
0.487783
0
0.523529
0.214649
0.790689
0
0.856937
0.530272
0
0.753922
0.249145
0.305863
0.423332
0.722337
0
0.360244
0
0.395337
0.56392
0
0.738399
0.605726
0.840005
0.346098
0.614119
0.40509
0.401817
0
0
0
0
3.31967
3.57042
0.238694
1.37148
0.474016
0.626082
0.102337
0.386716
0
0.332405
0.471469
0.276655
0
0.503925
0.563584
0.568406
1.01487
0.63937
0.745943
0.628521
0.926096
0.470335
0.542817
0.460483
0.422566
0
1.18718
0.838688
0
0.65857
1.6416
0
0.507718
0.407083
0.773511
0.964084
0
0.593989
0.555544
0.75014
0.336318
0.404359
0.827599
0
0
1.03725
0.136514
0.619502
0
0.398646
0.57519
1.41839
0.464231
0
0.738224
0.927482
0.329674
0.530575
0.285499
0
0.885801
0.758234
1.44572
0
0.525909
0.226474
0.378701
0
0.479936
0.646751
0.34139
0
0.874492
0.772602
1.65605
0.477594
0
0
0
0.69475
0
0.549294
0.478312
0.515697
0.813047
0.361693
0.699543
1.03775
0
0.476757
0
0.738525
0
0.446589
0
0.697259
1.16126
0.347805
0.413026
0.546314
0.789075
0.770932
0
0.582156
0
0.522825
0.894138
0.687554
1.22571
1.0995
0.439622
0.848846
0.546178
0.468212
1.03617
0
0.891001
1.45256
0
0.953554
0
0.35172
0.7505
0.781825
0.827933
0.260653
0.892015
0.837506
0.83227
1.45492
0
0.44197
0.526048
0
1.18008
0
0.559009
0.567655
0.643122
1.45623
0.3272
0.812932
0
0.737885
0.754531
0.672112
0
1.13943
1.14506
0.93226
0
0.652759
1.20024
0
0.523345
0
1.01637
0.99054
0.643428
0
0.480286
1.26298
0.206432
0.442833
1.57904
0.751621
0.642914
1.02379
0.630499
0.827804
0.572597
0
0.738985
0.726203
0.486346
0
0
0
0.772669
0
0.555042
0.299282
0.508443
0
0.394771
0.336427
0
0.56746
0
0.677563
0
0
0.870822
1.04434
0
0.983028
0.45762
1.19449
0.84316
0.916088
0.608849
0
0
0.543786
0
0.562578
0
0
0.389073
0.390769
1.20082
0.672101
0.896499
0
0.704842
0.666618
0.655046
0.766633
0.798654
0.675183
0.558587
0.858985
0.562266
0.541668
0.463194
0.547531
1.2875
0.786889
0.69984
0
1.13738
0.565009
0
0.425576
0.0648411
1.09045
0.48076
0.652182
1.58149
0.789225
0
1.00277
1.34095
0
0.254372
0.57047
0.340936
0.511524
0.603898
0.675225
0.169152
0
0.84963
0.484977
0.801935
0
0.604595
0
0.481482
0.358192
0.581056
0.755474
0.184981
0.400516
0
0.622738
0
0
0.446481
0.418264
0.780088
0.777259
1.27544
1.81085
0
1.42028
0.580978
1.01573
0
0.404866
0
0
1.33277
0.871923
0.894079
0.311843
0.924681
0.859266
0.635687
0.985512
0.888555
0.818825
1.30938
0.570348
0.563913
0.702438
1.10503
0
0.566855
0
0
0.93257
0
0.36948
0.359852
0
1.16056
0.441237
0
0
0.644973
0.135243
0.519635
0
0.552892
0.25219
2.17879
1.87908
1.32772
0
0.858154
0.83023
0.352252
0
0
0.259818
0
0.879749
1.20172
0.259075
0.901666
0
0.552291
0.87015
0.942628
0
0.670627
1.52264
0
0
0.418615
0.488712
0.617588
0.338356
0.304978
0.423042
0.903229
0
0
0.371625
1.07589
0
0.393973
0
0.74789
0.550344
0.771865
0
0.065493
0
0.487484
0.438121
1.09544
0
0
0.460221
0
0.468963
0.562505
0.825254
0
0.519134
1.7431
1.13777
0.372736
0.289918
0.755991
0.660654
0
0.687205
0.449883
0.403826
1.01992
0
0.913123
0.191632
0.723406
0.242126
0.35176
0.466401
0.163523
1.09978
0.819826
0.433922
0.875945
0.425665
0.474505
1.13216
0.48092
0.897766
1.00942
1.38331
0.65985
0
0.515687
0.319161
0.765994
0.794033
0.318228
0.428044
0.695516
0.676917
0.76454
1.29022
0
0.739106
0
0.556913
0.899328
0.86667
0.605317
0.393271
1.34497
0.629887
0.802738
0.409978
0
0.470358
0.731729
0.492201
0
0.629659
0
0.427911
0.369513
0.524892
0.56322
1.05073
0.334413
0.459853
0
0.620219
1.03759
0
0.436134
0
0
0
0.603307
0
0
0.379894
0.606362
0.569822
0
0
0
0.984967
0.383909
0
0
1.29815
0
0.768254
0.6048
0
0.173888
0
0.434293
0.597785
0.47954
0.426924
0
0.871288
0.749602
0.846788
0.534321
0
0.579686
0.84519
0.78316
0.713771
0.912351
0
0.653149
0
0.603555
0.961351
0.565915
0.273063
0
0.43801
0
1.29047
0.398741
0.678383
0
0.901448
0
0.733888
0
1.79912
0.704633
0.084654
0.151618
0
0.858241
0.478521
0.913321
0.909296
0
0.947427
0
0.635419
1.1315
1.25444
0.478645
0.239986
0.515888
0.493061
0
0
0.4985
0.343007
0
0.679917
0
0
0.597022
0
0.782666
0
0
0.532255
0.655029
1.00297
0.763657
1.06029
0.513627
0.804976
0.609569
0
0
1.03939
0.258685
0.494828
0.762644
0.760388
0.711039
0.627731
0
0
0.342437
0.486763
0.584223
0.639506
0.505934
1.6343
0.783119
0.321798
0.33078
0.350034
0
0
0.67999
0.497016
0
0.130615
0.846006
0
0.144292
0.624752
0.843941
0
0.445321
0
0.104524
0.615341
1.56495
0
0.677299
0.945253
0.559879
0.521775
0
0.867217
0
1.98932
0.446399
1.76648
0.220134
0.603827
0.584023
0
0.313114
0.407356
0
0.3569
0.887144
0.654207
0.650974
0.701647
0.568119
0
0.569285
1.39863
0.770814
0.363458
0
0.498898
0
0.866862
0.746608
0.64378
0.447434
0.460027
0
0
1.07533
1.05585
0.489008
0.606949
0.624373
0
0.309749
0.415059
0.573853
0.272656
0.36829
0
0.626526
0.561061
0.312603
0.325698
1.06408
0
0.497781
0.337074
0.503555
0.625596
0.915337
0.510656
0
0
0.535279
0
0.640557
0
0
0.603344
0.565261
0.690173
0
0.554768
0.485063
0
0
0.916739
0.245966
0
0.331529
0.706212
0.564015
0.584126
0.631948
0.638753
0.581392
0.621344
0.754577
0.648617
0.390221
0.203758
0.934218
0.665686
1.17487
0.512202
0
0
0.505417
0.636989
0.357788
0.403659
0
0.666878
0
0.691634
0.0587591
0
0.62227
0
0.352443
0
0.514263
0.209008
0
0.642485
0.628584
0.572269
0.947599
0
0.514629
0.20213
0.473533
0
0.321561
0.989692
0.148872
0.676835
0
0
0.739989
0.423968
0
0.292152
0.2778
0.566751
0.639452
0.644245
0.643062
0.431789
0.551159
0.420366
0.548987
0.743126
0.907627
0.419466
0.720543
0
0.278299
0
1.01576
0.138433
0.240715
0.247962
0
0.425979
0.776809
0
0
0
0.159429
0.569795
0.253062
0.503816
0.380846
0
0
0
0
0
0
0
0
0
0
0
0
0
0
0
0
0
0
0
0
0
0
0
0
0
0
0
0
0
0
0
0
0
0
0
0
0
0
0
0
0
0
0
0
0
0
0
0
0
0
0
0
0
0
0
0
0
0
0
0
0
0
0
0
0.396287
0.350843
0
0.640284
0.600128
0
0.457803
1.17474
0.383186
0.551536
0
0.362093
0.749826
2.37839
0.581192
0.588122
0.127847
0.57113
0
0.429409
0.669936
1.66326
0.370728
0.849335
0.299983
0.34175
0.879235
0.724804
0.330406
0
0.295217
0.945264
0.373651
0.162486
0
1.71271
0.783221
0
0.465522
1.25161
0.45828
1.18775
0
0.374265
1.3366
1.1389
0.167998
0.87034
0.744969
0.414796
0.934117
0.716138
0.491977
0.538507
0.581924
0.571399
0.176108
1.67052
1.09529
0.51867
1.09034
0
0.249647
1.42876
1.00192
1.47754
2.11753
0.947133
1.19093
1.4826
0.572678
0.618573
0
0.279062
0
0.898646
0
0.818393
0
0.730803
0.497328
0.843872
0.983137
0.85651
0.552814
0
0.938048
0
1.16145
0
0.786712
0
0.578034
0
1.03579
0
0
0.820873
0.268327
0
0.409
1.50017
0.465785
0.436669
0
0.626459
0.544576
0
0.883038
0.412944
0
0.966299
0.776015
0
0.684179
0.376532
0.768737
2.11921
0.844129
0
1.23589
0.129855
0
0
0.351655
0
0.43081
0.754145
0
0.81306
0.389201
0.742207
0.198213
0.677239
0.675361
0.9371
0
1.23817
0.871136
0.946162
0.845736
0
0.445077
1.06032
1.73727
0.68696
0.996593
0.807902
0.842868
0.506303
0.658282
0.426226
0
0.601141
0
1.0478
0
0.504928
0
0
0.329606
0.362452
0.275621
0.692402
0.617052
0
0.291473