<?xml version="1.0"?>
<VTKFile type="RectilinearGrid">
<RectilinearGrid WholeExtent="0 32 0 32 0 32" Origin="0 0 0" Spacing="1 1 1">
<Piece Extent="0 32 0 32 0 32">
<PointData>
</PointData>
<Coordinates>
<DataArray type="Float32" format="ascii">
0 0.524874 1.04975 1.57462 2.0995 2.62437 3.14924 3.67412 4.19899 4.72386 5.24874 5.77361 6.29849 6.82336 7.34823 7.87311 8.39798 8.92285 9.44773 9.9726 10.4975 11.0224 11.5472 12.0721 12.597 13.1218 13.6467 14.1716 14.6965 15.2213 15.7462 16.2711 16.796 
</DataArray>
<DataArray type="Float32" format="ascii">
-5.03879 -3.62163 -2.20447 -0.787311 0.629849 2.04701 3.46417 4.88133 6.29849 7.71565 9.1328 10.55 11.9671 13.3843 14.8014 16.2186 17.6358 19.0529 20.4701 21.8872 23.3044 24.7216 26.1387 27.5559 28.973 30.3902 31.8074 33.2245 34.6417 36.0588 37.476 38.8931 40.3103 
</DataArray>
<DataArray type="Float32" format="ascii">
0 0.524874 1.04975 1.57462 2.0995 2.62437 3.14924 3.67412 4.19899 4.72386 5.24874 5.77361 6.29849 6.82336 7.34823 7.87311 8.39798 8.92285 9.44773 9.9726 10.4975 11.0224 11.5472 12.0721 12.597 13.1218 13.6467 14.1716 14.6965 15.2213 15.7462 16.2711 16.796 
</DataArray>
</Coordinates>
<CellData>
<DataArray type="Float32" Name="Scalar" format="ascii">
0
0
0
0
0
0
0
0
0
0
0
0
0
0
0
0
0
0
0
0
0
0
0
0
0
0
0
0
0
0
0
0
0
0
0
0
0
0
0
0
0
0
0
0
0
0
0
0
0
0
0
0
0
0
0
0
0
0
0
0
0
0
0
0
0.299401
0.566883
1.75327
0.454442
0.414493
0
0.529794
0.760747
0.102052
0.194915
1.36713
0.314408
0.299905
0
0.337616
1.03718
0.14031
0.211254
1.3334
0.458017
0.459436
0
0.493281
1.10879
0.265876
0.292655
0
0.101181
0.378783
0
0.227693
0.641882
0.124397
2.49359
0
0.192064
1.83416
0
0.0554376
0.167709
0.382775
0.212715
0
0.704302
0.255166
0
1.58999
1.38936
0.422168
0
0.804683
0.306443
0.835934
0
0.213262
0.728792
1.07588
0.046335
0
0
0.4455
0
1.48097
0.654262
0
0.509289
0.427162
0
0.398904
0
1.16179
1.31224
0.935627
1.09769
1.11177
0.394874
0.782455
0
1.04124
0.850336
0.47619
0.311911
0
1.11983
0.367718
0
1.1084
2.77586
0.656928
0.422357
0
0.548987
0.694449
1.4898
0.365466
0.435018
1.13274
0.934202
0.399757
0.539257
0
2.47694
0.561191
0.416444
0.605163
0
0.645822
0
0.481695
0
0.636173
0
0.587647
0.907163
0.409583
0.858585
0.618936
0
0.592463
0.258672
0.900222
0.631563
0
0.443508
0.303213
0.544494
0.376
0.725389
0.608883
0.601093
1.02086
0.949235
0.807345
0.348614
0.416493
0
0.417103
0
0
0
1.7879
0
0
1.98034
1.13758
0.755136
0.34512
0.884376
0.561716
0.5518
0.525281
0.246147
0
0
0.607937
1.04991
0.706657
0.650819
0.282036
0
0.516964
0.375511
1.09402
0
0.341897
0.752659
0
0.521443
0
0
0
0.558947
0.190036
0.533773
0.74982
0.835244
0.412617
1.06567
0.658498
0.258555
0
0.808903
0.747302
0.665002
0.928238
0.555244
0
0
0
0.6384
0.919601
0
0.802568
0.776482
0
0.414175
0
0.84597
0
0
0
0
0
0.439993
0
0.466135
0
0.655058
0.584335
0.408416
0
0.504482
0.631388
0.227452
0.500425
0
0.523653
1.12605
0.280164
0
0
0.895754
0
0.560646
0.609807
0.523917
0.896471
0
0.49054
0.234967
0.742993
1.27048
0.661056
0.519509
0
0.482706
0.338963
0.505142
0
0.520189
0
0.89271
1.74742
0.599139
0.511401
0.291354
0.480629
0.341742
0.529183
0.410897
0.879662
1.10382
0.639917
0.563444
0
0.339677
0
0.390151
0.503587
0
0.512733
1.1537
0.697005
0
0.963008
0.49967
0.477036
0.468179
0
0.568192
0
0
0
0.273531
0.465366
0
0.377606
0.111728
0.382642
0.557714
1.23589
0.621699
0
0.46883
0.666085
0
0.179031
0.286569
0.432956
0
0
0.755921
0
0.78864
0
0.951438
0
0.793433
1.30312
0.778125
0.386467
0
0
0.437041
0.980024
1.03599
1.10224
0.518549
0
0.391159
0
0
0
0.599176
0.136087
0.208012
0.230052
0.429384
0.628275
0
0
0.759568
0
0.688795
0
0
0.437607
0.264043
1.70806
0.847991
0.856681
0
0.47533
0.312345
0.405257
0.326373
0.557012
0
0.346778
0.586031
0.327831
0.428982
0
1.19544
0.577448
0
0.465964
0.948837
0.966671
0.492305
0.276178
0.71564
0.548213
0.661023
0.606076
0
1.32477
0.864098
0.46498
0.563043
0
0.996455
0
0.854346
1.39715
0.378128
0
0.530535
0.665377
0
0.405325
0
0.240059
0.752782
0.776754
0.815988
0
0.555416
0
0.425624
0.36988
0.52522
0.50911
0.852869
1.05072
0.858132
0.971378
0
0.445826
0
0.408572
0.592528
1.48715
1.0463
1.10063
1.20845
0.766058
1.4851
1.27755
0.65888
0
0
0
0.688562
0
0.435274
0.775623
0
0.50644
0.502328
0.706422
0
0.452061
1.423
0
0.220784
0.679033
0.810029
0
0
0.283628
0.463918
1.84204
1.27527
0.702436
0
0
0.5315
1.19395
0.40223
0.50567
0
0.345501
0.937496
0.810552
0.540118
0
0.626483
0
0
0.489896
0.695725
0.802116
0
0.435389
1.87365
2.31673
0.771277
0.598499
1.08512
0
0.415743
0.451667
0.327252
0.577028
0.24614
0.112931
0
0
0
0.566229
0.187171
0.720949
0.399639
0.607287
0.470674
0.413664
0
0.750087
0
0.675444
0
0
0
1.08685
0.280518
0.664779
0.526905
0
0.679141
0.229512
0
0.694416
0
0.262504
0
0.142329
1.12749
0.317082
0.213481
0.618741
0
1.07822
0
0
0
0.48479
1.45511
0.887039
0
0.596938
1.04973
0.81525
0
0
0.303675
0
0.365353
0
0.924645
0
0.820854
2.58186
0.577775
1.00667
0.474701
0.397987
0
0
0.800024
0
0.443355
0.423441
0.408804
0.462994
0.373614
0.739312
1.41137
0.717939
0.747891
1.03349
1.88754
0.264607
0.593974
1.14066
0.413678
0
0.877295
0.621692
0
0.262571
0.321581
0.542436
0.812793
0.839098
0
0
0
0.359997
1.15923
0.258439
0.57091
1.15395
1.91638
0.979592
0.617134
0
0
0.542831
1.21305
0.135049
1.17632
0
0.662861
0
0
0
0.458946
0
0.40734
0.815398
0
0.836899
0.383032
0.977557
0.676422
0
0.464103
0.473499
0.283857
0.404497
0.0546274
0.398388
0.377736
0.714433
0.679122
0
0.812407
0.428941
0.252222
1.02318
0
0.184961
1.16416
0.796061
0.497387
0
0.740568
0
0.614281
0.940634
0.645465
0.666066
0
0.555254
0
0.677928
0
0.846167
1.16237
0.870861
1.25836
1.01561
0.713816
0
0.597994
0.4479
0
0.41601
0
0.690146
0
0.54577
0.927143
0
0.389014
0.421921
0.907861
0.75148
0
0.541228
0
0.495741
0.534095
1.06488
0.738757
0.881596
0.796567
0.654779
0.701817
1.92559
1.15062
0.826713
0.856486
0.765486
0.753676
0
0.318558
0.968893
0
0.860433
0.419575
0.219259
0.618919
0.589091
0.571177
0.115664
0
0.780518
0.354056
0.433347
1.32922
0.666945
0
0.336346
0.763232
0.677867
0.364129
0.803982
0.495092
1.18079
0.57373
0.574211
0.556226
0
0.74274
0.38259
1.26822
0.808688
0.690932
1.20315
0.444306
1.50645
0
0
0.394515
0.344788
0.30306
0.428369
0
0
1.09039
1.16409
1.26576
0
0.757502
1.49405
0
0.0917412
0
0
0.554171
0.499901
0.804493
0.92999
1.30155
1.43846
0.746256
0
0.625883
0.510836
0.810779
0
0.8908
1.19321
0.425981
0.997542
0.648413
0
0.897624
0
0
0.385569
0.517793
0
0.472907
0.734159
0.641628
0
0.535562
0
0.561041
0
0.692243
0.634836
0.28639
3.3902
1.21341
0
0
0.275319
0.37494
0.391259
1.00695
0.910584
1.302
0.507764
0.306013
1.12978
0.450789
0
0.967057
0.396334
0.749838
0.351051
1.02458
0
0.829332
0.689863
0
0.543282
0.71499
0.458229
0.573352
0.737071
1.3644
0
0.820254
0.646055
1.03169
0.903015
0
0.535298
0
0.460481
0.967442
0
0.256815
0.628902
0.9585
0.81672
0.501546
1.64058
0.598564
0.568868
0.499445
0.822393
1.14
0.949053
0.421051
0.986249
1.35967
0
0
0.225103
0
0.391636
0.650923
0.75096
0
0.932657
0
0.670288
0.839375
0
0
0
0.410034
0
1.09853
0.640816
0
0.341983
0
0.50021
0.231461
0.477849
0.751505
0.530709
0.675082
0.781645
0.614151
0
0.490646
0.637741
1.95118
1.47199
0.939724
0.526668
0.416586
0.394814
1.15609
0.787725
0.732193
0
0
1.25174
0
1.05028
0
0.407229
0.934459
0
0
0.54599
0
0.451883
0
0.209354
1.04956
0.530283
0.998902
1.43036
0.666821
1.32044
0.274772
0.751221
0.324099
0.669613
1.12246
0.623764
0
0.710858
0
0.727952
0
0.738033
0
3.30501
1.57552
0.564719
0.442405
0.364125
0.356181
0.501228
0.728895
0.974806
0.727082
0.767467
0
1.07496
1.37787
0.952105
1.34287
0
0.177074
0.621352
2.29179
1.24469
0
1.18172
0.915893
1.16635
0.759595
1.10748
0
0
1.39689
0.86571
0.618834
1.03132
1.32525
0.552647
0.669546
0.182107
0
0.640412
1.06157
0
0
0.638198
0
0
1.1547
0
0.718973
0.536255
0.254685
0.618115
0.488122
0.310277
0.784181
1.12681
0.816863
0.731875
0.692533
0.696379
0.36677
1.33616
0.812923
1.26145
0.0559533
0.387404
0.338678
1.14944
0.435591
0.408826
1.43252
0
0.724779
0.894307
1.12524
0.637723
0.564362
0.814605
0.834731
0
0
0.872933
0
0.504722
0
0.555099
0.812111
1.19377
0.894883
0.985432
1.5499
1.17817
0.90931
0
0
0
0
0
0
0
0
0
0
0
0
0
0
0
0
0
0
0
0
0
0
0
0
0
0
0
0
0
0
0
0
0
0
0
0
0
0
0
0
0
0
0
0
0
0
0
0
0
0
0
0
0
0
0
0
0
0
0
0
0
0
0
0
0.244667
0.486945
0
0.478481
0.41443
0
0.47947
0.903802
0.317536
0.516854
0.742592
0.573467
0.719362
2.08828
0.601986
0.775832
0.269778
0.678777
0
0.480103
0.37539
0
0.516722
1.16271
0.235539
0.269
0.796481
0.612614
0.712669
2.89135
0.49884
1.07245
0
0.27099
0
1.03422
0.353238
0
1.10138
2.33739
0.637266
1.66853
0
0.263149
2.54467
0
0.3193
2.12522
0.55368
0.266784
1.00009
1.56222
0.149959
0
1.07546
1.09242
0.293933
0.426794
0
0.122523
1.0123
0
0.65985
0
0.345473
0
0.632381
0.753245
0.954778
1.03715
0.824806
0.237856
0
1.63138
2.81942
0
0.804288
0.144403
0.34282
0.535902
0.676317
0.955638
0.622685
0.536351
0.843931
0.607285
1.25607
0.629254
0.605557
0.442881
0.657866
0.630934
0.810655
0.622642
0.601956
0.943599
0
0.538847
0
0
0
0.660024
0.755697
0.414897
0
1.17856
0.698177
0
1.1468
1.11213
0.87184
0.827966
0.789764
0
0
0.604129
0.823482
0
0.283894
0
0.186428
0.636747
0.498352
0.452915
0.433074
0.571786
0.765519
0
0
0
0.293218
0.562507
0.95605
0
0
0
0.460981
0
0.82997
0.603561
1.35991
0.792862
0.875805
0.813144
0.597076
0.351419
0.254245
0.229719
0.639943
0.280292
0.780868
0.573774
0.479644
0.670693
0.284584
0
1.2116
0.750367
0
0.442583
0.274329
0
0
0
0.315435
0.388588
0.360823
0.648772
0.528766
0.652426
0.903137
0
0
0.975532
0
0
0.314626
0.377994
0.551666
0.564136
0.729659
0.649535
0
0.440713
0.518051
1.33197
0.590968
0
0.566371
0
0.83997
0.725821
0.91489
1.06804
0.780592
0
1.18874
0.828723
0.830454
0.39462
0.169438
0.696552
0.693824
0.52197
0.465955
0.282631
0.759795
0
0.522753
0.10453
0.15991
0.378503
0.333045
0
0.983831
0
0.381031
0.871814
0.389993
0.090007
0.25253
0.972658
1.67648
0.914528
0
0
0.699528
0.692093
0.848757
0.497811
0
0.805659
1.18367
0.367747
0.433457
0.59342
0.748531
0.360071
0.576691
0.221822
0.0526977
0.466623
1.24269
0.9392
0
0
0.453295
0
0.603282
0.93526
0.555145
0.814102
0
0.683371
0.626319
0
0.48007
0.732826
0
0.701753
0.536521
0.447223
0
1.13128
0.498104
0
0
0.367937
0.475243
0.162264
0
0.503891
0
0.608869
0
0.324615
0
0
0.396168
0.575201
0.772094
0
0.271252
0
0
0.471187
0.312758
0.494183
0.874398
0
0.594235
0.343067
0.870711
0.676429
0.323731
0.717274
0
0.385186
0.234483
0.555888
0
0
0.5436
0.345677
0.29246
0.840657
0.0947172
1.20547
0
0.324909
0
0.47747
0
0.32703
0.16635
0.455877
0.513595
0.468898
0.576094
0
0.860637
0.791604
0.560998
0.465065
0.784906
0.843436
1.15017
0.733521
0.657884
0.386159
0.806207
0.905883
0
0.190977
0
0.521211
0
0.454791
0.677366
0.698748
0.300752
0.416242
0.672687
0.48038
0.954568
0
0.671726
0
0
0.567356
0
0.19276
0.484119
0.867674
0
0.744173
0.55897
1.98051
0.564794
0.189037
0
1.51196
0.893412
1.09116
0.534192
0.104306
0.904365
0
0
0.833244
0.822211
0
0.301451
0
0.494584
0.507175
0.693139
0
0.59792
0.782741
0
0.308921
0
1.68503
0.599259
0.5605
1.17753
0.628515
0.390918
0
0.391932
0.340793
0.441955
0.441041
2.13811
1.15881
0.542639
0.783663
0.8763
0.953743
0
0.668737
0.549288
0.62002
0.312423
0.76539
0
0.697564
0
1.37099
0.425868
0.596713
1.80305
0.256053
0.706946
0
0.555897
0
1.63073
0.999317
0.392312
0
0.424791
0.724185
0.464211
0.729417
0.578511
0
0
0.218724
1.21544
0.619932
0.80908
0.523073
0
0.408448
0.530184
1.27605
0.779959
0.622182
0.831855
0
0.601061
0.146242
0.794411
0.394726
0.642368
0.509674
0.806878
0.420771
0.338629
0.349192
0.292159
0.519454
0.514019
0.373839
0.81323
0.468969
0.603879
0.757002
0.698964
0.76721
0.23135
0
0.33936
0.417408
0.736785
0.314794
0.536815
0
0.872825
0
0.637976
0
0.662093
0.647521
0.858437
0
0.45987
0
1.22054
0.725249
0.431935
0
0.367291
0
0.654138
0
0.501561
0
0.776185
0.504096
0.718451
0.391265
0.37428
0.586506
0.603405
0.254927
0.792155
0.991362
0.284913
0.678154
0
1.05794
0.748522
0.671003
0.497907
0.528418
0.858978
0.682519
0
0.577537
0
0
0.742104
0.296602
0.206295
0.0863821
0.718095
0
0.550141
0.563926
0
0.644328
0.509463
0.499449
0.371436
0.540079
0.75224
0.585013
0.70421
0.558231
1.73429
0.42075
0.384278
0
1.01709
0.324211
0.845016
0.925223
0.472924
0.61275
0.675581
1.15343
0.371324
0.420983
1.03209
1.03466
1.37005
1.61606
0.411827
1.09507
0.759613
0.190282
0.770877
0.353095
1.02092
0.51509
1.21898
0.46099
0
1.40998
0
0.685295
0.618574
0.508144
0.695672
0
0.408726
0
0.916984
0
0.326595
0
1.05406
0.514182
0.52877
0.991538
0.601504
0
0.785879
0.702482
1.49094
0.6431
0.217818
0.123119
0
0.591487
0
0.73574
0.805762
0.0778429
0.375423
0
0
0
0.514617
0.826174
0.507892
0.48581
0.706427
0.565248
0.703558
0
0.362883
0
0.511713
0.91787
0.759976
0.868625
1.06491
2.27872
1.13974
0.657282
0.528499
0.486764
0
0.560512
0.280625
0.749864
0.827008
0.523193
0
0
0.634311
0.484802
0.544266
0
0.704933
0.342101
0
0.809822
0.487653
1.40289
0.594613
0.296218
0.453386
0.344967
1.21118
0.591751
0.387203
0
1.77955
1.00903
0.516879
0.289934
0.976467
0.801984
0
0.626424
0
0.9593
0.801151
0
0.504759
0.452219
0.557011
0
0.602933
0
1.2442
0.969006
0.29204
0.540607
0.45333
0
0.75244
0
0
0.295179
0.297448
0
0
0.334421
0.467939
0.326316
0.761329
0
0.938802
0
1.88895
0
0.716595
0.713375
0.444606
0.462053
0
0
0
0.290527
0.510865
0.725608
1.40583
1.16287
0
0.777255
0.904422
0.527598
1.45819
0.65402
0
0.435589
0.758489
0.805414
0
0.855925
0.736683
0.483026
0.717261
0.542524
0
0
0.520743
0
0
0.760602
0.913434
0
0.126027
0.649897
0.450046
0.757096
1.00207
0
0.467867
0.49883
1.15684
0.558805
0.711607
0.706679
0
0.589566
0
0.404901
1.02552
0.713804
2.41643
0.943625
0
0.991515
0.348599
0
0.822094
1.01323
0.690407
0.462408
0.493657
0.423391
1.19623
0.713915
0.799462
0.329006
0.473546
0.898828
1.20892
0.537141
0.340776
0.28449
0.907582
0.445326
0.846032
0.39389
0.823441
0
1.12046
0
0.858366
1.19202
0.369739
0.282171
0
1.27825
0.593961
0.759218
0.688736
0.68478
0.782808
1.12978
0.535643
0
0.481471
1.05101
0
0.570886
0
1.46967
0.730333
0.818754
0.960839
0.505168
0.511986
0.381026
0.283196
0.433599
0
0.81513
0.721347
0.73966
0
0
0
1.31407
0.526383
0.345549
0
0.538424
1.43771
0.668823
0.695452
0.8426
0
0.948919
0
0.599341
0
0.668025
1.30949
0
0.798345
0.736058
0.662464
0.95042
0.415607
0
0
0.758006
0.740587
0.835443
1.06313
0.493457
1.00111
0.906964
1.53622
0.90988
1.10576
0.601391
0.757444
0
0.584659
0
0
0
0.489793
0.484245
0.741242
0
0
0.417121
0.465718
0
0.899797
0.668395
0.808259
0.858876
0.802853
1.06992
0.916592
0.62571
0.270772
1.19597
0
0
0.572964
0
0.646758
0.556752
1.0392
1.13663
0.965304
0
0.786002
0
0.0813204
0.32465
0
0
0.99672
0
0
0
0.482452
3.93207
2.3206
0.759734
0.734923
0.103785
0.656002
0
0.952607
0
0.487586
0.300364
0.627304
0.891976
0.270188
1.14363
1.6964
0.594195
1.84663
0.830601
0.951622
1.27827
1.58995
0.370874
0.548067
0.389567
0.668273
0
0.851835
0.405149
0.701406
0.7651
0.549681
1.1748
0.793791
1.23725
0
0.649243
0.794482
0.777175
0.629416
0.773666
1.20307
0.717473
1.39341
0.579566
0
0.977701
0.829695
0
0.651628
1.12401
0.729203
0.899356
1.67245
0.674962
0.0817393
0.395116
0.660263
1.22469
0.965506
0.563185
0.508634
0
0.497382
1.58592
0.955775
1.07681
1.10029
0.323642
0.370021
0
0.73575
0
0.833962
0
1.13612
0.515497
0.232661
2.3962
0
0
0
0
0
0
0
0
0
0
0
0
0
0
0
0
0
0
0
0
0
0
0
0
0
0
0
0
0
0
0
0
0
0
0
0
0
0
0
0
0
0
0
0
0
0
0
0
0
0
0
0
0
0
0
0
0
0
0
0
0
0
0
0
0
0.606221
0
1.1882
0
0
0
0
0
0
0
0.489663
0
0
0
0
0
0.761969
0
0
1.1814
0
0
0
0
1.20966
0
0
0.287262
0
2.03375
0
0
0.906719
0
0
0
0
0
0
0
0.484032
0
0
0.796414
0
0
0
0
0
0
0.595841
0.655907
0
0.869836
0
0
0
0
0
0
0
0
0
0.66451
0.884131
0.83043
0.936331
0
0
1.04472
0.757764
0.777757
0.634898
0
0.704114
1.58546
1.01995
0
0
0.606062
2.08051
0
1.11003
0
0
0.682387
0.349544
0.529924
1.39288
0
0.9495
0.867262
0.589084
0
0
0
0.469077
1.82491
0.733042
0
0.764226
0
0.836981
1.2588
0.729926
1.51774
0
0.56016
0.713973
0.341438
0.459998
0
0.802433
0
1.52879
0.740526
0.916404
1.45843
0.458156
0.89378
0.0902924
0.613243
0.349078
0.400774
0.633295
0.709158
0.693404
0.330612
0.51272
0.69138
0.80432
0.740015
0.56356
0
0.537125
0
0.541564
0
0.751445
0
0.196406
0.51667
0
0.511086
0.478748
0.449981
0.599216
0.825049
0.37823
1.86
0
0
0.451314
0
0.692829
0.533506
0.409377
0.704094
0
0.600134
1.54226
0.428143
0.378107
0.337631
0
0.785466
0
0.724668
0.508618
0.388425
1.12145
0.424352
0.266617
0.566267
0.365245
0.240681
1.10075
0.409592
0
0
0
0.438542
0.179451
0.739978
0.437055
0.731932
0.984455
1.30442
1.04566
0
0
0.556743
0
0.573964
0.9682
0.515315
1.5557
0
0.38353
0
0
0.670315
0.807563
0.327803
0.7331
0
0.274236
0.773039
0.689527
0.8257
0.663869
0.88913
0.395874
0.564534
0.224614
1.13925
0.548948
0.521159
0.909915
1.0354
0.96407
0.611833
0
0.601818
0.700277
0
0
0.501026
0.454184
0.970443
0.418742
0.580472
0.153936
0
0.995173
0
0
0.312848
0.614696
0.502207
1.26523
1.03291
1.12157
0.574683
0.337225
0
0
0.403081
1.1914
0.490828
0.659349
0.973446
0.78327
1.47581
0.806933
2.55926
0
0.512072
0.805448
0.882311
0.920934
0.41643
0.574738
0.900951
0.583202
0.29586
0.247464
0.668845
1.3353
0.392677
0
2.27242
0.898748
0.323477
0.644468
0
0.664026
0.984656
1.67885
0.715871
0.594995
0.878144
0.494004
0
1.08343
0.532206
0.923565
0.219133
0.705789
0
0
0
0.639434
0.912001
0.481769
0
0.441095
0
0
1.11179
1.43399
0
0
0.484173
0.608602
0.771478
0
0
0.664214
0.444238
0
0
0.31859
0
0.769955
0.629366
0
0.399008
0.519428
0
0.260523
0.516606
0
0.856816
0
0.984248
0.412881
0.386202
0.621269
0.155414
0.994737
0.708731
0.18198
0
0.441364
0.429207
0
1.03551
0
0.289453
0.306608
0.382065
0.688117
1.60202
0.341308
0
0.545359
0.257832
0.779162
0.942307
0.164958
0.800654
0.677644
0.277232
0
0.690857
0.585257
0.614088
0.543228
0.939018
0.716264
0.334811
0
0.438463
0
0.435336
0
0.39889
0.777101
0.860644
0
0
0
0.675299
0
0
0.440297
0.395037
0.559794
0.66787
0.416025
0.886296
0
0.851562
0
0.971635
1.11829
0.595605
0
0.355239
0.364593
0.746625
0.625003
0.89564
0
1.03345
0.775226
0.680587
0
0.56865
0
0
1.34836
0
0.45116
2.17051
0.465836
0.457769
1.02722
0.264016
0.592207
0
0.933979
0.717492
0.635134
1.30794
1.04948
1.99088
0
0.472176
0.770442
0.697592
0
0.573603
0.497206
0
0.352195
0.650969
0.358644
0.648341
0.578911
0.650318
0
0.804893
0.528777
0.842851
0
0.385749
0
0.564395
1.31139
3.24987
0.453424
0.629024
0.525212
0.877682
0.593167
0.624584
0.519054
0.278935
0.955283
0.358956
0.43269
0.567584
0.721072
0
0.51624
0.619907
0.900904
0.532131
0.56036
0.360392
1.16626
0.757728
0.637565
0
0.478594
0
0.290305
1.90748
0
0
1.01789
0.512415
0.275604
0.363184
0.211482
0
0.899196
0.359679
0.170886
0
0.375898
0
0.657014
1.10831
0
1.69679
0
0.883695
0
0.638943
0
0
0
0
0.716976
0
0.983018
0.372876
0.833049
0.41579
0.891645
0.339274
0
0
0.464251
0
0.45954
0.764523
0.271758
0.414107
0.369077
0
0.361681
0
1.38302
0.441485
1.4756
0.565741
1.29686
1.19802
0.186552
0.355732
0
0.90589
0.357263
0
0.357338
0
1.29886
1.78997
0
0.307294
0.74538
0.809245
0.615216
0
0
0.771979
0.523244
0.442567
0.515792
0.743691
0
0
0.875563
0.421765
0
0.443588
0
0.35475
0.202644
0.751156
0
0
0.25379
1.10165
1.04423
0.625929
0.484082
0.901496
0.253706
0
0
0
0.485898
0.258279
1.0151
1.1618
0
0.54728
0
0.697117
0.82433
0
0.662545
0.569526
0.409378
0.369336
0.35433
0
0.28352
0.896622
0.275369
0.867117
0.517536
0.344662
0.564667
0.775661
0
0
0
0.396176
0.337054
0
0.661915
0.730802
0
1.3136
0
0.513991
0
0.145145
0
0.767449
0.871247
0
0.282117
1.32447
0.697206
0.471669
0.561301
0.841893
0.708038
0.594107
0.524979
1.02327
0.571039
0.547728
1.17979
0.657002
0
0.693291
0
0.536445
0
0.521249
0.656409
0.559072
0.707392
0.942568
0.821388
0.296006
0
0.381098
0.397831
0.730699
0.381987
0.697476
0.586236
0.84129
0
0.269375
0.356966
0
0
0.297963
0.608643
0.207758
0.864459
0.343432
0.618992
0.634813
0
0
0
0.227706
0.462762
0.864135
0.705326
0.565596
0.366685
0
1.02283
0.91789
0
0.443719
1.81667
0.937769
0.290374
0.526005
0.823062
1.03324
0.532103
1.56018
0
0.617206
0.512611
0.737814
1.2311
1.03058
1.04446
1.33217
0.566511
0.126164
0.291801
0.451233
0.372599
0.574591
0.485472
0
0
0.675921
0.269748
0.896349
0
0
0.625932
0
0.412598
0.413678
0.473309
0.79761
0
0
1.98945
0
1.77603
1.45014
1.03922
0.827099
0.617435
0.556726
1.24361
0.995836
0.715143
0.23053
0.692597
0.895864
0.689556
0
0.511138
0.22385
0.626281
1.52559
0
1.11456
0.33385
0.771446
0.555362
0
0.633213
1.67471
0.564265
0.787956
0.425444
0.973081
0.756066
0.0782339
0.466223
0.844707
0.875384
0.961779
0.757584
1.53411
0
1.24718
0
0.496118
0.321383
0.640596
0.345611
0.945205
0.725895
0.539289
0.223553
0.665864
0
0
0
0.751249
1.12331
1.19796
0.836727
0.656032
0
0.614881
0.574434
0.735967
0.794868
0
0.431182
0.640427
0
0.479152
0.470306
0.985387
0.773358
0.305865
0.989452
0.20272
0.257942
0
0
0.400719
0.455396
0.403361
0.897515
0
1.23295
0.990435
0
0
0.651921
0.448303
0.761923
0.770738
0.83936
0.615574
1.13801
1.07553
0
0
0
0
0
0.922121
0
0.585004
0
1.44567
1.01293
0
0.386613
1.48131
0.84571
0.588096
0.659081
0.31201
0
0.60606
0.777016
0.419566
1.45073
1.05597
0
0.683655
1.16792
0.768252
1.03136
0.770043
1.50638
0.996741
0.337243
0.529027
0.472272
0.52032
1.021
0.300628
0.872202
0.297206
0.431184
0
0
0.827606
1.27698
0.503971
1.80552
0.673676
1.32106
0.64857
1.94924
1.64318
1.29166
0.86392
0.754713
0.509595
0.454961
1.30377
0.649056
0.89416
1.03433
0.31803
0.554372
0.623681
0.406048
1.67427
0.925199
0
0
0.382306
0.428879
0
0.191888
0.654878
0
0.864243
0.459547
0.491297
1.26974
0
1.02085
1.32561
0
0.749059
0.739174
0.229753
1.08013
0.509158
0
0.369226
0.920047
0.316436
0.880387
0
0.461443
0.564592
0.324124
0
0.384528
2.20027
0.39346
0.284067
0.411079
0
0.557183
0.104534
0.711413
0
0.39719
0.154877
0
0.80565
0.513924
0
0
0
0.475652
0
0.375621
0.892189
0.709838
1.58334
0
0.919313
0.844393
1.28547
0.845281
1.38106
0.391361
0.692369
1.51396
0
0.430827
0
0.248645
0.264699
1.97449
0
0.995745
0.70978
0.673021
0.934277
0.724141
0
0.338759
0.411843
0.368184
0
0.625794
0.219393
1.34673
0.67973
1.85886
1.42113
0
0.204081
0.761202
0
0
0
0
0
0
0
0
0
0
0
0
0
0
0
0
0
0
0
0
0
0
0
0
0
0
0
0
0
0
0
0
0
0
0
0
0
0
0
0
0
0
0
0
0
0
0
0
0
0
0
0
0
0
0
0
0
0
0
0
0
0
0
0
0.275975
0.657778
0
0.920008
0.303014
0
0.554985
1.18537
0.600783
0.525298
1.96987
0.764966
0.441994
0.896421
0.281843
0.896491
0.345257
0.558843
0
0.56046
0.532201
0
0.391222
0.739476
0.152515
0.455737
0.461746
0.56256
0.514786
0
0.413508
0.78713
0.25866
0.982159
0
0.425618
0.483941
0
0.2392
1.82523
1.16999
0.242702
0
1.16018
0.560951
0
0.978307
0.568206
0.171203
1.11655
0
0.563659
0.921023
0.965594
0.577804
0
0.507222
0.811918
1.00447
0.735202
0.300599
0
0.837623
0.87343
0
0.641751
0.437293
0
0.691525
0.661333
0.736826
0.820839
0.572924
0
1.21092
0.968675
1.13665
0.556233
0.702561
0
0.980624
0.676034
0.937187
0.540057
0.843781
1.26346
0.492916
0.441798
0.6952
0.784614
0.516506
0.68114
0.869786
0.51799
0.452932
0.780998
0.636092
0.250246
0.65893
0
0
0
0
0.821701
1.26449
0.630031
2.52242
0.857281
0
0
1.17329
1.53799
0.443803
0.378586
0.358008
0.600163
0.967551
1.04903
0.081221
0
0
0
0.600352
0.732227
0.751057
1.10455
0.736536
0.460619
0
0.403848
0.574371
0
0
0
0.378931
0
1.65889
0.53177
0.766092
0.578887
0.649405
0
0.519604
0
0.62386
0
0.299075
0
0.32642
0.265038
0.430436
0.434891
0
0.617432
0
1.15443
0
0.579836
0
0.491003
0
0.571398
0
0
0.936269
0.987158
0
0.327888
0.394652
0.432349
0.445548
0.556379
0.557356
0.166802
0.41047
0
0.447236
0.583013
0.565301
0.783444
0.634804
0.481184
0.867571
0
0.765396
0.647843
1.09741
0.550555
1.43843
0.87121
1.13219
0.456298
0.660207
0.282351
0
0
0
0.625711
0.607553
0.452533
0.63636
0.397845
0.593827
0.667772
0.74051
0
0.589105
0.458598
0.985598
0
0.490565
0
0
0.373169
0.220669
0.352457
0
0.763202
0.518061
0.96985
0.779976
0.89975
0.594328
0
0.640003
0
0.449812
0.64345
0
0
0.443259
0.147284
0.577652
0.353111
0.529305
0.671766
0.851021
0.457388
0.542292
0.857139
1.92758
1.12209
0.940057
0.41123
0
0
1.54295
0.855472
0.417307
1.19408
0
0
0
0
0.709327
0.725007
0.661287
0
0.512603
0
0.48641
0
0
0
0.564048
0
0
0.662646
0
0
0
0.460683
0.959056
0.960681
0.447641
0
0.494371
0
0
0.382242
0.899129
0.991875
1.07874
0.583766
0
0.749705
1.1223
0.700722
0.659637
0.389362
0
0.53636
0.12356
0.76949
0.187064
0.653256
0
0
0.15494
0.279671
0
1.49281
0.504506
1.43409
0.283482
0
0.392181
0.357559
0.418043
0.606995
0
0.502502
0.951721
0.65336
0
0.520299
0.807863
0.86646
0
0.377088
0.90565
1.61076
2.28891
0.528686
0.441361
0.210664
0.576557
0.398211
0
0.913424
0.75414
0
0.395773
0.434641
0.687527
0.633022
0.547451
0.608902
0.761481
0.722966
0.711459
0.0572231
0
0.783533
0.657271
0.284203
0
0
0.432256
0.708672
0.401451
0
0.635231
0
0.290384
0.490076
0.647329
0.883815
0.446321
0
3.22184
1.37893
0.592655
1.09551
0.342889
0.717311
0.549559
0.866331
0.713199
0
0
0.652267
0
0.942928
0.488049
0.832811
0.40802
0
1.12464
0.386234
0.265711
0
0
0.747029
0.992386
1.14882
0
0.79276
0.473057
0
0.237462
0.867472
0.80418
0.877319
0.457939
1.25742
0
0.473753
0.698243
0
0
2.68317
0.933067
1.14537
0
0.383291
1.03929
0.679234
0.669793
0
1.56516
0.639226
1.30621
0.880687
0.523322
0.740456
1.21457
0.554336
0
0.905523
0.483803
0.509931
0.876309
0
0.586916
0.826735
0.800881
0
0
0
0.29233
0.404636
0.515096
0.741819
0.616048
0
0
0.459313
0
0.685225
0
0.890746
0
0.477284
0
0
0
0.714921
0
1.13088
0.144268
0.105081
0.823793
0.534705
0.543129
0.614201
0.815694
0.680247
0.355204
0.432094
0
0.716185
0.241882
0.575492
0.763103
0.391378
0.840756
0.62621
0.618615
0.545801
1.79436
0.336768
2.92629
0.573087
0.200713
0.897066
0.414752
0.807618
0
0.446416
0
0.66536
0.708881
0
2.02048
1.20352
0
1.12898
0
0
0.764462
0
0.312157
0.420207
0.473606
0.413598
0
0
0.50567
0.500308
0.626471
0.285054
0
0.293815
0.748309
0.530385
0
0.375123
0.571091
0.572816
0
0
0.640244
0.881404
1.88718
0.569582
0.338958
0.354585
1.08102
0.927006
1.04025
0
0.735208
0
0.358487
1.23897
0.508915
0
0.51769
0
0.584538
0.504887
0.362786
1.69126
0
1.12505
0
1.6967
0.708869
0.61454
0.81309
0.767908
0.77455
0.810408
1.04026
0
0.716654
0.618183
0.513659
0
0.602648
0.498898
0
0.84149
0.779976
1.15313
0
0.838239
0
0.490103
0.575077
0.204097
0
1.62152
1.17718
0.904112
0
0.466717
0.183935
0.36674
0.430312
1.18833
0.649821
0.44344
0.794066
0.22111
1.06833
0.532516
0.360407
0.607029
0
0.187182
1.35717
0.8053
1.07639
0.239166
1.27759
0.342954
0.502134
0.691329
0
1.04425
0.648434
0.856472
0.261179
0.15262
0.821252
1.18114
0.613388
0.429671
1.61282
1.23193
0
1.04
0.778978
0
0.485787
0.722997
0.844608
0.465841
0.911262
0.721477
0.577478
0.605573
0.969186
0.562142
0.638526
0.167333
1.29571
0.523988
0.526012
0
0.139662
0.789814
0.500977
0.548185
0
0.655452
0
0.354926
0.737709
0.641764
0.664039
0.753002
0.257262
0.30831
0
0.340409
0.855068
0.506512
0
0.598069
0
0.549459
0.58232
0.458208
0.506648
0
0.529214
0
0.915035
0.593181
0
0
0
0.984484
0.370466
0.181125
0.648144
0.689813
0.638435
1.28393
0.700155
0.714777
0.781058
0.726509
0.454418
0.354951
0
0.433441
0.462162
0
0
0.558828
0.892873
0.334777
0.609768
0.507442
0
0.572128
0
0.366896
0.526283
0
0.680655
0.271673
0.413538
0.854805
0
0.421955
0.380253
0.139931
0.839485
0.833916
0.961215
0
1.45058
0.649944
0.325377
0.668326
0
0
0.722695
0.61009
1.12736
0
0.430688
0.472198
0.530232
0.366738
0.388355
0
0.69007
0
1.37026
1.34532
1.03336
0
0.700705
0.592419
0.415017
0.773966
0.487532
0
0
0.817483
0.900581
0.808829
0.759172
0.421765
0.640424
0.461387
0
0.952361
0
0
1.13598
0.671114
0
0
0.346471
1.22111
0.234431
0.539573
0
0.364473
0.944961
0
0.788794
0.890239
0.64017
0.29771
0.728978
0.385472
0
0.490007
0
0.464898
0
0.771152
0.533709
0.282077
0
0.569884
1.04914
0
1.04024
0.779692
0.366111
0.232095
0.552371
0.653984
0.987809
0
0.582591
0.420369
0
0.416399
0
0.728343
0.245133
0.878537
0.730176
0.32124
0.394711
0
0.556013
0
0.664461
0.420218
0
0.647067
0.595081
0.435385
1.02378
0.559955
0.800674
0.870722
0.615412
0.333609
0.527388
0.517239
1.39884
0
1.00839
0.654299
0.493793
0
0.710489
0
0.605348
0
0
0.658445
0.641143
0.921075
0.521812
0.40162
0.905233
0.586921
0.517192
0.439269
0.83762
0
0.7916
0.831733
0.724645
1.13572
1.40722
0.918569
0.53966
0.371421
0
0
1.44906
0.809869
0.532401
1.13393
0.35276
0.620293
0.59568
0.734849
1.42759
0.343669
0.525063
0
0.33267
0.737243
0.891547
0
0.674341
1.50195
0.666092
0.219223
0.72248
0
0.677368
0
1.07897
0
1.6713
0
0.420098
0
0
0.686934
1.19714
0.703685
0.519673
0
1.05717
0.459802
0.522937
0.475524
0.642669
0.882491
0.509937
2.79111
0.266723
0.303078
0
1.00723
0.507317
0
1.59735
0.692065
1.22788
1.22408
0.895566
0.855308
0.301084
0.73503
0.347796
0.526017
0.409114
0
0.760358
1.22424
0.791265
0.711755
0
0.649461
0
1.22722
0.738546
0
0.657535
0
0.192323
1.20075
0.654154
0
0.532741
0.89551
0.166937
0
0.885697
1.11515
0.867161
0.83099
0.951212
1.62235
0.655727
0.417318
0.468586
1.10633
0.59927
0
0.834731
0
0.634225
0.700433
0.970592
1.00234
1.10301
0.981326
1.18355
0.648087
0.619898
0.323338
0.343529
0.970144
0
0.577365
1.14281
1.53938
0.418019
0.792185
0.343824
0
0.474926
0
1.34064
0.982366
0.542489
1.18624
2.25592
0.92647
0.600105
0.967176
0
0
0
0
0
0
0
0
0
0
0
0
0
0
0
0
0
0
0
0
0
0
0
0
0
0
0
0
0
0
0
0
0
0
0
0
0
0
0
0
0
0
0
0
0
0
0
0
0
0
0
0
0
0
0
0
0
0
0
0
0
0
0
0
0.305687
0.44921
0.605394
0.584452
0.579011
1.80637
0.402425
0.857962
0.235904
0.418503
0
0.439161
0.56776
0.985212
0.575712
0.731359
0.29797
0.62474
0
0.440994
0.521991
0
0.512179
1.35001
0.445579
0.534082
0
0.440872
0.429114
0
0.491127
1.41248
1.65128
0.65982
0
0.990974
0.33034
0
1.14246
1.0277
0.262487
0.893137
0
0.598498
1.28463
0.970642
0.731738
0
0.557964
0.421688
0
0.907163
0.115336
0
0.953106
1.30179
0.394313
0.96683
0
0.541474
1.24188
0
0.30241
0.84928
0.362773
0.635708
0.817177
0.990459
0.384942
0.947335
0.463168
1.04543
0.75204
0.436311
1.25088
0
0.373744
0.280675
0.704655
0.337768
0.532533
0.453204
0
0.37975
0.694342
0.469395
1.03184
0.321533
0
0.48843
0
0
0.341153
0.53337
0.764076
0.705074
0
0
0.495759
0.213028
0.452359
0.348941
0.595015
0
0.76542
1.07077
0
0.480699
0.663392
0.405853
0
0.270038
0.558146
0.147675
0.554204
0.582645
1.04418
0.167383
0
0.669244
0.449033
0
0
1.09611
0.811764
0.31599
0
0.57525
0.485426
0.825742
0.707269
0.610374
0.647407
0
0.373333
0.649968
1.68149
0.921936
0.619285
0
0.345482
0
0.419953
0