<?xml version="1.0"?>
<VTKFile type="RectilinearGrid">
<RectilinearGrid WholeExtent="0 32 0 32 0 32" Origin="0 0 0" Spacing="1 1 1">
<Piece Extent="0 32 0 32 0 32">
<PointData>
</PointData>
<Coordinates>
<DataArray type="Float32" format="ascii">
0 0.524874 1.04975 1.57462 2.0995 2.62437 3.14924 3.67412 4.19899 4.72386 5.24874 5.77361 6.29849 6.82336 7.34823 7.87311 8.39798 8.92285 9.44773 9.9726 10.4975 11.0224 11.5472 12.0721 12.597 13.1218 13.6467 14.1716 14.6965 15.2213 15.7462 16.2711 16.796 
</DataArray>
<DataArray type="Float32" format="ascii">
-5.03879 -3.62163 -2.20447 -0.787311 0.629849 2.04701 3.46417 4.88133 6.29849 7.71565 9.1328 10.55 11.9671 13.3843 14.8014 16.2186 17.6358 19.0529 20.4701 21.8872 23.3044 24.7216 26.1387 27.5559 28.973 30.3902 31.8074 33.2245 34.6417 36.0588 37.476 38.8931 40.3103 
</DataArray>
<DataArray type="Float32" format="ascii">
0 0.524874 1.04975 1.57462 2.0995 2.62437 3.14924 3.67412 4.19899 4.72386 5.24874 5.77361 6.29849 6.82336 7.34823 7.87311 8.39798 8.92285 9.44773 9.9726 10.4975 11.0224 11.5472 12.0721 12.597 13.1218 13.6467 14.1716 14.6965 15.2213 15.7462 16.2711 16.796 
</DataArray>
</Coordinates>
<CellData>
<DataArray type="Float32" Name="Scalar" format="ascii">
0
0
0
0
0
0
0
0
0
0
0
0
0
0
0
0
0
0
0
0
0
0
0
0
0
0
0
0
0
0
0
0
0
0
0
0
0
0
0
0
0
0
0
0
0
0
0
0
0
0
0
0
0
0
0
0
0
0
0
0
0
0
0
0
0.19929
0.306354
0
0.26604
0.441941
1.96177
0.334272
1.82365
0.178836
0.281047
0
0.272539
0.48375
0
0.247273
0.961736
0.226365
0.359091
0
0.31061
0.47327
0
0.289879
1.32948
0.130487
0.553571
0
0.422109
0.329825
0
0.271716
1.66243
0.163732
0.526804
0
0.251741
2.69326
0
0.338552
1.7595
1.2424
0.0937653
0
0.9242
0.17244
0
1.14004
2.66996
0.372358
1.41547
0
0.719713
1.13082
0
0.16832
2.12127
0
0.375285
0
0.736215
0.34928
0
0.644556
0.775081
0
0.731899
0.474126
0
1.1085
0.636835
0.662395
0.928191
0.755717
1.00671
1.41453
0.491337
0
0.72567
0.678593
0
0.0571675
2.05776
0.325895
0.873085
0.351657
0.196202
1.0352
0
0.948212
0
1.3355
0.823614
0.364051
0
1.36793
0
0.5894
0.669723
0
0.296708
0.717883
0.769251
0.94886
1.3615
0.730342
1.37613
0
0.771301
0
1.25633
1.03298
0
0.212191
1.03531
0
0.650761
0
0.889406
0
0.519458
0
0.511415
0
1.16596
0
0.795408
0.944891
0
0.263802
1.35072
0
0.714508
0.517335
0.943712
1.69153
0
0.496152
1.23505
1.44925
0.277343
1.0142
0
0.339241
0
0.560278
0
1.18491
2.01912
0
0
0.962161
0
0.848231
0.657338
0
0.572507
0.721579
0.545635
0
0.391135
0.876552
1.12526
0.785937
0.845445
1.00466
0
1.53121
0
0.594713
0.761248
1.16203
0
0.86558
0
0.551375
1.19336
0.29503
0.905733
0
0.572273
0
0.980836
1.01405
0.658422
0.669419
0.646897
1.02882
0.395211
0
0.982769
0.76933
0.541177
0.591802
1.34649
0
0.896533
0.743594
0
1.1022
0
0.275029
0.356023
0.888908
0.551252
0
0
0.742759
0.645122
0.395163
0.364003
0.173954
0.876604
0.297329
0.518202
0.558345
0
0.573737
0.588032
0.67287
0.592596
1.09039
0
0.739797
0.655359
0.353019
0
0.535105
0.456447
0.219953
0
1.50157
0.560996
0
0.530472
0.95771
0
0.538577
0
0.635236
0.348733
0.8447
0.404947
0.580574
0.686495
0
0.41317
0
1.16951
0.276409
0.472297
0.673156
0.345376
0.2756
0.477752
0
0.582744
2.0146
1.38889
0
1.15919
0.378918
0.668764
0.605108
0.673913
0.449702
1.03453
0.694598
0.888112
0.701694
0.561665
1.36903
0.773839
1.40345
0
0.484428
0
0.495291
2.18433
0.866232
0.423581
0.96375
0.419305
0.740986
0.441658
0
0.634387
1.57338
0.81801
0.576449
0.885758
0.828079
0.853461
0.212165
0.570027
0.824658
0.511312
2.12874
0
0.846169
0.419727
0.961736
0.710825
0
0.237891
0
0
0
0.955858
0.4487
0.29041
0.469442
0.311951
0.527907
0.326891
0
0.648347
0.534882
0.751555
0
0.722816
0.579036
1.4167
0.690713
0.587136
0
0
0.711622
0
0.777753
0.710724
0.350183
0.554109
0.663256
0.799353
0.65533
0.519352
0.838109
0.42509
0.506421
0.52904
0
0.590141
0.261197
0
0.775795
0
0.399596
1.16433
0.618292
0
0.481864
0.281577
0.847113
0.962529
0.501734
0
1.33576
0.448669
0.45709
0.891991
0.631675
1.17441
0.216835
0.705762
0.336427
0.609131
0.737008
0.675266
0.599604
0.613645
0.909214
0.299461
0
0.484365
0.676487
0
1.09099
0.494003
0.303848
0.518873
0
1.04135
0.929233
0.670351
0.667034
0.478588
0.634805
0.845113
0.384849
0
0.637319
0.455023
0
0.693447
0.548883
0.897402
0.604312
1.24267
0.348521
0.567589
0.594266
0.992517
0
0
0
1.46512
1.27003
0.775333
0.59231
0.450856
0.901588
0
0.299751
0.572364
0
0.457021
0.860864
0.611756
0
0
0.25942
0
0.971151
0.692662
0.284627
0.793471
0.424102
0.622384
0
0.74425
0
0.967283
1.16912
0.715371
0.559408
0.577306
0
0
0.232059
1.15455
0.77545
0
0.50596
0.658213
0.63676
0.354625
0.558624
0.432671
0
0
0.333731
0.580637
0.583145
0.69848
1.35361
0
0.0418149
0.529863
0.700843
0.918518
0.498041
0.517804
0.768209
0
0.716837
1.29591
0.736617
0.46764
0.670951
0.185768
0.39943
0
1.31077
0.70021
1.27559
0.825982
1.08243
0.568522
0.791479
0.658716
0.479283
0
0.580189
0
0.481374
0.519853
0
0.405404
0.748869
0.919085
0.570047
1.16117
0.42271
0.578621
1.9745
0
0
1.03886
0
0.44122
1.15731
0.727386
0.57992
0.516619
0
3.30095
1.09744
0
0.872144
0
0.497537
0
0
0
0
0.761193
0.787482
0.320115
0.331568
0
0.722155
0
0.438349
0.58124
0.438638
0.755665
0.50889
0.46378
0
0.445931
0.817529
0
0.278059
0.386913
0.567053
0.814854
1.19863
0.416986
0.861586
1.80045
0
0
0.621867
0
0.824082
0
0.426912
0.300909
0.52517
1.18532
0.550051
0
0
0
0.347946
0.508225
0
0
1.01476
0.946876
0
0.688259
0.81113
0.631855
0.638103
0.392401
0.763187
0
0
0.859609
0
0.456356
0
0
0
0.941229
0.496979
0.784077
0.294309
0.634265
0.635835
0.595101
0.650268
0.807921
0.73545
0.815512
0
0.670924
0.110289
0.917242
0.809366
1.10147
0
0
1.36332
0.750514
0
0.487874
0.42441
0.676789
0.194394
0.336125
0
0.629425
0.458729
0
0
0
0.372458
0.276875
0.831726
0.632737
0.208978
0.667904
0.338114
0.311896
0.520394
0.393395
0.574863
0.95807
0
0.642869
0.685943
0.395232
0.753734
0
0.73502
0.405195
0.760347
1.04227
0.710944
0.488672
0.464606
0.653012
0.294965
0.51721
0
0.526286
0.706554
1.31069
0.354243
0.871046
0.810946
0.696974
0.37459
0.411274
0.218257
0
0
0.444471
0
0.444617
0.985066
0
0.317906
0.515418
0.477672
0.349957
0.474969
0.0819894
0.601132
0.620428
0
0
0.464934
0.605758
0.191397
0
1.19705
0.774651
0.668915
0
0.892738
0.588749
0.561841
0.711607
0
0.713035
0.747529
0.878141
0.626467
0.559675
0.692335
0.322856
0.242183
0
0.867289
0.692637
1.21009
0.368783
0.437988
0.269748
1.78072
0
0.524446
0.114007
0.808671
0.825497
0.868494
0
0.161714
0.489519
0.760968
0
0.771804
0.272318
0.61991
0.415841
0.772615
0.66577
0
0.575907
0
0
0.528232
0
1.52986
0
0.467662
0.394939
0.668042
0.747276
0
0.944699
1.02167
1.35998
0
0.779713
1.25045
0.943739
0.72061
1.24629
0
0.666283
1.39404
0.377148
0
0.808238
0.78275
0
0.901726
0.73158
0
0.387495
0.342911
0.630614
0.980253
0.940709
1.88322
0.604303
0.4555
0.406611
0.571763
0
0
0.799847
0
0
0
0.84418
0.614458
0
0
0.599958
0.578325
0.331104
0
0.387508
1.61982
1.07132
0.610062
0.40016
0.552919
0.581908
1.29634
0.332386
0
0
0.561554
0.342742
0.852446
1.31249
1.06357
0.576569
0.884493
0.311582
1.14734
0.71977
0.771381
0.917799
0.848532
1.11143
0.147301
0
0.396297
0
0.456594
0
0.87064
0.182645
0.93943
1.04386
0.5294
0.824965
0.440175
0.308089
0
0.585909
0.894613
0
0.609383
0.554176
0
0.396959
0.527557
0.225172
1.3461
0.236324
0
1.13175
0.497506
2.03699
0.317268
0.414388
0.329331
0
0.487558
0.558768
0.939771
0
0.771117
0.934601
1.22649
0.869897
0.898436
1.14103
0.161705
0.415618
0.684159
0
0.658526
0
0.23447
0.750474
0
0.629239
0
0.0708519
0.512864
0.616548
0
0.200912
0.230358
0.620457
0.375168
1.10964
0
0.550148
0
0
0.207222
0
0.548848
0
0.710001
0.412887
0.517799
0.768667
0.308554
0.244917
0.765548
0.699262
0.559709
0.567898
0.470309
0.0877056
0.444502
0.708631
0.636734
0.594066
0.501864
0.432692
0.674666
0
0.744638
0.861817
0.435809
0.427031
0.668689
1.07544
0.433764
0.590132
0.532735
1.18448
0
0.531726
0.351983
0
0.792232
0
0.699372
0
0.484413
0.133294
0.689606
0
0.394697
0
0.384786
0.532213
0
0.60459
0.498888
0.903359
0.874871
0.628156
1.13475
0.567276
0
0
0.205808
0.357491
0.448722
0
1.03768
0.838623
0
0.453124
0.614497
0.487325
1.13015
0.591206
0.646575
0
0.291096
0
0.607962
0.943357
0
0.270162
0
0.555776
0
0.286019
0.728408
0
0.312796
0.359311
0.466218
0.543156
0.3463
0
0
0.642448
0
0.254119
0
1.35696
1.54136
0.408651
0
0
0
0
0
0
0
0
0
0
0
0
0
0
0
0
0
0
0
0
0
0
0
0
0
0
0
0
0
0
0
0
0
0
0
0
0
0
0
0
0
0
0
0
0
0
0
0
0
0
0
0
0
0
0
0
0
0
0
0
0
0
0
0
0.418981
0.564174
0
0.413896
0.737225
0.590872
0.54065
1.44184
0.366369
0.432113
1.3093
0.605451
0.58899
1.1632
0.661903
1.17311
0.28463
0.596908
0
0.420022
0.800916
2.07088
0.363445
1.01052
0.385257
0.644212
0
0.451894
0.525729
0
0.584479
1.0488
1.20659
0.359611
0
0.78586
0.498558
0
1.26712
0.330949
0.0846382
1.08318
0
0.37495
1.70761
0
0.207396
0.53108
0.421833
0.663234
0
0.556343
0.486012
0
0.845831
0.809335
0.239582
0.96729
0
0.215363
0.518353
0
0.403857
1.3787
0.575817
0.199184
1.21938
0.826102
0.790111
0.911814
0
0.787267
0.48835
1.04798
1.13612
2.70325
1.31189
1.07616
0.218154
0.604989
0.495369
0.825693
0.974151
0.614839
0.500775
1.2089
1.14885
0
0.56602
1.20948
0.933592
0.428772
1.11252
0.701838
1.74363
1.86413
1.12575
1.79036
0.885351
1.18365
0.783248
1.06875
0.685304
1.26023
0.532477
0.637585
0.669105
0.99608
0.856252
0.292602
0
0.437683
0.605743
0
0.687887
1.10603
0.905905
0
0.226092
0.363968
0.491364
0.781296
0.336218
1.29535
0
0.338673
0.913572
0.982996
0
0.873405
0.752516
0.833904
0.753988
0.962908
0
1.00715
0.41424
0.60383
0.376971
0.880801
0.344185
1.21506
0.332224
0
0
1.60951
1.13843
0
0.651235
1.22813
0.305908
0
0
0
0.468825
0.325444
0
0.303831
0.623111
0.590469
0.75112
2.06212
1.5136
1.10241
1.16528
0.776624
1.00491
1.19234
1.43309
0.961356
0
0.808913
0
0
0.669666
0.331473
0.749475
0
0.669254
0
1.02565
1.02188
0.718996
0.46204
0.420887
1.45365
0.791688
0.630673
0
0.561089
0.794931
1.28471
0
0.793815
0.658561
0.711991
0.506391
0.489755
0.433123
0.799923
0.551827
0.698592
1.61904
0
0.887118
0.284996
1.33257
0.917622
0.534051
0
0
0
0.630442
1.4094
0
0.639205
0.779194
0.61269
0
0
0.682584
0.765649
0.473896
0.64496
0
0
0.636094
1.02721
0.254251
0.535083
1.37535
0.530539
0.473088
1.01231
0
0.781705
0
0
0
2.35189
0
0.920776
0
0.742449
0.872051
0
0.463907
0.753826
0.335369
0.786271
0
0.206624
0.499693
0
0.254017
0.511013
0.699177
0
0.200369
1.66773
0.598202
0
0.471493
0
1.48246
1.72439
0.970155
1.17333
0
0.372154
0
1.36579
0.70179
0.689041
0.666838
0
0.335604
0
0
0.598281
0
0.480606
0.798838
0.751428
0.588777
1.43845
1.79887
0.651089
0
1.13157
0.66905
0.52656
0.851153
0.540099
0.551144
0.649376
0.914812
0.476055
0.954691
1.03013
0.688059
2.6292
3.45308
0
0.795129
0.616361
0.605689
0.605458
0.35848
1.01388
0.569224
0
0.350404
0
0.36625
0
0.434145
0.907874
0.781864
0
0.303658
0.808273
0.885817
0
1.10163
0.442764
0
0
0
0.795552
0.498729
0.631664
0
0
0.951737
0
0.898919
0.387801
0
0.240425
0.829635
0.832076
0
0.764533
0.76256
0
0.303431
0.882945
0.503004
1.86104
1.06432
0.169628
0.62018
0
0.907657
0.418215
0.542746
0.71538
0
0.390146
0
1.16727
0.439929
0.541237
0
0.597243
0
0.911466
0.742892
0.126543
0.393065
0
0
1.24628
0
0.433717
0.893891
0
0.483117
0
0.645296
0.456828
1.13967
1.27108
0.307993
0.505555
0.239984
1.04098
0.898786
0.755777
0
0
0.432539
0
0
0.78205
1.06075
0
0.292629
0
0
1.68359
0.97585
1.19307
0
0.475907
0
0.660235
0.86073
0.920027
0.385762
0.986078
0.923766
0.883171
0.422743
0
1.25494
0.748901
0.844892
0.561251
0
0.522218
0
0
0.853714
0.627992
0
0.22049
0.493919
0.708922
1.33395
0.994002
0.113328
0
0
0.249815
0.240488
0.602621
0.532464
0
0
0.729085
0.789456
1.28444
0.516818
0.38118
0.625253
0
0
0
0.348203
0.481969
0.498708
0.495497
0
0.523589
1.23795
0.542995
0
0.565098
0.598006
0.444635
0.570382
0
0.929633
1.67233
0
0.820151
0.841406
0
0.615621
0.940029
2.22978
0.954133
0.591634
0.388436
0.534949
0.424395
0
0.622271
0.406627
0.773993
0.703911
1.1087
0
0.294068
0
0
0
0.272391
0
0.716546
1.18654
0.746446
0
0.40631
0
0.356647
0.350184
0
0.675575
0.815592
0
0.671944
0.709731
0.927524
1.59708
0.478982
0.532606
0.217413
1.00078
0.811089
0.692164
0.341991
0.840344
0.933176
0
1.18568
0.73269
0.772909
0.58933
0.257163
0.231267
0
0.583849
1.1703
0.987594
0
1.06896
0
0.876396
0.545688
0.384459
0.870784
0.339727
0
0
0.258801
0.858254
1.30773
0.455503
1.32024
0.567738
0.687991
0.850293
0.371833
0
0
0.440382
0.917001
0.479655
0
0.722497
0.928804
0.448045
0.614753
0.780151
0.400158
1.00034
0.542495
0.905726
0
0
0.719265
0.27458
0.679485
0
0.502728
2.14778
2.15264
0.796542
0.54999
0
0.462447
0.230555
0.883677
0.615757
0.519129
1.00199
0.384372
1.18233
0
0.34236
0.387469
0.665544
1.9677
2.06151
1.16053
0.731359
0.949355
0.858654
0.774494
0.662689
0.800333
0.809996
0
1.07839
1.23292
0.613462
0.214794
0.36219
1.02501
0.738488
0.995246
1.08578
0.628535
0.332168
0.647526
0
0.466093
0
2.38537
0.2564
0
0.167236
0.433491
0.448757
0.708406
0.630638
0.484137
0.565683
0.189241
1.00943
0
0.596152
0
0.513419
0
0.418704
0
0.570095
0.447842
0.571114
0.456141
0.688128
0.670986
0.41328
0.523793
0.73995
0.832562
0.311853
0.48661
0.958335
0
0
0.410124
0
0.510232
0
0.490346
0.805097
0.438319
0.806987
0.568332
0.928208
0.72621
0
0
0.946044
0
0.704666
0.753256
0.422023
0.501214
0.6439
0
0.74352
2.16091
0.340024
0
0.484193
0
0
0.629706
1.38325
0.585808
0.216968
0.31404
0
2.00969
0
0
0.527313
0.840506
0.384456
0
0.558349
0.744022
0.353801
0
0.531382
0
0.355405
0.189608
0.157504
0.565727
0.717987
0
0.57164
0.513653
0.59036
0.617528
0.396174
0.777966
0.4199
0.548606
2.1676
1.16215
0.675589
0.385889
1.5992
0.390372
0
0.45214
0
0.703433
0.63856
0.409953
0.5002
0.889664
0.634222
0.660194
0.415041
1.04144
0.620666
0.526209
1.46807
1.03536
1.72453
0
0.734083
2.44716
0.731309
0
0.646147
0
0.828713
0
0.401656
0
0.70396
0.51813
1.03686
1.17268
0.345257
0.571974
0.577851
0.542494
1.31231
0.411281
1.05178
1.02811
0.79388
0.250359
0.552071
0.743699
0.651573
0.294822
0.72549
0.649175
0.937076
0.709185
0.694292
0.310775
0
0.110002
0
0.377443
0.595815
1.17064
0.739847
0.306853
0.752894
0.439117
0.495259
0.446125
0.789576
0
0.135289
0.706374
0.513045
0
0.475912
0.493054
0.42464
0
0.22157
0
0.311582
0.572107
0.587089
0.171786
0.698379
0.176363
0.543435
0.700937
0.486669
0.292087
0
1.38194
1.27735
0.573445
0.38549
0.834935
0
0.47958
0.903444
0.663523
0.806608
0.458051
0.288778
0
0
0.677135
0
0
0.672007
1.14322
0.516333
0
0.898536
0
0.253315
0.276452
0.571992
0.553024
0.456467
0.611185
0.524225
0.992978
0.696821
0.935554
0.761729
0
0.708088
1.04172
0.379093
0.271782
0.308202
0
0.664098
0
0.737024
0.736696
0
0.520011
0
0.770124
0
0
0.631268
0
0
0.747871
0.385928
0.575721
0.85591
0
0.316965
0.379894
0.459458
0.212105
0.290703
0
0
0
0
0
0.396881
0.534628
1.03438
0.69432
0
0.555757
0.435931
0.340544
0.516329
0.547495
0.27698
0
0
0.35869
0.754023
1.32282
0.680665
0
0.609755
0.464363
0.450021
0
0.770267
0
0.557062
0
0.677028
0.648881
0
0.8007
0.757785
0
0.727602
0
0.222206
0.385405
0.387732
1.64976
0.738082
0.532644
0
0.301644
0.390143
0.510454
1.51379
1.341
0.526173
0.518584
0.602485
0.0895243
0
0.412799
0
0
0.402366
0.313331
0
0.875752
0.996152
0.533786
0.704012
0.482922
0.493057
0
0.606552
0
0.512207
0.700466
0.766801
0
0.830144
0
0.444395
0.449874
0.471146
0.777823
0.731596
0.454051
0
0.053529
0.231389
0
0
0.208718
0
0.444422
0.485694
0.359209
0.382745
0.422076
0.586719
0.229577
0
0
0
0
0
0
0
0
0
0
0
0
0
0
0
0
0
0
0
0
0
0
0
0
0
0
0
0
0
0
0
0
0
0
0
0
0
0
0
0
0
0
0
0
0
0
0
0
0
0
0
0
0
0
0
0
0
0
0
0
0
0
0
0
0
0.0638037
0
0.818132
0
0
1.27184
0
0
0
0
0
0
0
2.72405
0
0
0.833924
0
0
0.60426
0
0
0
0
2.02015
0
0
0
0
0.603607
0
0
0
0
0
0
0
0
0
0
0.228468
0
0
0
0
0
0
0
0.258334
0
0
1.45314
0
2.40927
0
0
0.47843
0
0
0.776532
0
0
0
0.758904
0.598532
0.954373
0.255444
0.282928
0.469314
0.286492
1.83295
0.793612
1.28141
2.17302
1.26931
1.476
0.726296
0
0
0
0
0.802071
1.77315
0
0
0
1.80413
0.53009
0.715284
0
0.764872
0
0
1.40033
0.53321
0.57854
0.317821
0.731892
1.29646
1.00564
0
0.766354
1.0602
0.524128
1.10213
1.03948
1.57353
0
0.255074
0.453377
0
0.885013
0.862019
1.50156
0
0.597787
0
0.366243
0.689976
1.05153
1.22173
0.592994
0.913271
0.830013
0.909398
0.630993
1.13415
0.905823
0.412687
0.385448
0.523256
0.718638
0.949753
0.850133
0.895705
0.738442
0.981131
0.428829
0.624169
0.206154
0.798824
0.436445
0.759148
0.491007
0.928455
0.398332
0.747362
0.348535
1.35633
0.865421
0.527902
0.494487
0
0.787446
0.458674
0
1.24037
0.671788
0.94126
0.539878
0.582378
1.29075
0
0.406213
0
0.786159
0
0.389559
0.700258
0
0
0.990661
0.561997
0
0.212303
0
0
0.633509
0.576108
0
1.2523
0.585308
0
0.398279
1.01844
1.18279
0
0.66508
0.891481
0
0.481847
0
0
3.16742
0.52781
0
0
0
0
1.28745
0.85339
0.736506
1.0696
0
0.423945
0
0
0.93343
0.38774
2.5041
0.935593
0.791288
1.85282
1.08578
0
0.452175
0.281777
0.638256
0.476118
0
0.504735
0
0.658419
0.603352
0.50955
0
0.686533
1.20889
0.725606
0
0
0.117104
0.823482
0
0.366776
0
0.675268
0.262157
0.678766
0.63645
0.723526
0.919381
0
1.17293
0.638782
0.774071
0.650543
0
0
0.457414
0
0.553073
0.207684
0.500611
0.34135
0.790148
0.308296
0.816309
0
1.04744
0.566126
1.11617
0.40908
0.501018
0
0.617092
0.560989
0
0.318945
0
0
0.583263
1.55581
1.009
1.0281
0
0.874232
1.08072
1.65165
0
0.511666
0.57604
0.836817
0
0.49629
0
0.806836
0.27961
0.437142
0
0.689673
0.361175
0
0.347072
1.43953
0.792051
0.79945
0
1.09671
0.235335
1.87728
0.867627
0.804845
0
0
0
0.0846053
1.3656
1.09112
0.743488
0.538311
0.915194
0.229266
0.533934
0
0.56847
0.920336
0
0.432935
0.637248
0.715831
0.372929
0.9144
0
0
0
0.370937
0.531865
0.822821
0.704982
0.668126
0.713508
0.585004
1.29834
0.512533
0.892878
0.516407
1.11881
0.326983
0.859996
0.318748
0
0.721895
0
0.196793
0.317432
0
0.7078
1.67851
0.53113
0.314517
1.09033
0.364474
0.515236
2.0924
0.462305
0.709828
0
0.333156
0
0.50022
0.352982
0
0
0.645653
0
0.636312
0.59162
0
0.283043
0.60814
0.849709
1.15128
0.905237
0
0.801398
0.242557
0.675767
0
1.29005
1.06295
0.527791
0
0
0.814648
0.841251
1.12089
1.4448
0.160617
0.877016
0
1.35866
0.800835
0.584128
0.386224
1.38738
0.60579
0.647283
0.668788
0.545282
0
0
2.10466
0.65135
0.853978
0.625321
0.567662
0
0.526939
0
0.765406
1.32284
0.318549
0
0.801518
1.09117
0
0
0
0.746424
0.29371
0.562909
0.685647
0
2.59998
0.844263
0.389506
0.921095
1.12181
1.10623
1.03782
0.920167
0.238401
0.664117
0.685494
2.2603
0.751122
0.939148
0.509965
0
0.626679
0.820312
0.645094
0.797116
0.336777
1.06507
0.749133
0.579365
0.612447
0.326154
0.399943
0
0.6773
1.09411
2.53661
0
0.477775
0.535104
0.698904
0.738732
4.14432
0.234709
0
0.88032
0.655404
0.755276
0.756566
0.785057
1.07779
1.67675
0.49807
1.25391
1.17288
0.682104
0
0.43689
0
0.865937
0
0
0.697105
0.314277
1.12978
0
0
0.360802
0.586514
0.375389
0.681974
2.12152
0.608681
0.510433
1.34477
0.763832
0.520042
0
0.243962
0
0.977796
0
0.809697
1.73536
0.489963
0.222715
0.919844
0
2.08403
0
0.730456
0.602175
1.23836
0
0
0.235299
0
0.88672
0.941681
0
0
0.676894
0
0.763061
0.3502
0
1.02524
0.497267
0.680133
0.791178
0
0
0.482181
0.429766
0.46581
0.513952
0
0.66894
0.0958706
0.377719
0.811759
1.7216
0.313045
0
0.746734
0
0.205158
0.624453
0.78622
1.07586
0
1.04127
0.501177
0.118356
0.442379
0.0702156
0
0
1.11077
0
0.537814
0
0.531795
0
1.20317
0
0.381149
0.247985
0
1.2326
0.961834
0.502949
0.661717
0.706301
0.75694
0.417478
0.678493
0
1.25653
0.451878
0
0.669812
0.680263
0.744936
0
1.01332
1.43926
1.05955
0.94742
0.885166
0.976781
0.907671
0.291999
0
0.651398
0.710941
0.753131
0.87563
1.19437
0.722833
1.22579
0.864722
0.269474
0
0.531175
0.551072
0.0694891
0
0.34357
0
0.665404
0.680343
0.667604
0
0.683027
0
0.633085
0.556759
0.585313
0.696991
0.945457
1.54515
0.824892
0.956143
0.299994
0
0.513021
0.418619
0
0.790729
0.677189
0.501069
0
0
0.580958
0.768977
0
0
0.56686
1.04452
0.685809
0
0
0.748038
0.806267
0.671598
0.622746
0.71715
0
0.352181
0.445999
0
0
0.273743
0
0.882813
1.26626
0.493835
0.531405
0
0.512254
0
0.349463
0
0
0.693548
0.284363
0
0.483346
0.329214
0.199441
0.474577
0
0.859019
0.818045
0.395138
0
0.413415
0.459683
0.488267
0.321541
0
0.579916
0.694242
0.627186
0
0.55818
0.54212
0.77195
0.415717
0.493993
0.608053
0
0.788522
1.50233
0.46471
0.75744
1.10221
0.742862
0
0.673565
0
0.687599
0
0.877216
0.373969
0
0.645775
0
0.567882
0
0.646432
0
0.959649
0.60148
1.18098
0
0.382405
0.649446
0
0.505444
0.248944
0.603384
0.516149
0.904592
0
0
0.599015
1.1094
0.578273
0.681379
0
0
1.15218
0
0
0.727968
0.184667
0.443375
0.298657
1.04705
0.0320381
0.772455
0.596352
0
0.468453
0
1.56606
1.14029
0.684222
0.601534
0.782683
0.495519
0.88808
0.707926
0.460983
1.31218
0.713203
0
0
0.121986
0.97829
0
0
0.435258
0.319837
0.547064
0
0.227876
0.503126
0.714362
0.6303
0.41265
0.544413
0
0.582565
0.439832
0.845195
0.412407
0.527317
0
0.428984
0.817017
0.805164
0
0
0.605896
0
0.683364
1.23364
0.684219
1.34484
0.262251
0.104382
2.58304
0.62401
1.21211
0.68945
1.09298
0.583038
0.901676
0
0.539719
0
0.456025
0
0.373938
0.586854
0.491985
0
1.18479
0.377649
0.622192
0.513326
0.280388
0.556541
0.607451
0
0.874645
0.70683
0.422834
0.384802
0.394582
0.958816
0.304022
0
0.745356
0
0
0.820087
0.674208
0.653735
0.607537
1.66534
0.793943
0.607649
0
1.14915
0.661296
1.18719
0.560633
0
0.670149
0
0
0.802299
0
0.605386
1.67177
0.393336
0.837406
0.621226
0.40069
0.199313
0.648127
0
0
0.522221
0.923331
0
0.593768
0
0
0.45996
0.453948
0.669033
0.831256
0
0.780852
0
0.493028
0.628926
1.44322
0.309062
0.448535
0.446395
1.16841
0.593519
0.486269
0.569331
0.431831
0.792844
0.930312
0
0.76991
0
0
0.398754
0.707142
0.678
0.318037
0.524625
0.608888
0.498029
0
0
0.4898
0.702678
0
0
0.482297
1.11542
0.548817
0.51488
0
0.780106
0.377619
0
0.275084
0.822607
0.399717
0.847365
0.68767
0.679156
0.37653
0
0.374272
0
0.89418
0.18609
0
0
0.396243
0
0
0.518925
0.802432
0.566315
0.42878
0.828487
0.568828
0.392817
0.463522
0.516321
0.881327
0
0.38085
0.473008
0.480684
0.707205
0.528145
0.404269
0.350436
0.321259
0
0.492155
1.09305
0.827461
0.543702
0.888271
0.456983
0.554456
0.622794
0.259377
0.6327
0.873624
0.38168
0.837295
0
0.340216
0.419068
0
0
0
0
0
0
0
0
0
0
0
0
0
0
0
0
0
0
0
0
0
0
0
0
0
0
0
0
0
0
0
0
0
0
0
0
0
0
0
0
0
0
0
0
0
0
0
0
0
0
0
0
0
0
0
0
0
0
0
0
0
0
0
0
0.353389
0.480271
0
0.3642
0.427759
0
0.502074
0.713281
0.249781
0.392534
1.91642
0.515301
0.638201
0
0.376679
1.13343
0.461967
0.691431
0
0.529018
0.536526
0
0.413334
0.96879
0.198281
0.647783
1.64023
0.471535
0.336006
1.83792
0.39643
1.25719
0.232557
1.32144
0
0.267422
0.940236
0.499863
0.438361
0.742497
0
0.538676
1.18372
1.41141
0.396609
0.293774
1.21101
0.348477
0.128296
1.02151
0
0.647808
1.11214
0
0.779665
0.44186
0
1.05723
2.25396
0.899406
0.656495
0
0.452547
0.710414
1.41873
1.10773
0.299021
0.903205
1.24
0
0
0.852128
0.632421
0.672624
0
0.553478
1.00398
1.00445
0.769244
0
0.830675
0.263196
0
1.0766
0.868754
0.323835
0.765126
0
0.43371
1.23769
0.952181
0.648898
0
1.13318
1.27072
0
1.07572
1.15322
0
0.905255
0
0
0.722362
0
0.377011
1.47091
0
1.15512
0.537186
0
0.33226
0.653794
3.25709
0.674945
0.40881
0
0.60632
0
0
0
0.858402
0.640931
0.682199
0.618322
0
0.710908
0.561706
0.460423
0.77135
0.380237
0
1.13515
0
0.515712
0.57848
0
0.718888
0
0
0.543859
0
0
0.915726
0.583732
0.390591
0
1.44331
0.61418
1.78686
0.211613
0.675621
0.453735
0.499631
0.727911
0
0.510974
0.0419035
0.588811
0
1.21206
0.537946
0.381288
1.06626
0
0.897991
0.453089
0.908239
0.846873
0.518022
0.467955
0
0.303938
0
0
0
1.06442
0.838139
1.41635
0
0.854371
0.895601
1.34858
0
0.644241
0.837217
0
0
1.06393
1.90086
0.40545
0.865829
0
0.354949
0.673579
1.58051
0.546563
1.10386
0.894034
0.542773
0.305152
0.470724
2.09221
0
1.12247
0.687645
0
0.211224
0.559385
0.852427
0
0
1.30795
1.11597
1.69746
0.541621
0.677945
0
0
0.283934
0.324317
0.504272
0
0.20664
0
0.857666
0
1.31827
0.642449
1.16483
0.737198
0.583462
0.510874
0
1.1327
0
0.69616
0.6552
0.429819
0.605046
0
0.845237
0.429973
1.55749
0.686664
0.500502
0
0.66168
1.11666
0.817091
0
0.811499
0
0.622078
0.381975
0.993348
0.437634
0.952854
1.11966
0.997794
1.22607
0
0
0.638775
0
0.510959
1.18879
0.78964
0.643824
0.239134
0.707941
1.24197
0.753924
0
0.834624
0.959248
0.685811
0.992346
0
0.744083
0.967379
0.755913
1.42643
1.13032
1.1215
0.437331
0.363755
0
0.824599
0
0.609485
0.402113
0.499006
0.633965
0.723282
0.544785
0.634327
0.227791
0
0.948929
0.619521
0
0.540424
0.49779
0.204958
0.822025
0.418023
0.839416
0.937327
0.874169
1.52245
0.726505
1.06751
0.724581
0
0.868507
0.3541
2.46408
0.835694
0.93994
0
0
0.509851
0
0.744009
1.30132
0.976812
0.440843
0.91668
0.570423
0.865787
0
0.380058
0
0.18745
0.437155
0.569024
0.765298
0.676926
0.88481
0.974563
0.751818
0.749925
1.06855
0
0.481342
0
0.703532
0.554681
1.07605
0.67987
0.404127
0.721778
0.932003
0
2.46239
0.411328
0.778067
0
0.350652
0
0.452891
0
0.151663
0.672769
0.38233
0.241654
0.689723
0.565015
0
0.379209
0
0.459604
0.571619
0.503408
0.28538
0.709358
0.574615
0
0.318194
0
0.992979
0
0.0973024
0.389571
0.530199
0
0
0
0.494239
0
0.797936
0
0
0.103101
0
0.262462
0.198258
0
0.179288
0.321653
0.406309
0.581933
0.614501
0.449634
1.25478
0.593964
0.403229
0.71095
0
0.698637
0
0.469715
0
0.769447
0.722202
0.664891
1.19406
0.646532
0.660899
0.707816
0.771298
0
0
0.609089
0.745157
0.698386
0.632329
0
0.172976
0.484336
0.674348
1.29807
1.00058
0.414378
0.398755
0
1.03888
1.33875
0
0.586752
0
0
0.671717
0.482298
0.99487
0
0.795379
0
0.609926
0
0.751985
0.737724
0.438151
0.40216
0.922647
0
0
1.14331
0.789607
0
0.666386
0.742594
0.442713
0.63502
0.67257
0
0
0.925927
0
1.36197
0.834864
0.432439
1.19795
0.512669
0.45956
0
1.14771
0
0.436064
0.276258
0.359272
0.685271
0.295143
0.643757
0
1.06939
0
0.148195
1.97209
0.633751
0.634447
0.47052
0.900216
0.977406
0.711984
0.605129
1.70251
0.681114
1.02582
0.483806
0
0.557376
0
0.784741
0.546633
0.870094
0.860497
0.629357
0.281671
0.770564
0
0
0.586187
0.635173
0
1.15114
0.742994
1.29028
1.00577
0.408643
1.13672
0.898849
0.224156
0
0
0.404999
0.600713
0.908682
0
0
0.323127
0
0.3347
0
0.811726
0.859619
0.502101
0
1.02181
0.647476
1.87378
0.515728
0.957421
0.874446
0.262057
1.14885
0
0
0.5811
0.885135
0
0.180863
0.626821
0.344089
0
0.259442
0
0.699827
0.575259
0.345843
0
0.536955
0
1.24393
0.490474
0
1.05377
0.459675
0
0.611314
0.863455
0.513534
0.600193
1.29361
0.556343
0.62618
0.600303
0
0.53485
0
0.821916
0
0.333154
0
0.936469
0
0
0.932318
0
0.53939
0
0
0.579104
0
0
1.32672
0.674492
0.768817
0.799723
0.352781
2.35631
0.92937
0.48912
0.536544
0
0.616713
0.262482
0.723394
0.493584
0.580299
0.578405
0.622969
0
0.959012
0.537505
0.974347
0.0323836
0.115834
0.385004
0.78699
0.837184
0.278594
0
0.502055
0.447501
0.524606
0
0
0.773143
0
0.4292
0
0.751325
0.681416
0.541299
0.6983
0.682903
0.415909
0.423015
0.869034
0.672666
0.89929
0.827405
0
0
0
0.334005
0.620468
0
0.823108
0.466828
0.641855
0
0.641017
0.424052
0.492901
0.419837
0.493391
0
0
0
1.51177
1.02238
0.524593
1.02749
0
0.474387
0.313719
0.618769
0.301728
0
0
0.952315
0.736415
1.63311
0.772276
0.86491
0
0.92424
0.0549798
0
0.242839
0
0.695691
0.811215
0.446796
0.672528
0
0
0.306737
0
0.776848
0.59731
0.505869
0
0.461775
0
0
0
0.437931
0
0
0.724369
0.399041
0.415825
0
0.305979
0
0.480666
0.925773
0.989821
0.877773
0.633104
0
0.448293
0.469096
0.852796
0.556865
1.18979
1.26144
0.823984
0
0.396939
0.638882
0.539222
0.731966
0.966546
0
0.508151
0.911337
0
0.331287
0.715122
0.493808
0.96741
0.503697
0
0.401066
0.786273
0.34336
0.312535
0.514287
0.74551
0.28867
0
0.272118
0.619299
0.21274
0
0.608301
0.482336
0.895963
0.626128
0.278635
0.466434
0.911709
0.265328
0.215737
0.335339
1.02307
1.80898
1.31145
0
0.714544
0
0
0.33818
0.605293
0.577382
0
0.492481
0.533376
0.435366
0.62145
0.680906
0
0.582229
0
0.902975
0.499278
0.669495
1.04642
0
0.555549
0
0
0.378257
0
1.06356
1.02569
0
0.469968
0.611559
0.858711
0.603622
0.856643
0
0.923915
0
1.10605
0
0.373953
0
0
1.21066
0.615197
0
0.878271
0.305016
0.448916
0.363921
0.246296
0
0.397579
0.607697
0.81294
0.637859
0.538187
0.737366
0.26826
0
0.556678
0.367213
0.836491
1.20643
0
0.384031
0.446561
0.639494
0
1.2047
1.17462
0.731208
0.174722
1.23002
0.879775
0.82837
1.06738
1.43481
0.85965
0.676493
0.560716
0.391472
0.866446
0.491905
0.455111
0
0.304427
0
0.702243
0
0
0.578225
0.363662
2.19687
0.436212
0.631005
0.569398
0.634009
0.612375
0.449183
0.476903
0
0.910905
0
0.204576
0.30989
0.663965
0.451022
0.750413
0.479001
0.971105
0.744708
0.732956
0
0.235123
0.260012
0
0.173836
0.476506
0.572793
0
1.75501
0.635945
0.54151
0.2443
0.894121
0.4131
0
1.03125
1.17019
1.40907
0.242263
0
1.07118
0.792373
0.619356
0.331511
0.47837
0.693619
0.629196
0.318341
0
0.553659
0.337071
0.384449
0.464599
0.205002
0.375627
0.411762
0.596044
1.4556
0
0.508898
0.499781
0.51043
0.385937
0.239639
0.347328
0.555073
0
0.55815
0.306143
0.311234
0
0.558562
0.594873
0
0.605775
0.437431
0
0.329351
0.704656
0
0.684186
0
0
0.476322
0
0.134753
0.111806
0.612505
0.145249
0.335393
0
0.606322
0
0
0.691947
0
0
0.802575
0
0.510276
0.270371
0.614838
1.56309
0.482354
0.650306
1.00245
0
0
0
0
0
0
0
0
0
0
0
0
0
0
0
0
0
0
0
0
0
0
0
0
0
0
0
0
0
0
0
0
0
0
0
0
0
0
0
0
0
0
0
0
0
0
0
0
0
0
0
0
0
0
0
0
0
0
0
0
0
0
0
0
0.35031
0.641577
0.826559
0.509725
0.538258
0
0.606722
1.54256
0.393344
0.66894
0
0.762433
0.533442
0.318759
0.449095
1.28949
0.287926
0.533356
0
0.4011
0.284992
0
0.590162
0.941192
0.287177
0.609915
2.38348
0.62461
0.657304
0
0.56661
0.871244
0
0.267916
0
2.10045
1.00172
0
0.602994
1.20304
0.565478
0.895797
0
0.618051
0.983151
0
0.318467
0.579005
1.46098
0.402496
0
0.86702
0.436608
0
0.826501
0.192586
0.0328295
1.26168
0
0.484706
1.42803
0
0.818004
0.571209
1.42678
1.05572
0.862588
0
2.17721
0.982132
0.64539
1.1041
0
0.65022
1.6524
1.85474
0.816158
1.29595
0
0.519386
0.545754
0
0.719434
0.288688
2.10905
0
0.648935
0
0.694658
0.983126
0.723769
0
0.627429
1.03036
0
1.11926
0
1.52376
0.788801
0
0
0.482075
0.391271
0.584591
0
0.825344
0.181584
0
0
0.487269
0.937658
0.651088
2.5784
0.697837
0.359683
1.0727
0.201164
0.821567
0.984646
0.547655
0
0.583641
1.35716
0.736678
0.537865
0.329099
0.214803
0.503154
0.857353
0.673883
0
0.873922
0.613913
0.389487
0.602287
0.157234
1.11431
0
0.617814
0
0.908604
0.68687
0.74518
0.549552
0.758577
0.399543
0.779433
0.229256
0.77577
0.385868
0
0.39237
0
0.81374
0
0.40415
0
1.48033
0
0.449674