<?xml version="1.0"?>
<VTKFile type="RectilinearGrid">
<RectilinearGrid WholeExtent="0 32 0 32 0 32" Origin="0 0 0" Spacing="1 1 1">
<Piece Extent="0 32 0 32 0 32">
<PointData>
</PointData>
<Coordinates>
<DataArray type="Float32" format="ascii">
0 0.524874 1.04975 1.57462 2.0995 2.62437 3.14924 3.67412 4.19899 4.72386 5.24874 5.77361 6.29849 6.82336 7.34823 7.87311 8.39798 8.92285 9.44773 9.9726 10.4975 11.0224 11.5472 12.0721 12.597 13.1218 13.6467 14.1716 14.6965 15.2213 15.7462 16.2711 16.796 
</DataArray>
<DataArray type="Float32" format="ascii">
-5.03879 -3.62163 -2.20447 -0.787311 0.629849 2.04701 3.46417 4.88133 6.29849 7.71565 9.1328 10.55 11.9671 13.3843 14.8014 16.2186 17.6358 19.0529 20.4701 21.8872 23.3044 24.7216 26.1387 27.5559 28.973 30.3902 31.8074 33.2245 34.6417 36.0588 37.476 38.8931 40.3103 
</DataArray>
<DataArray type="Float32" format="ascii">
0 0.524874 1.04975 1.57462 2.0995 2.62437 3.14924 3.67412 4.19899 4.72386 5.24874 5.77361 6.29849 6.82336 7.34823 7.87311 8.39798 8.92285 9.44773 9.9726 10.4975 11.0224 11.5472 12.0721 12.597 13.1218 13.6467 14.1716 14.6965 15.2213 15.7462 16.2711 16.796 
</DataArray>
</Coordinates>
<CellData>
<DataArray type="Float32" Name="Scalar" format="ascii">
0
0
0
0
0
0
0
0
0
0
0
0
0
0
0
0
0
0
0
0
0
0
0
0
0
0
0
0
0
0
0
0
0
0
0
0
0
0
0
0
0
0
0
0
0
0
0
0
0
0
0
0
0
0
0
0
0
0
0
0
0
0
0
0
0.261255
0.336471
0
0.245838
0.170728
0
0.27439
1.03279
0.160296
0.267536
0
0.3409
0.222673
0.699406
0.421529
0.757045
0.140096
0.174951
0
0.398858
0.179606
0
0.208931
1.01008
0.230165
0.35232
0.300473
0.309811
0.258895
0
0.247556
1.19671
0.105377
0.427984
0
0.14318
1.63808
0
0.367619
0.216278
0
0.314794
0
0.852843
0.205256
0
0.555144
0.374062
0.126157
0.518235
1.37671
0.279098
0.652487
0
0.319107
0.886326
2.32307
0.562294
0.465663
1.23048
0.256844
0
0.870801
0.815603
0.828623
1.6115
0
0.604967
0.0989788
1.91947
0.730694
2.22674
0.34221
0.5909
0
0.705413
0.475514
0.541435
0.870247
0.594046
0.54283
0.970083
0.970624
0.267736
1.2475
0.24499
0.180011
0.517254
1.33752
1.28227
0.784966
1.04632
1.22735
0
1.08405
0.628128
0.878757
0.567953
1.01733
0
0
1.09144
0.557574
2.5539
0.471699
0.436093
0
0.699332
0.504635
0
0.245407
0
0.181808
0
0.729411
0
0.524793
0.440396
0.759114
0.653006
0.918179
0.896247
0.636333
0.801071
0
0.646775
0
1.35199
0.658996
0.377528
1.97266
1.0188
0.934592
0.690067
0
0.904858
1.01643
0.577085
0
0
0
0.433966
1.52575
1.29072
0.79163
0.741263
1.49226
0.83688
0.746426
1.05684
1.14469
0.877564
0.6852
0
0
0
0.795255
1.15676
1.01195
1.06333
0.613539
0.818058
0.344371
0.80239
0.47121
0.33174
0.500128
0.909854
0.623914
0.620139
0.420134
0
0.754474
0.681585
0.630234
0.530198
1.01954
0
0
0.287367
1.21021
0
1.12637
0.609076
0
0.543985
0.718588
0.774896
0.344955
0.656791
0.294059
0.580027
1.06472
0.444772
0.370412
0.547468
0
0.468086
0.761865
0.61612
0.91297
1.15746
0
0.563104
0.339369
0.548937
0.144501
0.553366
1.09572
0
1.57313
0.542364
0
0
0.805927
1.01041
0
0
0.691428
0.590907
0
0.540046
0
0.652946
1.5849
0.577352
0.517638
0.650428
0.35926
0.437463
0
0.755947
0
0.684888
0
0.596579
0
0.679102
0.337967
1.17586
0.49672
1.05897
1.52686
0.569785
0.277995
0.866402
1.24836
0.861601
0
0
0.858858
0
0.357503
0.468902
0.815715
1.67538
0.375072
0.177021
0.501967
0.696753
0.387286
1.06036
0
0.577134
0.841895
0.277387
0.327665
0.521025
0
1.03209
0.457046
0.817414
0
1.1119
0.86535
0
0.438183
0.783193
0.328663
0.235148
0.978807
0
0.786971
0.284091
0.446055
0
0.851224
0
0.450079
1.02937
0.533617
0.619633
0.625937
0.275032
0.206635
1.20713
1.63291
0.409027
0.416325
0
0.767677
0.661667
0
0
0.567702
0.969886
0.783848
0
0.553542
0.648106
0
0.555437
0
0.470327
1.06279
0.655294
0.185879
0.308562
0.30699
1.10693
0.7066
0.670206
0.874377
0.253442
0.714635
0.603132
0.670064
0.266796
1.09649
1.03922
0.54504
0.450902
0.667343
0.265701
0.33303
0.365063
0
0.270702
0
0.409159
1.04616
0
0.48118
0.585433
0
0.717026
0.341669
0
0.79829
0
0
0
1.21433
0.441318
0.697913
1.31505
2.22798
0
0
1.03135
0.516149
0.455834
0.345756
0.436268
1.04406
0.807806
0
0.335948
1.04806
0.972406
0
1.12074
0
0.456362
0.340793
0
0
1.21998
0.170029
0.453548
1.09668
0
0.406958
0
0.892095
0.408483
0.793548
0.669712
0.424255
0
0.550315
0.814192
1.09988
0.78209
0.773656
0
0.841344
2.13672
0.416182
0.986064
2.52847
0.752138
0.857795
1.08822
0
0.734838
0
1.12223
1.45052
0.856138
1.0298
0
0
1.05942
0.985597
0
0.834676
0
0.515767
0.26303
0.4824
0.746197
0.425929
0
0
1.81267
0.776476
1.5256
1.57573
0.233509
0.837902
1.29454
0.139563
0.550335
0
0
0.38702
0.66544
0
0.532373
0.316418
0
0.531477
0.287326
0.927223
0.545532
0.746295
0.785859
0
1.02218
0.49412
0.512998
0.761643
0.868355
0.506692
0
0
0.550563
0.589064
2.32547
1.02374
0.645714
0
0.725587
0.844837
0
0.653115
0.550612
2.17365
0.652539
0.309032
1.25206
0.111619
0.469182
0.347136
0.628531
0.505664
1.15546
0
0.686088
0.67856
1.48973
0.818988
0.432509
0.668982
0
0
0.407247
0.786324
0
0.612782
1.10241
0.559377
0
0.604056
0.819483
0.524251
0.743496
0.660733
0.341767
0.742503
0.562671
0.881213
0.58999
0
1.0957
0.695311
0.699642
0.619377
0.414251
0.706278
0
0
0
0.574481
0.5726
0.465535
0.917755
1.04191
0.896201
0
0.403017
0.576431
0
0.757735
0
0
0.43111
0.511654
0.810176
0
0.692766
0.582236
0.538029
0.322891
0
0.48533
0.836348
0.846464
1.05385
1.14813
0.887292
0.407711
1.12725
0
0.32082
0
2.51039
0
0.501707
0.680796
0
1.1012
0.334434
0.479256
1.46463
0.482281
0.455071
0.82615
1.41602
0.83087
0.780844
0.555672
0.889675
0.25523
0.602142
1.05953
0
0.607991
0.916202
0.494278
0
0.637406
2.02245
0.920381
0
0
0.421776
0.354582
0.292851
0.579918
0.631083
1.66268
1.41146
0.61379
0.410757
0
0
0.473378
1.17652
0.585924
0.670099
0
1.12917
0.315483
0.533252
0.434163
0.749329
0.607136
0.352482
0.237715
1.95502
2.33732
0.70978
0
0.652509
0.531996
1.13154
0.295659
0.331112
0.65859
0
0.982868
0.321366
0.93553
0.272874
0.418301
0
1.09543
0.821568
0.976213
0
0
0
1.68873
1.08655
0.721241
0.715064
0.339631
0.703052
0.488121
0.411749
0.623331
0
1.46309
0.538235
1.61925
0.437869
0
0.648075
0.552294
0.466646
0
0
0.828315
0
0.851994
0.313153
0.869454
1.02502
1.0218
0.645602
0
0
0.708684
0.645223
0.581899
0.935173
0
0.614628
0.999674
1.39153
0.787257
0
0.694314
0.554509
0
0.623172
0.633375
1.05068
0
0
0.257902
0
0.785688
0.60595
0.141245
0.386741
0.589544
0
0.428404
0.148382
0.480212
0.503827
0.675904
0
0.780982
0
0.481541
0.71262
0.401743
0.88264
0.95776
0
0.563452
0
1.32819
0.880958
0.83448
0.562174
0
0.48694
0.223994
0.226077
0.576008
0
0
0.753643
0.836341
0
0.440065
0.85512
0.49733
0
0.859745
0.798872
1.25563
0.747377
1.24464
0.533894
0.370565
0
0.456475
0.977527
0.512797
0
0.459558
0
0.176608
0.442008
0.78831
1.02145
0.649304
1.89301
0.758058
0
0.653335
0
0.332278
0.547617
0.524396
0
0
1.35724
1.33775
2.1747
0.364475
0.934367
0.664237
0
0.858454
1.04488
0.489829
0.763398
0
0
0.9283
0.575625
1.23611
1.40464
1.51461
0.64394
0.734703
0.966243
0.547862
0.843197
1.0981
1.02226
0.74209
0.524472
1.0561
0.418574
0.550547
0.484667
0
0.906927
0
2.19135
0.635696
1.31351
0.951001
0.712674
0.610343
0.537421
0
1.03604
1.15087
1.13613
0.725474
0
0.543361
0
0
0.789665
0.801479
0.701168
0.434376
0.446858
0.479838
0.412731
0.61185
0.402262
0.233438
0.285805
0
0
0.645509
0.52009
0.347816
0.777574
0.556774
0.581425
0.341058
0
0.124329
0
0
0.70883
0
0.705137
0
0.587679
0.470054
0.136333
1.52494
0
0.682301
0.683405
0.672199
0.554855
0.813734
0.655828
1.29735
0.590633
0.35791
0.360996
0
0.429722
0.25112
0.76636
0
0
0.7667
0
0.317802
0.433033
0.757052
0.700943
0.492501
0.641229
0.197197
0
0.41101
1.05256
0.548449
0.564594
0.811796
0.283323
0.561116
0.410635
0.411569
0
0
0
0.483951
0.207674
0
0.472355
0.69284
0.854438
1.02748
0.322007
1.15297
0.387152
0.845839
0.369968
0.936725
0.360517
0.44499
0.29538
0.288385
1.83023
1.18359
0.38507
0.562852
1.34158
0.535735
1.18748
0.863632
0.267281
0.445357
0.369457
0.918883
0.975402
0.539966
0.347234
0.408944
0.53621
0.18801
0.574603
0.633176
0.742613
0
0
0.331343
0.746239
0
0.630509
0.526715
0.470485
1.2561
1.22039
1.42652
1.28996
0.305531
0.180825
0.432082
0
0
0
0
0
0
0.605683
0.517043
0.503254
0.315627
0.47132
0.467974
0
0.528921
0.508909
0.946644
0.660727
1.53923
0.561016
0.196102
0
1.19394
0.426488
1.32399
1.08821
0.36269
0.4793
0
0.392751
0
0.59924
0.425457
0.626213
0.767989
0.392893
0.490136
0.824098
1.10116
0.767058
0.300674
1.0256
0.55524
1.10468
0
0
0
0
0
0
0
0
0
0
0
0
0
0
0
0
0
0
0
0
0
0
0
0
0
0
0
0
0
0
0
0
0
0
0
0
0
0
0
0
0
0
0
0
0
0
0
0
0
0
0
0
0
0
0
0
0
0
0
0
0
0
0
0
0.230648
0.52895
1.2253
0.382567
0.360114
0
0.508683
0.686193
0.228882
0.613853
0
0.483337
0.345207
0
0.476635
1.01245
0.20533
0.375638
0.738419
0.634116
0.630215
0
0.804129
1.45175
0.572648
0.7907
0
0.646675
0.426336
1.77041
0.617367
1.15404
2.04409
0.277941
0
0.599082
0.483772
0
0.981214
0.577655
0.188989
1.42064
0
0.223452
0.890846
0.515294
0.196015
1.25665
4.28296
0.467971
0.722412
1.52063
0.2639
0
1.35899
0.919036
0.242902
1.03464
0
0.488369
1.43473
0.322975
0.38101
1.50271
1.34414
0.872806
0.557903
0.800061
0.54302
0.982271
1.55582
0.697328
0.633713
0.620161
0.941751
0.544861
0.939635
0
0.643344
1.6058
1.45288
0.742576
0.613007
0.448374
1.18028
1.16327
1.04597
0.944759
0
0.984711
0
0.672967
1.43811
0.917047
1.47784
1.72116
0.812176
0
0.885321
1.06961
0.191999
0.513914
1.68921
1.22025
0
0.51953
0.617102
0
0.400782
0.992527
0.18643
1.06252
0.709399
0.78316
1.79199
0
0.460659
1.10625
0
0.465029
0.8259
1.17214
0.507287
0.931245
0.462676
0.561517
0
0.307004
1.06783
0.783305
0
1.30031
0
0.980407
1.23282
0.353723
0
0
0
1.06074
0.795049
0.511777
0
0.806699
1.10077
0.338269
0
0.329877
0.423835
1.01565
0.622559
0
0.695869
0.508045
0.471229
0.490766
0
0.639831
0
0.449278
1.27862
0
0.808479
0.671309
0.185467
0.535847
0
0.905981
0
0.855509
0.618971
0.60627
0
0.89362
0
0
0.61524
0.369704
1.13255
1.77512
0.685174
0.449629
0
0.646881
0.698841
0
0.673001
0.510899
0
0.381476
0
0.868529
0
0.249723
0.446016
0
1.02524
0.418485
0
0.767451
0.28157
0
1.54548
0.532216
0
0
0
0
1.71793
1.0475
0.519699
1.00923
0.827833
0.396159
0
0
0.833051
0
0
0
0.289782
0.712445
0
0
0.636301
1.92609
0.776712
0
0
0.693283
0.461489
0.165097
0
0.59519
1.23796
1.42325
0.514447
0.269796
0.653776
0.350461
0.448305
0.511868
1.23008
0
0
0.988846
0.759903
0.556754
0.543068
0.553123
0.70692
0.575189
0.558099
0.612174
0
1.01813
0.697173
0.63107
0.304702
0.204143
0.7043
0.424554
0.757516
0.89047
0.332795
0
0
0.621961
0.245625
0.749687
0.850998
0.658732
0.617517
0.621316
1.8957
0.746131
0.440892
0.626072
0.631866
0.214198
0.334021
0.666545
0.748432
0
0
0.459182
0.660758
0
1.53465
0
0.978624
1.18746
0.894091
0
1.05187
0.895394
0.768282
0.14698
0.649195
1.17009
0.377468
0.956886
0.222497
0.514794
0.67837
1.37697
0.563385
0.527898
0
0.358845
0.485303
0.631031
0
0
0.502958
0.842966
1.09946
0.993421
0.472205
0
0.486615
0
0.569296
0
0.958955
0.287091
0
0.636011
0.472527
1.39642
0
1.95333
0.835377
0
0
0
0
0.451428
0.298433
0.468777
0.959943
0.375048
0.570533
0.38868
0.310612
1.94606
0.425667
0
0.53424
0.21698
0.864338
0
1.59907
0
0.468772
0.339874
0
0.477331
0.464565
0
0.507074
0.631165
0.558381
0
0.583069
1.11875
0.734737
0.295824
1.00902
0.448251
0.538176
0
0.847659
0
0
0.236102
0.595319
0.592781
0
0.690502
1.3758
0.791651
0.400993
0.35684
0.703773
0
0.563421
0.755913
0.48461
0.819765
0.31054
0.497528
0.299517
0.401124
0.699603
0
0.781562
1.74412
0.919583
1.0841
0.379326
0.378623
0.644789
0
0.423999
0
0.744201
0.652981
0
0.620946
1.45202
0.445676
0.260792
0.56548
0.289156
0.424369
0.840703
0.337495
0
0.126537
0.422918
0.203639
0.443795
0.472517
0.66839
0.426634
1.55183
0.990949
1.12744
1.0102
0.331817
0
0.956701
1.67862
0.380648
0.65286
0.554096
0.665948
0.432054
1.38535
0.478308
0.821941
0.300797
0.428982
0
0.358575
0.590919
0.489036
1.03579
0.809721
0.283927
0
0.63405
1.19517
1.38183
0.468342
0.47397
0.241644
0
0.546404
0
0
0.0642038
1.11379
0.942526
0.595461
0
0
0.748504
0
0
0
0.322727
0.703529
0.461311
0.556178
0.437239
1.01041
2.15286
1.19259
0
0
0.486575
0
0.997522
0
0.801079
0
0.494338
0.724442
0.481477
0.531216
0.381228
0.777976
0.577602
0
0.878279
0.764964
0
0.444113
2.45389
0
0
0.940866
0.379277
0.991438
0.711522
0
0.306058
1.58723
0
0.684411
0
0.290218
0
0.524218
1.67375
0
0.522467
0
0.542232
0.60265
0.508747
0.918686
0.293411
0.3108
1.03366
0.568635
0
0
0.720755
0.334211
0
0
0
0.232906
0.33709
0.454946
0.50392
0.290334
0.854217
0
0
1.00666
0.514663
0
0
0.441552
0.595137
0.506795
0.98707
1.5172
0.810856
0.384752
0.957351
1.25601
0
0.429238
0
0.625122
0
0.592014
0
0.516444
0
0.311766
0.577983
0.633522
0
0.738685
0.827137
0.800729
0.965242
0
0.740704
0.661223
0
0
0
0.388676
0
0.550286
0.384078
0.526556
1.14674
0.792664
0.36947
0.457211
0.671315
0.984877
0
0.509287
0.803963
1.27979
0.65112
0.727437
0.784595
0.704223
1.41902
0.856893
0.33413
0.859306
1.31727
0
0.578873
0
0
0.0599115
0.220961
0.416872
0
0
0.410117
0
0.518873
0.443359
0
0.276956
2.25158
2.03521
0.66881
0.360501
0.425209
0.739412
0.589739
0.46328
0.377513
0
0.879392
0.574397
0.917824
1.03135
0
0
0.616256
0.541412
0.455518
0.891004
0
0
0
0
0.351673
0.29222
0
0.53442
1.45973
0.473827
0.559564
0.756306
0.38599
0.601674
1.29341
0.563024
0
0
0.61162
1.84385
0.736805
0
1.21383
0.558081
1.70322
1.31318
1.63492
0.266143
0.469573
0.429194
0.801586
0.43822
0.74855
0.749473
0.486274
1.10021
0.421248
0
0.386687
1.29342
0.280636
0
0.660217
0
1.11078
2.16496
1.02076
0
1.60313
0.974236
0.746097
0
0
1.26535
0.659662
0.195348
0.709917
1.11032
0.556839
0.895381
0.889777
0
0
1.16189
0.349124
0.964806
0.471413
0.761325
0.522767
0.635174
0.695592
0.510855
0.643192
0.623537
0.320639
0.169475
0.38912
1.14663
0.275334
0
0.724088
0.399621
0.3421
0.801009
0.408929
0.859015
0.34612
0.504533
0.708626
0.557337
1.11132
0.363106
0.678988
0.51698
0.681963
0.785914
0
0.853745
2.10885
0.641663
0
0
0.66151
0.666366
0.401366
0.528739
0
0.752806
0
1.28935
0.800086
0
0.965201
0.823024
0.463311
0.407556
0.474164
0.245198
0
0.4774
0.58729
0.4825
0
0.281532
0.973795
1.42005
0.759423
0.642765
0.590185
0.511751
0.911312
0.826673
0.78682
0
0.643203
0.682623
0.49797
1.3158
0
0.745461
0.461452
0.436077
0
0.51891
1.92768
0.434713
0.849289
0.709643
0.241973
0.595434
0
0.496819
0.671243
0.769265
0.71188
1.52736
0
1.24934
0
1.03063
0
1.2315
0.807582
0.882709
0.694466
0.457006
0.497677
0
0.303811
0.345057
0.656247
0
0
0.511115
0
0.36821
1.06167
0.522589
0
0.38889
0
0
0.736001
0.694818
0.593281
0.437005
0.24309
0.577014
0
0.847279
0
0.385455
1.60491
0.804036
0.673335
0
0.416936
0
0.408013
0
0.282805
0.847501
0.444665
0.464389
0
1.03992
0.383388
0
0.642827
0
0.581362
0
0.721748
0.842083
0
0
0.662973
0.302501
0.419827
0.815036
0
0.579247
0
0.220048
0.477457
0.902564
0
0.491484
0
0.713332
0
0.393554
0
0.715386
0
0.9918
0
0
0.224153
0
0.614099
0.46339
0.786155
0.500806
0.433964
0
0.378955
1.65909
0.432173
0.508101
0.296274
0
0.720414
0.379348
0
0.307236
0
0
0
0.355273
0.805428
0.57421
0.285796
0
0.772078
0.656936
0
1.13049
0.880959
0.765758
0.263016
0
0.479372
0
0.573539
0
0.602306
0.644791
1.12481
0.796236
0.45701
0.297433
0.628899
1.27994
0.524767
0.316183
0.456703
0.599387
0.0819647
0.65614
1.05166
0.382436
1.45425
0.571518
0.460576
0.750966
0.752574
0.636111
0.397422
0.881843
0.29501
0
0.252852
0
0.438496
0
0.602179
0.443626
0.896399
1.00836
0.248695
0.361696
1.522
0.375675
0.377782
0.340455
0.426672
0.7909
0.281203
0.268365
0.971468
0.456544
0
0
0
0
0
0
0
0
0
0
0
0
0
0
0
0
0
0
0
0
0
0
0
0
0
0
0
0
0
0
0
0
0
0
0
0
0
0
0
0
0
0
0
0
0
0
0
0
0
0
0
0
0
0
0
0
0
0
0
0
0
0
0
0
0
0
0
0
0
0
1.27726
0
0
0.303265
0
0
0
0
0
0
0
0
0
0
0
0
1.28243
0
0
1.26729
0
0
1.24164
0
0
0.708501
0
0
0
0.953197
0
0
0.382737
0.299471
0
0
0
0
0
0
0
0
0
0
0
0
0
0
0
0
0
0
0.654302
0.680072
0
0
0
0
1.16099
0.548875
0
0
0.485723
0
0.748889
0.646901
0
0.428869
0.608994
0.75561
1.0781
0.534785
0.381254
0.889048
0.696628
0
0.811675
0.194719
0.816696
0
0.978534
0.658559
0.600175
0.762294
0.783676
0.685779
0.643713
0
0.844652
0.202742
1.15278
0.820911
0.912686
0.748242
0.0410828
0
0.394044
0
0.450713
0.264518
0.437545
0
0.661914
0
0
0.463403
0.352984
1.82888
0.411642
0.580741
0
0.55842
0
0.762029
0
1.04026
0.44316
0
0
0
0.757091
0.707272
0.594198
0
0.545937
0.986983
0
0.400526
0
0.512525
0
0.675194
0
0
0
0
0.423392
0.178105
0.95416
0.527902
0
0.250228
0.645313
0.728587
0.769061
1.44484
0.709347
0.845611
0.995982
0.734381
0.75244
0
0.398833
0
0
0.762422
0
0.205572
1.03038
0
0.725414
0
0.627127
0.214013
0.86253
0
0.468636
0.44462
0.4485
0.738264
1.04461
0.519605
0.926465
1.30849
0.499225
0
0.749609
0.643137
0
0.651575
0.470384
0.777863
0
0.0692603
0.862625
0.402042
0.384339
0.605832
0.497706
0.502037
1.46018
0
0.613913
0
0.436924
1.11304
0
0.879135
1.45726
0.993334
0.64339
0.480422
0.902812
0
0.98875
1.33515
0
0
0.77883
1.53061
1.46699
0.340043
0.619895
0.424438
0.454541
0.432081
0.494017
0.645114
1.58104
1.02913
0.582313
0.423377
0
0.0837297
0.335832
0
0.654375
0
0.904241
0.64927
0
0.650788
0.486873
0
0.437832
0
0.8961
0
0.917124
0.716919
0.634573
0.2959
0.435354
0
0.572672
0
0.402102
0.650841
0.877304
0.83587
0.538476
0.651039
0.356938
0.186455
0.313741
0
0.945601
1.05949
0.810638
0.702764
0
0.760855
1.22442
0.661598
0.853604
0
0.870322
1.03729
1.06072
0.831979
1.0126
0.852881
0.154401
0
0
0
0.647667
0
2.14501
0.816659
0
0
0
0.839485
0.735586
0
0.566024
0.787499
0.555973
0.522967
0.676042
0.428861
0
0.607695
0.448165
0.669309
0.550313
0.789794
1.29175
0.734402
0
0.56541
0.929435
0.750066
0.418763
0.701277
0.974094
0.655239
0.53722
0.271736
0.983352
1.47055
1.3536
2.34256
0.977049
1.52873
0.471955
0.277814
1.5516
0.64189
0.610043
0
0.679794
0.460072
0.725857
1.87013
0
0.402174
0.333406
0
0.391847
0
0.424165
0
1.13824
0
0.595248
1.73467
0.324055
0
0.395228
1.33459
0.36223
0.532846
0
0
0.418928
0.6548
0.302424
0.573829
0
0.613222
0
0.571583
0.671637
0.889836
0.549519
1.00393
0.935568
0
0.761525
0.416489
0
1.62409
1.68597
0.784806
1.56045
1.16654
0.986368
1.23603
0
0.359909
0.409831
0
0.674374
0.209215
0.892929
0
0
0
0.580466
0.983365
0.42751
0.831041
1.17107
0
0
0.663496
0.472255
0.733528
0.909321
0.437242
0.954162
0.561456
0
0
1.78068
0.0730138
0.663163
1.02283
1.50252
0.527612
0
0.407054
1.28512
0.233998
0.63603
0.448226
0.774826
0.762757
1.25619
0.586239
0.849596
1.07265
0
0.813438
1.19841
0
0.490917
1.19602
1.15677
1.31839
0
0.663888
0.642048
1.47626
1.06961
0
0.480325
0.632212
0
0.498407
0.434563
0.902941
0.517291
1.438
0.630264
0.887062
1.11037
0.25424
0.132018
0.76322
0.355117
1.05184
0.801278
0
0.471417
0.502341
0.284918
0.290486
0.426504
0.445205
0
0.554648
0
0.762962
0.725998
0.78631
0
0.103769
1.17663
1.19217
0.30541
0
0.505923
0.886167
0.294727
0
1.01339
0
0.58427
0
1.25769
0
0.44199
0.27796
0.419235
0.506944
0.790839
0.536773
0.683551
0.810037
0.46365
0
0.322783
0.793089
0.715725
0.723524
0.488076
0.666746
0.506465
0.453105
1.46334
0.575289
0.19377
0.718235
0
1.85531
1.32575
0.880012
0
0.688711
0.342576
0.798055
0.78056
1.02071
0.870645
0.696978
0
0.504161
0.409327
0
0.749635
0.801304
0
0
0
0.774003
0.658367
0.464349
1.29011
0.370238
0.768655
0.520343
0.554694
0
0.418701
0.717675
0.462281
0.466062
1.71723
0.472518
0
0.473729
0.55848
1.4106
0.334305
0.285291
0.633068
1.20573
0.71435
0
0
0
0.801746
0
0.734009
0.534461
0
0.739898
0.746719
0.753793
0
0.325203
0
0.944505
1.79997
0
0
0.329556
0
0
0.744679
0.414405
0
0.68958
0.478789
0.718964
0.431509
0
0.593547
0.281963
0.340051
0.33161
0.403783
0.45018
0.418321
0.534297
0.423791
1.45151
0
0.825913
0.960613
0
0.73291
0
0.987068
0
0
0.520214
0.640742
0.518754
0.971015
0.894275
0.727034
0
1.99011
0
1.00988
1.61325
1.55829
0.633324
0
0
0.586008
0.182098
0.766225
0
0.686616
0
0.598705
0.776571
1.31934
0.816
0.688483
0.848992
1.62318
0.250575
0
0.616552
0.598008
0
0.587204
0
1.56503
0.301899
0.791822
0.893088
0.360603
0.873593
0
1.92992
0.337762
0.645296
0.370552
0.43505
0
1.53983
0.615999
0.292311
2.77259
0.695378
0
0.609748
0
0.853886
0
0
0
1.25545
0.924786
1.1182
0.639592
0.608834
0.738763
0.869745
0.487456
1.14565
2.03466
0.701691
2.48762
0.168644
0.456757
1.1084
0
0.536961
0.464922
1.59088
0.274368
0.988463
1.45276
0.553637
3.01534
0.855336
0.710342
1.50977
0.754157
0
0.654584
0
1.05602
0
0.797464
0.451915
0.399152
1.14197
0
0
0.929668
1.06155
1.59038
1.01646
1.10025
0.958735
0.410438
1.90224
0.542341
1.02752
0.455805
0.687327
0.495059
0.361904
0.684432
0
0.616824
0.484276
0.286983
0.502561
0.478882
0.489188
0.720177
0.321446
1.21284
0
0.752852
0.312704
0.722697
1.1384
0.784265
0.404293
0
0.499164
1.07367
0.621146
0.632944
0.615666
0.388031
0.878373
0.464997
0.47119
1.8967
0
0.612822
0.468188
0.368802
0.829501
0.558979
0
0.645952
0.361401
0.675096
0.743555
0.805107
0
0.753729
0.458962
0.970638
1.23984
0.601532
0
0.484781
1.21239
1.60484
0
1.14802
1.2877
0.561014
0.637074
0.837221
0.812594
0.545691
0
0.838099
0.951828
0.819811
0
0.908183
0.661434
0.861927
0.191252
1.32797
0
0
0.305497
0
0.4924
0
0
0
0.904581
0.624594
0
0
1.1891
0
1.13406
0
0.936231
1.16328
0
2.18593
0.39022
0.620582
0.820663
0.980623
0.940961
0.6174
0.904148
0.292461
0.44878
0.480222
0.372555
1.51465
0.389235
0.364742
0.348096
0
0
0.980312
0.591648
0.564394
0.329417
0.46123
0.855939
0.344159
0.703111
0.46752
0.696884
0.704869
0
0.345806
0
0.446809
0.48901
0
0.662528
0
0
0.546877
0
0.578986
1.14309
1.02371
1.1711
0.61422
0
0.582806
0.636256
0.593549
0
0.792923
0
0
0.821151
0
0.953066
0
0.507979
0
0
0.736202
0.488827
0.296797
0
0.436067
0
1.07387
0.488878
0
0.427644
0
0.471874
0
0.651962
0.37309
0.411248
0.491012
0.477074
0.478934
0.438136
0
0.68264
0.371256
0
0
0.790199
0.443398
0
0.461877
0.505731
0.729635
0.957198
0.0621759
0
0.964463
0
0.130713
0.869449
1.34433
0.984473
0.560079
0.385311
0.496219
1.25398
0.697094
0.602754
0.583223
0.775062
0.431933
0.38702
0
0
0.449435
0.700677
0.823852
0.412811
0.181315
0.64626
1.03036
0.466068
0.414984
0
0
2.42029
0.699852
1.00456
0
0.612867
0.576847
0.551438
0.187637
0.308845
0.577685
0
0.882079
1.56449
0.421013
0
0
0.478793
0.234786
0.47215
0
0.486513
0.643105
0.446872
0
0
0.732372
0.543023
0.355939
0.391034
0
0.450175
0.719655
0.156563
0.808104
0.615637
0.639035
0.610172
0.998077
0.568935
1.14055
0.473933
0
0
0
0
0
0
0
0
0
0
0
0
0
0
0
0
0
0
0
0
0
0
0
0
0
0
0
0
0
0
0
0
0
0
0
0
0
0
0
0
0
0
0
0
0
0
0
0
0
0
0
0
0
0
0
0
0
0
0
0
0
0
0
0
0.163753
0.779505
0.827791
0.440901
0.393617
0
0.389248
0.929496
0.255692
0.352461
0
0.400226
0.481501
0
0.470763
0.92191
0.4171
0.380343
0
0.480673
0.366394
0
0.561352
1.3356
0.36765
0.999823
0.450974
0.473331
0.773949
0
0.632832
0.685343
0.242526
1.00922
0.819251
0.539563
1.48044
0
0.38786
0.784698
0.850073
0.492353
0
0.458408
0.18219
0
0.626721
1.05206
0.300172
0.927139
0
0.190259
0.837181
1.63715
0.250166
0.385763
0.598248
0.271953
1.07407
0.751663
0.328402
0
0.740316
0.947204
1.16267
1.35605
0.688578
0.603212
0.692111
0.930405
0.582881
0.987272
0.52839
0
0.680359
0.69505
1.1865
0.410822
0.956559
0.761259
0.881391
0.440854
0
0.0929096
1.52747
1.27815
0.516913
0
1.20946
0.931391
1.84973
1.175
1.78634
2.3194
0.772049
0
0.501517
0.241212
0.527773
0.538257
0.860401
0
0.454848
0
0.478477
0
0.56825
0.213512
0.845927
0.89215
0.699221
0.530505
0.574629
0.753471
0.214743
0.520801
0.48717
0.645597
0.111328
0.140395
0
0.311706
0.610909
0.416039
0.515065
1.3258
0
1.33409
0.612877
0.704081
0.604432
0
0.57716
0
0
0.467691
0
3.2247
1.05421
0
0.511838
0
0.835372
1.04381
0.980105
0.953455
0
0.453412
0.214365
0.397217
0.182697
0.54653
0
0.437442
1.16873
1.27962
0.751152
0.961263
0.270212
0
0.207871
0
0.6465
0.824475
0.806862
0
0
0.114845
0.842005
0
1.38855
0.383987
1.43035
0
0
0.716014
0.6629
0
0.635762
0.7469
0.51842
0.197127
0.466763
0
0.486536
1.67143
0
0.4481
0.741099
0.735874
1.38722
0.596338
0.247073
0
0
0
0.843855
0.620232
0.705651
0.47692
0.63561
0.437129
0.618326
1.90887
0.722225
0.487676
0.249225
0.823364
0.431815
0.891353
0
1.83911
0.577368
0
0
1.45258
1.54468
0
0
0.581902
1.42019
0.636443
0.614687
0
0.859825
1.11055
0.647485
0.475526
0.351947
0.801989
0.948314
1.4757
0.880367
0.763728
0.593265
0
0.799933
1.07022
0.737151
1.07795
0.947398
0.285794
0
1.15753
0.907878
0
0
0.647656
0
0.283075
0.538309
0.623561
0.436852
0.666035
0.515268
0.428118
0
0.473458
0.594765
0
0.599219
0
1.10788
1.68921
1.63849
0
0.407987
0
0.815368
0.895421
0.650845
0.423355
0.237223
0
0.461703
0.461196
0
0.377091
0
1.23807
0.27536
0.92454
0
0.434613
0.25208
0.94811
0
0.227566
0.839081
1.24666
0.24005
0.752724
1.10362
0
0
0.804233
0.834213
2.04657
0.432691
0.47831
0.894311
0.297829
0.318727
0.690235
0
0.901347
0.537461
0.677477
0
2.62702
0.189529
0.607514
0.698045
0.835762
0
0.676661
0
2.35404
0.584632
0.535463
0.268612
0.606854
0.604479
0.746632
0.74052
0.925344
0.342552
0.74037
1.28325
0.79091
0.833332
0.821616
0.755675
0.483386
0
0.596699
0
0.766786
0.843362
0
0.574865
0
0.120276
0.678257
0.742415
0.690675
0.331272
0
0.513676
0.632471
1.05046
1.23495
0.616637
0
0.524316
0.632693
0.813134
0.416298
0.666712
0
0
0.476059
2.13937
0.578653
0
0.421639
0.839798
0.596566
1.12627
0.802704
0.522706
0.832484
0.413931
0
0.690942
0.672455
0.502556
0
0
0
1.44402
0
0.468207
0
0
0.426062
0
0.631085
0.80282
0.461522
0.6275
0.731737
0.934409
0.13521
0.201959
0.937151
1.09336
0.736353
0.844849
0.753511
0.781383
0
2.04436
0
0
0.900348
1.41897
0.506544
0
0.747534
1.40905
1.27621
1.37706
0.687633
1.25175
0.645446
0.335012
0
0
0.218177
0
0.599853
0
0.514092
0.719171
0
0
1.25153
0.728175
0.749094
0.867175
0
0
1.25435
0.480415
0.374323
0
0.365587
1.29054
0.665636
1.12092
1.03839
0
0
0.551132
0.30709
1.11322
0.212848
0.894299
0.425602
0
0.493709
0
0.329895
0.398971
0
0.33784
0.367712
0
0.490941
0
0.527497
0
0.472794
1.78201
0.749178
1.05218
0.280211
0.960757
1.0456
0.42808
1.50891
0.525112
0
0.654978
0
0.925476
0.531366
0.401747
1.80161
1.7498
0
0.491834
0
0
0.856048
0.933569
0.579298
0.820903
0
0.367504
1.02199
0.508988
0.762826
0.388318
0.407856
0
0.761584
0.568898
0.708527
1.3545
0.335867
0.819138
0.571056
0
1.01209
0.463822
0.558264
0.406779
0
1.04147
0.665314
0
0
0.401357
0.469925
0.830586
0.777262
0
0.635192
0.528304
0.681017
0.559059
1.24963
0.76512
0.718616
1.00973
0.619355
0
1.1201
0
0.60868
0.87619
0.439813
0
0.738987
0
0
0
0.263617
0
0.630096
0.639646
0.77028
1.03367
0
0
0
0.845245
0
1.5805
0.4836
0.851437
0.833829
1.1423
0
0
0.633295
0.586793
1.76968
0.787252
0
0
0.474001
0.544323
0
0.715529
0.946727
0.101421
0.631068
0.543627
0.596686
0.446973
0.908553
1.02523
1.0056
0
0.840472
1.42054
1.01361
0
0.710183
0.936212
0
0.65771
0
0.360259
0
0.872152
0
0.660004
0.586669
1.52157
0.513674
0.51704
0.779959
0.701033
1.83543
1.06223
1.38115
0.450808
1.11062
0.742415
1.0514
0.851268
0.850768
0
0
0.46236
1.1295
0.99516
0
1.71374
0
0.256202
0
0.809821
0
0.680515
0
0.758883
0
0.591139
0.393072
0.593053
0.553397
0
0.728555
0.143293
0.61473
0.481235
0
0
0.651987
0.414042
1.63049
0.698922
0.449877
0
0.941672
0.16986
0.708719
0.777601
0.947117
0
0
0
0
0.997302
0.838267
0.813282
0.342905
0.912678
1.16959
1.09064
0.901392
0
1.01392
0.877535
0.776887
0.973577
0.554788
1.1463
0.960839
0
0.569194
0.815509
0.49149
0.504371
1.56039
0.518881
0.483161
1.15165
0.649711
0.424866
0
0
0.417625
0.375408
0
1.22452
1.26291
0.669437
0.943819
0.548744
0.71039
0.723741
0.412309
0.509837
0
0
0
0.600599
0.70856
0
0
0.908567
0.266684
0.497433
0.248898
0
1.28098
0.838768
1.66627
0
1.10119
0.275687
0.443393
0
0.742844
0.520762
0.487628
0.661732
0.942662
0
0.374004
0.400611
0.500699
0.908392
0.394525
0.174635
0
0.775816
0.691526
0.447788
0.640868
0.911009
0
0.472455
0.306969
0.509785
0.379175
0
0.699433
0.785164
0
0
0.463032
0.452095
0
0.541797
0.308673
0
0.93081
2.57248
0.983907
1.3748
0.754065
0.56491
0.391605
0.413901
0.723488
0
0.397131
0.182378
0
0.576545
0
0.438167
0
0.751806
1.0838
0.2515
0
0
1.31004
0
0.552803
0
1.28785
1.19985
1.3688
0.864172
0.836242
1.07506
0
0.331521
1.31667
0.801074
0
0.46288
0
0.595091
0.786392
0.688743
1.17268
0.74797
0.676084
0
0.573692
0
0.466936
0.635629
0.5982
0.928973
0.768328
0.907999
0
0.788655
0.604182
0.485732
0.517627
0.592605
0.502318
0.886062
0.856011
0
0.522669
0.448532
0
0
0.351549
0
0.635511
0.587125
0.508969
1.66526
0
0
0.703784
0.78772
0.244654
1.34781
0.412067
0.491623
0.190898
0.877853
0
0.546682
0.839334
0.852471
0
0.613811
0.128696
0.314254
0.643185
0
0.510559
0.267789
0.264311
0.720323
0
0
0
0.338942
0
0.672836
0.362793
0
0.841073
0.559973
0.859109
0
1.07215
0
0.804883
1.72865
0.442846
0.719754
0
0.473889
0
1.0735
0.310211
0.369998
0.827809
0.463452
0.277296
0.747642
0
0.476539
0.67085
0
0.249873
0.77514
0
0.45951
0.83345
0.858108
0.881175
0
0.576441
1.41736
0.654328
0
0.905596
0
0.585521
1.09922
0.876559
0.813796
0.474709
0
0
0
0.581774
0.392753
0.720707
0.465054
0.898
0.712927
0.385639
0.472822
0.416609
0.451951
0.299202
0.454407
0.822772
0.477354
0.604879
1.09341
0.4803
0.508162
1.38588
1.78013
0
0
0.603006
0
0.489522
0
0.408228
0.806697
0.682765
0.860836
0.912042
0
0
0.68236
0.436157
0.315678
0.477988
0.932783
0
0.586925
0.24605
0.592477
0.282088
0.372062
0.555636
0
0.564986
0.59126
0.684628
0.659593
0.434631
0.39913
0.869829
0.92098
0.251244
0.71994
0.509244
0.923356
0.694241
0.390413
0.503325
0
0.591013
0.476533
0.95474
0
0
0
0
0
0
0
0
0
0
0
0
0
0
0
0
0
0
0
0
0
0
0
0
0
0
0
0
0
0
0
0
0
0
0
0
0
0
0
0
0
0
0
0
0
0
0
0
0
0
0
0
0
0
0
0
0
0
0
0
0
0
0
0
0.20901
0.56065
0
0.459795
0.600119
0.730764
0.330778
1.0725
0.35034
0.455086
0
0.408329
0.718532
1.11683
0.615427
0.917221
0.252553
0.66648
0.547939
0.445013
0.626407
0.65861
0.488289
1.26667
0.396103
0.428536
0.312436
0.709717
0.393153
0.632181
0.294274
1.23769
1.25954
0.412743
0
0.871394
0.596439
0
0.812733
1.53816
0.592329
1.0237
0
0.185042
1.38222
0
0.3074
0.449916
0
0.369692
0.433122
1.11309
0.6559
0.795107
1.50743
0.324963
0.117449
0.917432
0
0.401886
0.260232
0
0.278641
0.861427
0.428024
0.630798
1.97955
1.6676
0.754166
0
0.760791
0
0
0.602192
0.656445
0.514698
0.57328
0
0.43209
0.963808
1.01148
1.05093
0.348045
0.616751
0
1.64919
0.571218
0.584666
0.503624
1.2323
0
0.528705
0
2.362
0.659876
1.00455
0.877858
0.920722
0.50435
0
0.60295
0
0.540552
0.707544
0.935157
0.896071
1.64341
0.751352
0.632958
0
0.787302
0.619486
0.315096
0.662049
0
0.835243
0.686712
0.679292
0
0.466813
0
1.41794
0