<?xml version="1.0"?>
<VTKFile type="RectilinearGrid">
<RectilinearGrid WholeExtent="0 32 0 32 0 32" Origin="0 0 0" Spacing="1 1 1">
<Piece Extent="0 32 0 32 0 32">
<PointData>
</PointData>
<Coordinates>
<DataArray type="Float32" format="ascii">
0 0.524874 1.04975 1.57462 2.0995 2.62437 3.14924 3.67412 4.19899 4.72386 5.24874 5.77361 6.29849 6.82336 7.34823 7.87311 8.39798 8.92285 9.44773 9.9726 10.4975 11.0224 11.5472 12.0721 12.597 13.1218 13.6467 14.1716 14.6965 15.2213 15.7462 16.2711 16.796 
</DataArray>
<DataArray type="Float32" format="ascii">
-5.03879 -3.62163 -2.20447 -0.787311 0.629849 2.04701 3.46417 4.88133 6.29849 7.71565 9.1328 10.55 11.9671 13.3843 14.8014 16.2186 17.6358 19.0529 20.4701 21.8872 23.3044 24.7216 26.1387 27.5559 28.973 30.3902 31.8074 33.2245 34.6417 36.0588 37.476 38.8931 40.3103 
</DataArray>
<DataArray type="Float32" format="ascii">
0 0.524874 1.04975 1.57462 2.0995 2.62437 3.14924 3.67412 4.19899 4.72386 5.24874 5.77361 6.29849 6.82336 7.34823 7.87311 8.39798 8.92285 9.44773 9.9726 10.4975 11.0224 11.5472 12.0721 12.597 13.1218 13.6467 14.1716 14.6965 15.2213 15.7462 16.2711 16.796 
</DataArray>
</Coordinates>
<CellData>
<DataArray type="Float32" Name="Scalar" format="ascii">
0
0
0
0
0
0
0
0
0
0
0
0
0
0
0
0
0
0
0
0
0
0
0
0
0
0
0
0
0
0
0
0
0
0
0
0
0
0
0
0
0
0
0
0
0
0
0
0
0
0
0
0
0
0
0
0
0
0
0
0
0
0
0
0
0.243599
0.26931
1.77335
0.661513
0.226132
0
0.27434
1.0727
0.0381515
0.320028
0
0.150946
0.417383
0
0.388983
0.835864
0.0844476
0.392606
0
0.413986
0.238286
0
0.290878
1.38677
0.211676
0.370791
0
0.347238
0.463734
0.744624
0.201375
1.25337
0.0901124
0.832335
0.789023
0.312122
1.19645
0
0.196966
1.42421
0.86004
0.207263
0
0.467659
0.137705
0
1.15451
1.47002
0.214898
0
0
0.112805
1.31966
0.560714
0.373072
1.1554
1.05135
0.509244
0
0
0.328551
0.451014
0.821843
0.593519
0
0.408728
0.471229
0.926558
0.459664
0
0.514778
0.795227
0.588883
0
0.353216
0.863134
0.389442
0.67898
2.1555
1.38
0.438567
0.781104
0.532498
1.02333
0.417337
0.438031
0.816844
1.675
1.06052
0.467957
0.434519
0.459082
1.62255
0
0.616698
1.28091
0.511886
0.912496
0.393105
0.735854
1.34794
0.223392
1.5189
0.655648
0
0.29274
0.564684
0
0.619282
0
0.11503
0.448835
0.44797
0.481488
1.6455
0.642176
0.609301
0.490567
0
0.660194
0.524188
0.58753
1.17061
1.12
0.954667
1.10882
0
1.67804
0.523879
0.426345
0.428867
2.10695
1.27218
0.368838
0
0.633719
0.710185
1.30372
0.593647
0.819137
0.801304
1.61669
0
1.59263
0.788445
0
0.055538
0
0.546109
2.09131
0.711395
0.385909
1.03961
0.700029
0.690372
0
0
0.643996
0.622395
0
0.67472
1.05308
0.390933
1.70897
0.839049
1.46881
0.564116
0.932691
0.576426
0.702877
0.54737
1.04485
0
0.942292
1.39888
0.644818
0.917854
0.545919
0.839198
0.640861
0.569932
0.858186
1.99892
1.26529
1.27513
0.161169
1.10036
1.63365
0.63538
0.931587
0.984522
0
1.22642
0
0.401541
0
0.452127
0.82798
1.38937
0
0.963338
0.364794
0.697811
0.51408
0.314228
0.625335
0
1.3743
0.716127
0.975022
0
0.428012
0.957225
0.729347
0.519961
0.546379
1.17665
0.656109
0.324174
0
0.36823
0.142392
0.60842
0
1.2576
0.776762
0.589362
0.714295
1.31331
0.487936
0
0.930232
0
0.460156
0.558761
0.556395
0.556319
0
0.60687
1.20739
0.909886
0
0.595337
2.07312
0.858678
0.526329
0.948854
0.558204
0.838263
0.287247
0
0.899702
0.49029
0.582793
0.396788
0.640489
0.560566
1.03225
1.07708
0
0.273857
0
0.975674
0.574051
0.4758
0.367623
0.463255
0
0
0.760726
0
2.54511
0.7016
0.379459
0.676112
0
0.299563
1.06153
0.671184
0
0.390807
0.766968
0.508935
0.648054
0.599587
0.638241
0.912043
1.19177
0
0.946948
0
0.460037
0
0.789151
0
0.92124
0.311611
0.4465
0
0.843627
0
0
1.66921
0.499512
0.619053
0
0.998617
0.630128
0
1.40806
0
0.702284
1.07253
0.387001
0
0.504566
0
0.437662
0
0.0481404
0.70297
0
0
0.452626
0.298163
0
0.158413
0
0.574459
0.778245
0
0.943767
0
0
1.22491
0.840957
0.252739
1.32809
0.833334
0.685991
0.489268
0
1.09472
0.930588
1.66759
0
1.42417
0.898107
0.773969
0.45473
0.920601
1.18465
0.519968
0.293529
0.390778
1.2008
1.02791
0.468108
0.57095
1.63929
0.132249
0.51438
1.3005
1.02288
0
0.929564
1.00162
0
0.692053
0.637023
0.832018
1.4665
0.340435
0.637629
0.866344
1.07479
0.582825
0.323516
1.12652
0
0.510664
0
0.538133
0.3745
0.852395
0
0.59334
0.471221
0
0.487694
0.516212
0
0.690656
0.447081
0.542861
0.51131
0.681711
0.4411
0.463241
0.383121
0
0
0.641101
0.563815
0
0.475487
0
0.519983
0.728897
0.947983
0.610855
0.600902
0.417883
0
0.863794
1.47044
1.45107
0.620992
0
0.980542
0.382297
0.591144
1.25946
1.0145
0.906994
0.412596
0.341435
1.86697
0
0.52811
0.513959
0
0.339124
0.185571
0.369796
0.459921
0.854648
0.956341
0.594029
0
0.339325
0.633281
0
0
0.588582
1.08248
2.19803
0.726515
0
1.93146
1.35447
0
0
0.332623
0.472906
0.413678
0
0.3929
0.160135
0.352675
0
0.979476
0.670077
0
0
1.20362
0.209177
0.264473
0.510383
0.653511
0.600075
0.852368
0.144816
0.561992
0
0.596558
0.968533
0.631109
0
0
0.513067
0.744952
0
1.20038
0.597376
0
0.985721
0
1.04073
1.4001
0.317789
1.17294
0.33208
0.334145
0
0.932691
0.477453
1.66734
1.23727
1.33179
0
0.513989
0
0.725577
0.302432
0.742475
0
0.627752
0
0.878878
0.556919
0.390404
0.389804
1.13071
0.578278
0.837678
0
0.565635
0.84517
0.455339
0.944126
0.844706
0
0
0.521111
0
1.7849
1.10382
0.527623
0.391016
0
0.526972
0.827736
1.74983
0.717817
0.9534
0.580947
0
0.223215
0.385302
0
1.20571
0.6729
0.849478
0.468985
0
1.14876
0.655126
0.449751
0.945645
0.366611
0
0.641838
0.332338
0.222318
1.27998
1.25738
0.55244
0.401147
0
0.266106
0.297308
0.418454
0
0
0.776919
0.518642
0.196639
0.48168
0.76833
0.557898
0
0
0.113005
0
0.760586
0.391791
0.682972
0.765661
0
0.882843
0
0
0.50746
0.243332
0.640174
0.768298
0
0.438273
0.732158
0.331229
1.27085
0.453165
0.384732
0.411272
0.507847
0.261589
0.504942
1.68541
0.517918
0.380622
0
0.980008
0.582457
0.446429
0.504296
0.882028
1.04652
0.591397
0
0.579222
0
0.460238
0
0.568497
0.433733
0.773069
1.01417
0.638999
0.608319
0.732108
0.527369
0.532371
0.867605
0
0.288398
0.725408
0.353196
0
0.564029
0.500451
0
0.388104
1.09471
1.1745
0
0
0
0.537118
0.679915
0.636842
0.33312
0.285515
0
0.4039
0.468503
0.705016
0
0
0.294811
0.576417
0.557062
0.185097
0.498858
0.504846
0.343361
0
0.815335
0
0.989618
0.762234
0
1.21323
0.983587
0.678176
0.670266
1.10395
0
0.490965
0.847104
0.579105
1.00168
0.557753
0.539368
0
0.300286
0.585443
0.511353
0.550392
0.466786
0
0
0.697937
0
0
0.316991
0.399758
0.707798
0.710384
0
0.39169
0
1.00383
0.660348
0.454422
2.43451
0.748441
0.456756
0
1.19957
0.499046
0.774458
1.14765
0.701901
0.801224
0.295235
0
0.587219
0.497794
0.312654
0
0
0.435691
1.00492
0.652372
0
0.66476
1.90374
0.350173
0
0.681049
0.324031
0.688315
0.237368
0.87136
0
0.853754
1.74321
0
0
0.750414
0.553591
0.547129
0.560702
0
0
0.644649
0.329842
0.571975
0.227612
0.438506
0
1.52728
0
0.460234
0
0
0
0
0.57493
0.339454
0
0.515552
0.426563
0.812671
0.93021
0
0.294227
0.308724
0.533394
0
0
0.556305
0.540063
0.833975
1.25532
0.20238
0
0.35058
0.59115
0.728732
0.561373
0.319898
0
0.63886
0
0.509105
0
0.370217
0.384121
0
0.833018
0.226986
0.615858
2.79293
0.85881
0.531776
0.369579
0.248788
2.12308
0.727922
0.396933
0.803595
0.576009
0.910711
0.215649
0.542206
0.542951
0.559111
0
0.613958
0
0
0.872597
0.851669
0
0.446222
0.732809
0.452721
1.14916
0.600558
0.809563
0.227674
0
0.426697
0.508121
0.651257
0
0.668147
0.727928
0.8641
0.623974
0
0.353844
1.71338
0.980966
0
0
0.84694
0.964981
0
0.613753
0.816263
0
0.607183
0.723893
0.274181
0.414813
0.899224
0.471996
0.703111
0.607645
0
0.247109
0
0.403534
0.164889
0.344736
0
0.552945
0.165874
0.753712
0.621472
0.47212
0.508786
0.421782
0.429318
0
1.08121
0.236894
0.499613
0.547797
0.29278
0
2.20833
0.63795
0.521739
0.702823
0.750769
0.379055
0
0.727132
1.04568
3.41238
0.89274
0
0.786667
0.500083
0.436868
1.06305
0.905791
0.315497
0.630985
0.723364
0
0.896482
0.768776
0.349366
0.644182
0.195492
0.618041
0.816019
0
1.00574
1.30692
0.533535
0.865508
0
0
0
0.528195
0
0.601092
0.195957
0.403112
0
0.579693
0.4382
0.529143
0.791612
0.260535
0.317768
0
0.504077
0.494834
0.942312
0.295206
0
0.425663
0
0.57956
0
0.787361
0
0.432624
0.500192
0
0.213399
0.415823
0.187849
0.728187
0.47384
0
0.290437
0
0.435852
0
0.486389
0
0
0.648334
0
0.230453
0.167587
0.929838
1.1234
1.09447
1.26109
0.205143
0.539826
0.479611
0
0.620046
0.335767
0.300098
0.515499
0.847267
0
0.39567
1.03219
0
0
0
0
0
0
0
0
0
0
0
0
0
0
0
0
0
0
0
0
0
0
0
0
0
0
0
0
0
0
0
0
0
0
0
0
0
0
0
0
0
0
0
0
0
0
0
0
0
0
0
0
0
0
0
0
0
0
0
0
0
0
0
0
0.259085
0.473679
0
0.662349
0.634858
1.91752
0.257752
1.57764
0.322249
0.752443
0
0.480318
0.43293
0
0.639325
0.901527
0.231132
0.442212
0.386597
0.300809
0.618633
0
0.832128
0.936993
0.427707
0.63113
0
0.498279
0.369817
0.314187
0.476892
1.034
1.01429
0.895683
0
0.985139
0.321523
0
0.44555
0.823824
0.26799
1.07509
0
0.194574
1.02614
0
0.0806793
0.377053
0.474052
0.755612
0
0.513999
1.07965
0
1.29082
1.3702
0.29676
0.703968
0
0.250859
0.912155
0
0.30949
0
1.02648
1.48505
0.697999
0
1.5
1.00909
0.776513
1.40204
0.414579
0.632788
0.930573
0.794307
0.67747
1.0768
0
0.496755
0.469121
0.599181
1.02623
1.22988
0.586179
0.395395
0.790344
0.490831
0.620798
0.809306
1.18712
0
1.23439
1.01465
0
0.609609
0.625075
0.590557
0.658939
0.538895
0.942083
0.630544
0.494499
0.136702
0.622452
0
0.340648
0.877765
0.610195
0.894163
0
0.155332
0.474962
0
0.800997
0
0
0.904136
0.3878
0.633585
0.386915
0.509909
0.952802
0.649598
0.191786
0.438418
1.48575
1.55713
0
0.853314
0.808711
0
0.333158
0
0.605717
0
0.480503
0
0
0.406252
0.949137
0
0.27789
0.541566
0.691383
0.555613
0.796234
0
0.330462
0
1.63946
1.26102
0.610382
1.0871
0.558843
0.949376
0
0.457159
1.82332
1.42348
0.303429
0.425421
0
0.103013
0.664266
0.391742
0.975714
0.419395
0.157599
0
0.27776
0.342987
1.12363
0.361917
0.715188
1.37287
0.186651
0.326717
0.282043
0.38194
0
0.552042
0.58103
0.476061
0
0.433771
0.795693
0
0
0
0
0.541443
0.668919
0
0.531288
0
0.632799
0.563995
0.922233
0.714561
0.48558
0.798697
0
0.458593
0.43613
0.712936
0.233999
1.09225
1.55414
0.555669
1.78996
0
0.546107
0.803661
0.418768
0.880981
1.5498
0.614143
1.15996
0.566056
0.313456
0.635082
0
0.450563
0.560141
0.594791
0.699414
0
1.32965
1.27799
0.777954
0.609632
0.961542
0.685472
0.926379
0.352329
0.715739
0
0.823942
0
2.24245
3.13339
0.854992
0.805701
0.883742
0.728108
0.445738
0.749738
0
0.700607
0.0605951
0.22871
0.612184
0.43097
0.772224
0.501043
0
0.111368
0.530827
0
0.395358
0.974761
0.761496
0
0
0.194431
0.633582
1.3714
0.584818
0.53155
0.76578
0.460814
0.627972
1.01521
0
0.377895
0
0
0
0.496991
0
0.600792
0.454317
0
0.485539
0
0.801869
0
0.342906
0.79153
1.27614
1.54682
0.507394
0.68995
0.623036
0.453813
0.257965
0
0.624095
1.14041
0.542216
0.687513
1.58215
0
0.568962
0.588762
0.768289
0.81771
1.19663
0.838944
0
0.59479
0.604332
0.889757
0.687465
0.606255
0
0
0.322868
0.538022
0.627617
0.17887
0.759188
0.562433
0.620365
0.46537
0
0.731176
0
0
0.401098
0
0.447018
0
0.412437
0.548077
0
0
0
1.09616
1.04797
1.0952
0.764486
0
0
0.733834
0.649721
0.732381
0
1.40135
0.722016
1.06479
0
0
0.237453
0
0
0
0.998645
0.442757
0.459202
0.328614
0.483364
1.32175
0.771471
1.69086
1.3533
0.965268
0.981761
0
0
0.645779
0.588614
0.820522
0
0
1.46919
0.949084
0
0.53605
0.558955
0.517024
0
0
1.82954
0
0.416009
0
0.514477
0.667407
0
0.990743
0.762679
0
0
0.565535
0.285982
0
0.581046
0.595358
0.557153
1.35416
0.599221
0.282406
0.41973
0.856032
0
0.641216
0
0.66802
0
0.609801
0.568371
1.25716
0.962304
0
1.17387
0
0.558
0.409899
0.529289
0.332032
1.21325
1.05758
1.9338
0
0.772093
1.40145
0
0
0.873239
0.325122
1.37173
0
0.624813
0.697126
1.05838
0.509718
1.35898
0
0.676015
0
0.778388
0.394985
0.390635
0
0.28016
0.281517
0.623777
0.591905
0.8284
0.802337
1.76275
0.368239
0
0.708524
1.2472
0.937244
0.716987
0.684202
0.173775
0.690808
0.396141
1.08528
0
0.523622
0.518924
0.287439
0
0
0
0.816665
0.495785
0.579294
0
0.329388
0
0.466159
0.514276
0.669253
0.324329
0
0.559331
0
0.672009
0.679463
0.95517
1.40623
0.512011
0.701414
0.422295
0.31298
0.249976
0
1.05678
1.18387
1.00628
1.33797
1.73713
0.835183
0
0.450183
0.1656
0.741807
0.940999
0
1.32573
0.515889
0.707739
0.970145
0
0
1.40638
0.753862
0.306876
0.579699
0.690999
0
1.04657
0.676871
0.649368
0.368312
0.418737
0.546127
0.807152
0.677081
1.0454
0.101078
0.504195
0
0.587981
0.482029
0
0.630985
0.541191
0.779068
0.566239
0.533538
0.683356
0.7753
0.531009
0.549193
0.830943
0.914772
0.761606
0.519449
0
1.25474
0
0
0.524482
0.4078
0
0.325026
0
0.459598
0
1.28051
0.934441
0.447628
0.685886
0.728815
0
0.486903
0.929841
0.547585
0
1.21289
0.461113
0.571342
0.486929
1.48083
0.503086
0.925539
0.339261
1.01544
0.766286
0
0
0.356661
0.60581
0
0.37416
1.07949
0.484201
0
0.868629
0.841523
0
1.78221
1.04812
0.25393
0.349093
0.281661
0.540319
0.278861
0
0
0.741133
0.286439
0
0.401999
0.352919
0.591015
0.206863
0.714187
0
0.485993
0.968065
0
0.57653
0
0.468518
0.494905
0.533455
0
0.786997
0.439194
0.748915
1.26262
0.654829
0
0
0.377129
0.550963
0
0.773512
0.415113
0.495759
0.412692
0
0.808527
0
1.21876
0.481923
0.318734
0.769871
0.423529
0
0.50214
0.663947
1.07969
0
0.309968
0.246138
1.44774
0.734455
0
0.40529
0.493929
0
0
0
0.929467
0
0.545575
0
0.693176
0.441831
0.501438
0
0.512649
0
0.616673
0.682835
0.881525
0
0.279917
1.00859
0
0.592521
0
0.763888
0.755042
0.355573
0.201009
0.507494
0.801285
0.344631
0
0.350632
0
0.579897
0.953965
1.24174
0.449432
0.74131
0.44267
0
0
0.378645
0.337829
0
0.455016
0.263706
0.362576
0.798452
0
0.703458
0
0.605843
0.437794
1.07848
0.821633
0.647905
1.07614
0.512137
0.601589
0.801047
0.497234
0.758063
1.45051
1.24125
1.01728
0.619632
0
0.635132
0.519098
0.617002
0.380955
0.755754
0.739414
0.258147
0.351303
0.754945
0.341311
0.739058
0.646955
0.594566
0.625206
0
0.565618
0.560644
0
0.947927
0.592269
0.392504
0
0.454046
0.575084
0
0.526571
0
0.788154
0
0.387586
0
0.749144
0
1.07172
0.544461
0.75853
0.861777
0
0.545783
0.550209
0
0.26044
0.823154
0.882234
0.742652
0.437645
0
0
0.54766
0.855615
0
1.10797
0
0.888448
0.917492
0
0.530867
1.13364
0.426835
0
0
0
0.31723
0.901579
0.653648
1.5546
0
0.92542
0
0
0
1.42386
1.00002
0.295307
0.37028
1.21121
0.76325
0.298961
0.715982
0
0.525138
1.2615
0.916082
0.634497
0.624929
1.223
0.812003
0.617548
0.865982
0.388222
0.425461
0.519384
0
0.541741
0.462667
0
0.689692
0.854741
0.25957
0.627548
0.549119
0.786398
0
0
0.506979
1.09824
0.539377
0.24235
0.713734
0.683787
0.839457
0.436934
0.899834
0.518704
0.595373
0.653795
0.612364
0.858548
0
1.11333
0
0
0.265052
0.340007
0.969534
0.870306
0.769425
0.713621
0.528196
1.49709
0
0.618459
0
0.83382
0.229547
0.526376
0
0.57092
0
0
0.473939
0
0.429939
0
0.387849
0
0.452498
0.872429
0.598951
0.617844
0.954461
0.522639
0.65553
0.341621
0.427382
0.656761
0.818922
0.499952
0
0.766352
0
0.720754
0
0.729105
0.825177
0
0
0.220306
0.529648
0
0.614252
0.365537
0.73385
0.594063
0.367982
0.907917
0.526856
0.511192
1.12342
1.09831
1.12074
1.27114
0.560116
0
0.445221
0.467925
0.227502
0
0.39534
0
0.814573
0.307632
0
0
0.175975
0
0.414862
0
0.378248
0
0.396482
0
0.536419
0
0
0.823397
0.446944
0.29236
0.620585
0.674453
0.858215
0
0
0.364875
0.189143
0.52558
1.60537
0.668613
1.31527
1.04463
0.586861
0.827618
0.491317
0.35127
0.690786
0
0.676609
0.439212
0.372736
0.373168
0.465151
0
0.505152
0.660218
0.722004
0.526399
0.349283
0
0.407953
0.59448
0.582051
0.488544
0.391489
0
0
0
0
0
0
0
0
0
0
0
0
0
0
0
0
0
0
0
0
0
0
0
0
0
0
0
0
0
0
0
0
0
0
0
0
0
0
0
0
0
0
0
0
0
0
0
0
0
0
0
0
0
0
0
0
0
0
0
0
0
0
0
0
0
0
0.422063
0
0
0.819749
0
0
0
0
0
0
0
0.573036
0
1.32768
1.69202
1.7929
0.845536
0
1.41239
0.428765
0
0
0
0
1.82553
0
1.21214
2.7732
0
0
0
0
0
0
2.31278
0
0
0.669995
0
0
0
0
0
0
0
0
0
0
2.02301
0
0.421003
0
0
0
0
0
2.14751
0
0.651812
0
0
0
0
0
0
0.336244
0
0.558419
0
0
1.13925
0
1.00345
1.03625
1.04598
0.554214
0
1.09713
0
0
0
0.426206
0
0.593535
0.301485
0.780957
0
0
0.579679
1.21721
3.16548
0
0
0
0.582474
0.536853
0
0.752442
0
1.13587
0.989214
0
0
0.667792
0
1.5929
0.891291
0.913389
0.7053
0.518916
0
1.12093
0.178723
0.767951
0.699826
0.611805
0
0.874473
0.30335
0
0.325729
0.188751
0.480943
0.748604
0
0.472308
1.30294
0.738584
0.749267
0.454358
0
1.02998
0
0.776378
0
0.622984
0
0.947902
0
0.372128
0
0.366401
1.2716
0.895762
0.336561
0.28531
0
0.805231
0.844843
0.575677
0.253704
0.575598
0.56122
1.00384
0.54706
0.735088
0.656123
0.73496
0
1.99105
1.10794
0.359818
0.513526
0
0.517826
0
1.31558
0.627998
0.371651
2.21678
1.38093
1.07825
0.760843
0.379723
0.896931
0
0.246234
0.326769
0.471121
0
0.395223
0
0.561581
0.925194
0.952905
0.840078
0.802588
0.960015
0.527857
0
0
2.24158
0.327345
0
0.632864
0.168545
0.445112
1.11475
0.427408
0.169561
0.163063
0
1.00625
0.782714
0
0
0.242927
0.748699
0.433389
0.838767
0.947348
0.580703
1.2305
0.859764
0.258248
0
0.691707
0
0
0.93156
1.3741
0.72671
0.743296
0.462717
0.455025
0.25203
0
0.992964
0
0.830585
1.29229
0.497085
0.67969
0.42787
0
0.695386
1.41105
0
0.379309
0.468514
0
0.773909
0.198656
0.28536
0.563089
0
0.514045
0.255294
0.553988
0
0
0.584992
0
0.88882
1.26442
0.308487
0.531927
0
0.366547
0
0.688349
0
0.494251
0
0.7209
0
0.607402
0.831498
0
0
0.524747
0.105023
1.09707
0
0.722302
0.770919
0.52774
0
0.88578
0
0.549644
0
1.05293
0.564141
0
0.658823
0.541173
0
0
1.02256
0.894827
1.64485
0.495129
0.893711
0.764411
0.307679
0.240927
0.392703
0
0.857054
0.814405
0.345748
0.604561
0.339438
0.562388
0.126496
0.558749
0.599982
0
0.397233
0
0.481034
0
0
0.504417
0.231737
0.663561
0
0
1.00545
0
0
0.323612
0.441027
0
0
0.721699
0
0.431498
0.322977
0
0.619778
1.17544
0.694765
0.52157
0
0.817281
0.527806
0.961831
0.598148
0.433469
0
0.350759
0.606135
1.46266
1.25612
0
0.773669
1.56174
1.89094
1.01478
0.595782
0.504804
0.489347
0
0.605561
0.458037
0.5081
0.714936
0.701125
0
0.627453
2.20356
0.734687
0.618376
1.32009
0
0
0.447777
1.19128
0.41631
0.301781
0.316417
0.545537
0.390327
2.48735
0.777187
0.627121
0.634264
0.992001
0
0.718853
0.507482
0.777613
0.495743
0
1.06295
0.536156
0.140965
0.298189
0.845508
1.12424
0.527846
0.869965
0.666903
0
0.534841
0.676327
3.2848
2.87965
0
0
0
0.412901
0
0.305416
0.490885
0.46443
0.879692
0.760427
0.843327
0.693472
0.65535
0.679095
0.956594
1.51516
1.04837
0.835088
0.199454
0.703531
0
0.329489
0
0.49079
0.507692
0.309555
0.119474
0.421431
0.569345
0.314231
0
0.563412
0.270053
0.60773
0.70268
0.622574
0.747199
0.645417
0.597763
0.23182
0.590584
0
0
0.681321
0
0.489122
0
0.404435
0
0
0
1.22359
0.96578
0.738238
0.338196
0.826058
0.588779
0.852212
1.02653
0.60991
0.219893
0.237395
0
0.486574
0.747867
0.671871
0.689997
0
0.29742
0.813897
0
0.562474
0
0.369077
0.406722
0.579102
0.646742
0
0.3748
0.468585
0.453208
0.265193
0.757086
0.838219
1.0726
0.687172
1.24534
0.711848
0.877262
0
0
0.593927
0
0.373194
0.695531
0
0.592442
2.15966
0.724295
0
0.320086
0.936692
0.594506
0.469936
0.69689
0
0.714224
0
0.150035
0.542246
0.247284
1.01339
3.11873
0.716081
0.629701
0
0.543352
0.39834
0
0.826893
0
0
0
0.967354
0.918642
1.26544
0.416127
0.437454
0.281964
0.460231
0.391591
0.578606
0
0
0.978284
0.495229
0.460831
0
1.09121
0.415015
0.687975
0.646367
1.07368
1.78044
0.377581
0.467582
0.783428
0
0.620983
0
0.4485
0
0.29397
0.537679
0.71609
0
0.580048
0
0.561183
0
0.753841
0.549902
0
0.589633
0.852179
1.26698
0.6648
0.733971
0.857879
0.547398
0.859474
0.609957
0.64112
1.18304
0.894979
1.22348
0.629446
0.711043
0.68124
0
0
0.540617
0
0.510715
0.817804
1.11417
0.923556
0.323423
1.37898
0.908394
0.644401
0.511959
0
0.139857
0.542692
0.279654
0.727984
0.547836
0.613081
0.493486
0
0.562826
0.275346
0.714516
0.341791
0
0.453041
0.563088
0.454082
0.57591
1.34752
0.662244
0
0
0.715712
0.3576
0.438733
0
0
0.877506
0.38384
0.438159
0.327168
0.828406
0.519644
0
2.21868
0.79324
0.531915
0
1.81069
0.49343
0.322279
0
0
0.971135
0.637684
0.224807
0
0
0.888344
1.18617
0.185435
0.46427
0.77181
0.981942
0
0
0
0.829439
0
0
0.512172
0.186009
0.440404
0.942698
1.10421
0.466964
1.11587
0
0.610633
0
0.596749
0
0.515175
0.704639
1.00238
0.565543
0.546544
0.458104
0.812613
0.8097
0.58079
0.881329
0.740635
0.382962
0.225885
0.423681
0.512742
0
0
0.677038
0
0.82966
0
0.505552
0
0.57015
0.689857
0.0414951
0.322167
0.532725
0.831997
0.446909
0.365285
0.538318
0
0
0
0.477278
1.09166
0.427795
0.845922
0.493846
0.642587
0
0
0.504929
0.277861
0.360049
0.41586
1.8982
1.75547
0.508821
0.412435
0.561594
1.24686
0.737488
0.578371
0
0.529791
0.544439
0.621938
0
0.53734
0.819202
0.847312
0.650004
0
0.983333
1.45866
0
0
1.14513
1.33541
0.350167
0.641689
0.49897
0.540743
0
0
0
0.792223
1.16096
0
0
0
0.148606
0
0
1.15993
0
0.603124
0.764482
1.69815
0.766239
0.678546
0.932185
1.06037
0
0.555642
0
0.481567
0.632644
1.09644
1.03908
1.48726
0.524796
0.801851
0.775289
0.200443
0
0.433564
0
1.33998
0.666634
0
0.544344
0
1.5875
0.638781
0.31933
0.48312
1.17399
0.968909
0.261287
0.559337
0
0.389028
0.341948
0.614368
0.922643
0.517029
0.57382
1.03391
0.719206
1.22726
0.419524
0.170618
0.317937
0
0
0
0
0.249156
0
0.652988
0.446986
0.406135
0.478482
0
0.825566
0
0
1.28821
0
0.635073
0.343171
0.583133
0.518426
0
0.35146
0
0.392957
1.68439
0.385743
0
0.674207
0
0.615724
0.57715
0
0.424936
0.348086
0.320517
0.989402
0.996895
0
0.539283
0.494792
0.605346
0.501139
0.53876
0.764567
0.475968
0.493591
0.40681
0.469081
0.82812
0
0.245402
0
0.402176
0.629026
0
0.508511
1.03782
0
0.492053
0.308507
0.632627
0
1.15826
0.864826
0.137571
0.350982
0.4139
0.892067
0
0
0.382194
0.476459
0.498215
0
0
0.18686
0
0.568314
0.407561
0.658623
0
0.51319
0
0.517203
0.607457
0.863287
0.431683
0.714286
0
0.756136
0
0.419788
0.462896
0.714137
0
0.988207
1.16045
0
0.766641
0
0.446099
0.399865
0.276911
0.234342
0.249933
1.37329
0
0.482303
0.279517
0.296578
0.262734
0.563278
0.599155
0.420396
0.330238
0.3518
0.282793
0.230378
0.104083
0.705654
0.550427
0.817621
0.124599
0
0.19716
0
0.5539
0.898671
0.588394
0.476051
0.981992
1.03924
0
0.792869
0.563617
0.493629
0.291108
0.542601
0
0
0.902464
0.601101
0.261885
0.258041
0.343403
0.649585
0
0.756566
0.876765
0
0.340695
0.624966
0.704527
0.197716
0.549685
0.245912
0
0.659111
0.21803
0
0
0
0
0
0
0
0
0
0
0
0
0
0
0
0
0
0
0
0
0
0
0
0
0
0
0
0
0
0
0
0
0
0
0
0
0
0
0
0
0
0
0
0
0
0
0
0
0
0
0
0
0
0
0
0
0
0
0
0
0
0
0
0
0.314091
0.455525
1.41052
0.504227
0.468891
0.890366
0.357556
0.750611
0.295625
0.484165
2.54411
0.708373
0.517448
0
0.411657
1.09343
0.48596
0.6246
0
0.385825
0.56978
0
0.43449
0.824249
0.225028
0.777739
0.642866
0.512781
0.705954
0
0.559515
0.953755
0.20712
0.891931
1.72337
0.975472
1.02832
0
0.762008
0
0.542046
0.509198
0
1.35046
0.790034
0
1.14942
0.672721
0.186051
1.63576
0
0.454016
0.877564
0
0.359368
1.69472
1.0763
0.785096
0
2.12791
0.248681
0
0.94029
0.499002
0.778013
0.13689
0.364193
1.59285
2.10147
0.506481
0
1.08669
1.0359
0.573704
0
0.75842
0
0.160963
0.521371
0.178272
0.274854
0.468929
0.638888
0.554639
0.520443
0.892785
0.79607
0.600011
0.549668
0.764896
0.825318
1.3709
0
0.667393
0.33531
0.503756
0.415987
0.540072
0
1.08737
0.743252
1.3364
0
1.70332
1.10796
1.25817
1.3477
1.00865
0.582228
0.484279
0
0.924859
0
0
0.611152
0
0
0.539757
0.879291
0
0.604759
0
1.23841
0
0
0.226747
0.330347
0.724489
0
0.329961
0.784917
0
0
1.23995
0.224688
0.785771
0
0.352466
0
0
0
0.417845
0.630095
0.230098
0
0.733161
0.544034
0.96733
0.53825
0.446148
1.32151
0
1.09385
0.756773
0
0.509375
0.22946
0.774485
1.21054
0.635622
0
0.567263
0.3124
0
0.524986
0
0
0.707424
0
0.678434
1.40731
0
1.88107
0.840739
3.14554
0.707019
0.352722
0.610669
0
1.33852
0
0.816655
0
0
0.600215
1.00416
0.554972
0.602539
0.589084
0
0
0.954444
0
1.23338
0.977194
0.819038
0.840712
0.601952
0
0.550864
0.630921
0.713848
0.520084
0
0
0.613239
0
0.841021
0
0.442324
0
1.05029
0.950661
0
0.83049
0.381289
0.431979
0
0.916579
0.776904
0.464702
0.618758
0.493086
0
0
0.383553
0.958438
0.592555
0.712176
0
0.753398
0.920424
1.24931
0.619097
0.929499
0.795768
1.31288
0.569869
0.639555
0.234195
0
0.419677
0.549965
0.445157
0.52235
0.338695
0.349195
0
0
0.511491
0.360794
0
0.46512
0
0.610948
0
0.422761
1.81624
1.16753
0
0.479114
0
1.9968
1.5342
0
1.5687
0
0.693454
0.706034
0.427943
0
0.41529
0.319646
0.458245
0
0.397585
0
0.394673
0.624141
0.345318
1.38418
0.556754
0.455411
1.11228
0.381464
0.626018
1.01353
0.560672
0.841423
0.635698
0.988623
2.29239
0.529638
1.17163
0.818506
0.598322
0.722879
0.345913
0.499236
0.888352
0.626397
0
0
0
0.940642
0.998007
1.17547
0
0.971885
0.623098
0
0.436814
0.982133
0
2.14402
0.471649
0.988563
0.649488
0.583179
0.544648
0.710368
0.626778
0.469679
0
1.04728
0.469347
0.930434
0.608899
0.734955
1.06833
1.31924
1.09322
0
1.05707
0.72248
0.80971
0.598335
0.739004
0
0.411449
0
0
0
0
0
0.829505
0.44451
0.711607
0.295123
0.377711
0.966625
0.399705
0.865966
0
0
0.0999902
0.608545
0
0.551898
0.552551
1.11903
0.529648
1.95195
1.00747
1.1322
0.367225
1.4484
1.53811
0.794235
2.27293
0
0.520906
0.476496
0
0
1.23803
0.817306
0.433679
0.215679
0
0.478868
0.351364
0.920726
2.5379
0.414575
0.92281
0.835005
0.294457
0.144359
0.663514
0.519896
0
0
0
0
0.906843
0.777731
0
0.792909
0.579541
0.726908
0.487364
0
0.453049
0.165598
0.463244
0
0.572575
0.888592
0.35005
0.423317
0
1.09455
0.814913
1.3962
1.30348
0
1.14468
1.02284
1.02081
0.413545
0
1.03836
0.529144
0.491251
0
0.23622
0.351076
0
0.576532
0.240667
0.553278
0.391584
0.687925
0.650064
0.589564
0.892024
0.429807
2.20423
0.220826
0.192704
0.196359
1.00387
0
1.34432
0
0.686718
0
1.18047
0.821236
0
0.793197
0
0
0.201174
0.252441
0
0.620746
0.517077
0.808514
0
0.51001
0.726805
0
0.496736
0
0
0
0.60342
0
0.640515
0.735555
0.753809
0
0.825144
0
1.03143
0.623351
0.399254
0
0.451072
0
0.501385
0.507998
0.808165
0.555457
0.179106
0.329734
0.259661
0
0.460856
0
0.27091
0.36642
0.372319
0.247727
0.28301
0.53664
0
0.58669
0
0.529122
0.544457
0.956014
0.267971
0
0.610058
0.292685
0.844837
0.33828
0
0.660321
1.22899
0.57971
0.952687
0.861302
0.764991
0.910861
0.481795
0.701702
0.948723
0.850769
0.242344
0.635842
0.657662
0.736564
0.619735
0.400086
0
0.691037
1.16697
0.31082
0
0.722771
0.101335
0.543938
0
0
0.558465
0.531019
0.441983
1.16296
1.03456
1.1744
0.711301
0.547431
0
0.695014
0
0.342748
0
0.511763
0
0.320407
0.528912
0.354687
1.36263
0
0.460818
0
0.261116
0.480615
0
0.62159
0.691625
0.7343
0
0
0.71959
0
0.623533
0.768809
0.636973
1.48604
0.777684
0
0.910447
0.881226
0
0.913311
0.430714
0.584241
0.490522
0.637967
0.697358
0.931594
1.54202
0.594487
0
1.14852
0.361243
0.706764
0.42708
0.441502
0.996573
0
0
0.374293
0.965104
0
0.649658
0
0.610528
0
0.386692
0.384282
0.638275
0.271646
0.238167
0
0
0.810563
0.418842
0.893379
0
0
0.829539
0.397362
0.8994
0.794559
0.672452
0.341539
0.649039
0
0.307295
0.488038
0.822593
0.760905
0.543959
1.46774
1.00712
0
0.602831
1.23157
1.43803
0.801858
0.411661
0.638581
1.50991
0.474163
0.301547
0
1.30923
0.496693
0.367382
0.410586
0.783071
0.567641
0.579433
1.16652
1.40557
0.515332
0.645551
0
0.643215
1.26048
0.506584
0.449099
1.91367
0.820327
0.264026
0.87485
0.861912
0.563384
0.531877
0.766097
0
0.678758
0
0.584704
0.655519
0.664504
0
0.749358
1.66225
0.676359
0.792109
0
1.74373
0.587849
0.508193
0.599513
0.741328
0
0.405783
0
0
0.402055
0.449889
0
0.526858
0.732595
0
0
0.470654
0.673313
0.540132
0
0.436914
0.224183
0.573319
1.06878
0.613269
0.943154
0.262235
0
1.03481
0.711074
0.861962
1.00264
0
0.428851
0.189721
0.635899
1.11109
0
0.609316
1.42018
0.148353
0
0.516771
0.881196
0.915133
0.717023
0.906358
0.532666
0.786919
0.270241
1.13627
0.943176
0.860421
0
0.576993
1.12734
0.499237
0.483041
0.517367
0
0.613775
0.0982536
0.615086
0
0.35769
0.427508
1.07145
1.08917
0.792475
0.455268
0.63028
0
0.470936
0
0.532371
1.96971
0.89089
1.35832
0.98014
0
0
0.279308
0.827132
0.324125
0
0.0996019
0.448117
0.643373
0.25936
0.886482
1.50404
0
0
0.643403
0.724949
0.537919
0.709404
0.393089
0
0.48013
0.461932
0.523279
0
0.301491
0.944147
0.171485
0.712437
0.820019
0.830562
0
0.592109
0.616303
0
0.863628
0.604567
0
0.541385
0.929697
0.61278
0.944384
0.675996
0
0.548978
0
0.61033
0
0.452417
0
0.458913
0
0
0
0.401794
0.555216
0.443334
0.722427
1.01197
0.430502
0.605851
1.25898
0
0.695052
0.34865
0.186088
0.630443
0
0.442663
0
0.251193
0
0.532226
0.248398
0.589861
0
0
0.793172
0.50443
1.02766
0.524124
0
0.779354
1.23971
0.402475
0
0.397716
0.258749
0
0.398722
0
0.566868
0
0.63344
0.553956
0.815283
0.450542
0
0
0.459593
0.695988
0.669522
0
0
0
0.656127
0
0.659806
2.56668
0
0.441196
0.700832
0.483513
0.384857
0.457413
0.419074
0
0
0.300302
0
0.534686
0
0.703864
0
0
0.33401
0.73962
1.12578
0.343989
0.314081
1.58407
0
0.418188
0
0
0.199996
0.383493
0.418552
0.544059
1.36384
0
0.384151
0.653874
0.613089
0
0.580821
1.12061
0.826723
0.253911
0.651002
0.501792
0.503992
0
0.597745
0.746088
0
0
0
0.364871
0
0
0.639788
0.554782
0.584726
0
0.761199
0.732481
0.540439
0.534584
0.746357
0.410679
0.682875
0.718968
0.477595
0.531616
0.636014
0.88853
0.530577
0.839072
0
0
0.316704
0.418698
0.537871
0.350647
0.636556
0
0.481037
0.254463
0.497026
0
0.747424
0.311622
0.520727
0.956955
0.520436
0.650443
0.0381569
0.645554
1.38887
0.553573
0
0.401842
0
0
0
0
0
0
0
0
0
0
0
0
0
0
0
0
0
0
0
0
0
0
0
0
0
0
0
0
0
0
0
0
0
0
0
0
0
0
0
0
0
0
0
0
0
0
0
0
0
0
0
0
0
0
0
0
0
0
0
0
0
0
0
0
0
0.402209
0.756175
0
0.620249
0.524323
0
0.456141
1.66234
0.406845
0.66442
0
0.561972
0.437739
1.07115
0.855237
0.936666
0.394846
0.74731
0
0.641192
0.577369
2.28653
0.415251
1.61128
0.437823
0.571844
0
0.451072
0.566965
0.769299
0.551634
1.4885
1.75072
0.470299
0
1.03034
0.421994
0.358508
2.63038
0.85665
0.21548
1.61365
0.561612
0.784425
1.26155
0
0.346082
1.3495
2.05178
0.455932
0
0.934615
0.208349
0
1.41387
1.2184
0.360687
0.997172
0
0.628421
0.599281
0
0.258889
2.02517
0.752558
0
0.687002
0.873684
0.568174
0.874957
0.499831
0
0.500102
0
0.684985
2.13674
0.550412
0.36106
0.275907
0.715149
0.742905
0.559857
1.27932
0.552149
0
0
0
0
0.521324
1.30849
0.797081
0.530197
0
0.343143
0.801865
0.366188
0
0.922277
0.782915
1.22697
0.820173
0
0.809518
3.63445
1.82959
1.17254
1.25703
0
0.588835
0
0
0.495244
0
0.356506
0
0.885573
0.450942
0.617703
0.975765
1.33432
0.829277
0
1.09458
0
0.833933
0
2.05484
0.695863
0
0.339045
0.238208
0.654668
0.514452
0.765013
0.151457
0.316215
0.746137
0.981688
0.714883
1.34602
1.60965
0.497666
0
0.465672
0.654987
0.68749
1.00805
0.496038
0.649391
0
0.383858
0
0.973599
0