<?xml version="1.0"?>
<VTKFile type="RectilinearGrid">
<RectilinearGrid WholeExtent="0 32 0 32 0 32" Origin="0 0 0" Spacing="1 1 1">
<Piece Extent="0 32 0 32 0 32">
<PointData>
</PointData>
<Coordinates>
<DataArray type="Float32" format="ascii">
0 0.524874 1.04975 1.57462 2.0995 2.62437 3.14924 3.67412 4.19899 4.72386 5.24874 5.77361 6.29849 6.82336 7.34823 7.87311 8.39798 8.92285 9.44773 9.9726 10.4975 11.0224 11.5472 12.0721 12.597 13.1218 13.6467 14.1716 14.6965 15.2213 15.7462 16.2711 16.796 
</DataArray>
<DataArray type="Float32" format="ascii">
-5.03879 -3.62163 -2.20447 -0.787311 0.629849 2.04701 3.46417 4.88133 6.29849 7.71565 9.1328 10.55 11.9671 13.3843 14.8014 16.2186 17.6358 19.0529 20.4701 21.8872 23.3044 24.7216 26.1387 27.5559 28.973 30.3902 31.8074 33.2245 34.6417 36.0588 37.476 38.8931 40.3103 
</DataArray>
<DataArray type="Float32" format="ascii">
0 0.524874 1.04975 1.57462 2.0995 2.62437 3.14924 3.67412 4.19899 4.72386 5.24874 5.77361 6.29849 6.82336 7.34823 7.87311 8.39798 8.92285 9.44773 9.9726 10.4975 11.0224 11.5472 12.0721 12.597 13.1218 13.6467 14.1716 14.6965 15.2213 15.7462 16.2711 16.796 
</DataArray>
</Coordinates>
<CellData>
<DataArray type="Float32" Name="Scalar" format="ascii">
0
0
0
0
0
0
0
0
0
0
0
0
0
0
0
0
0
0
0
0
0
0
0
0
0
0
0
0
0
0
0
0
0
0
0
0
0
0
0
0
0
0
0
0
0
0
0
0
0
0
0
0
0
0
0
0
0
0
0
0
0
0
0
0
0.252286
0.382696
0.192665
0.382463
0.276752
0
0.264261
1.27256
0.0937042
0.250791
0
0.250214
0.402728
0
0.490565
1.45973
0.176145
0.339603
0
0.264949
0.428522
0
0.303563
1.55212
0.218469
0.378861
0
0.236769
0.271668
0
0.246504
0.817108
0.231357
0.65583
0
0.207124
0.485705
0
0.49229
0
0
0.221686
0
0.803555
0.0574259
0
1.26501
0.686853
0.16089
0.901071
0
0.26388
2.03409
0
0.283491
0.868098
0.545754
0.183538
0
0
0.600885
1.01719
1.16256
1.16494
0
0.571247
0.501842
0
0.942535
0
1.24
0.661183
1.44343
0.696877
1.07259
1.14484
0
0.500348
0.293975
0.882394
0.744689
0.833814
0.445564
0.27544
0.490496
0.643932
0
0.89906
1.45402
1.69276
0.428703
0.596634
0.609631
0
1.13255
0.436872
0.519868
0.689448
0
0.337765
0
0.85748
0.848853
0.486168
0.445381
0.697567
0.408356
1.05272
1.1234
0.952632
0
0.406987
0.786892
0.23946
0.225152
0
0.739401
0
1.56172
1.39901
0.693192
0.991064
0
0.474069
0.904347
1.37614
1.27286
0.566401
0.641526
0
0.888279
0.765844
0
0.720746
1.30925
0.933198
0.906232
0.592063
0.785038
0.482608
0.878996
0.745248
1.0384
0.893404
0.752319
1.25886
1.29734
0.388572
0.312966
0.410304
0
0.806289
1.9674
0.928998
1.0703
1.30927
1.51235
0.841822
0
0.869164
0.630354
0.625064
1.10511
0
0.288662
0.231341
0.605525
0
0.683416
0
0.483039
1.53553
0.450648
0.996362
0.574773
0.699133
0
0.553023
1.43429
0
2.04114
0.903188
0.690246
0
0
0.396643
0.403962
0
0.447548
0
1.20704
0
0.516538
0
0.704266
0
1.1829
0.652475
0.485359
0
0.697706
0
0
0.457576
0
0.681317
0.886388
0.581615
0.795341
0.598929
0
0
1.23895
0.345074
0
1.1256
0
0.363999
0.674272
0.817812
0.619512
0.74149
0.993397
0.877676
0.347293
0.760589
0.31964
0.995665
1.50251
0.217272
0.699211
0.626905
1.23554
1.2585
0
2.11442
0
0.840521
0.19457
0.824004
0.547035
0.214866
1.06129
0.45519
0.495597
0
0.474217
0.830133
0.820589
0.665113
0.692935
0.612088
0.695557
0.975267
0.866124
0.722526
0.931357
0
0.337351
2.09872
0
1.43215
0.301485
1.01563
0.496908
1.01013
0.787641
0.750125
1.2346
0.10328
1.40283
0
0
0.435499
0.540842
0
0.575092
0
0.588846
0.583359
0
1.28657
0.689015
0.754035
0.644713
0.835392
1.57725
0.874888
0.816084
1.01615
1.10347
1.1409
0
0.711614
0.81233
0.979413
0
0.388845
0
0.747566
0.522107
0.438208
1.14178
0
0.930976
0.676455
0.657514
0.899795
0.727079
0.66768
0
1.44136
0.748033
0
0.888336
0.13036
0.644662
0.139908
0.565381
0.134575
0.543101
1.10967
0.637343
0.561357
0.676892
0.876048
1.32857
1.12385
0
0.471904
1.32242
0.879168
0.431873
1.14387
0.309661
0.391483
0.302557
0.241378
0.484731
0.449805
0.540809
0
0.540264
0
0.884518
0
0.823612
0.629255
0.589427
1.08378
0.549778
0.427234
1.16188
0.421496
0
0.478476
0
0.729343
0.568936
0
0
0.621918
0.744471
0.338758
0
0.677541
0
0
0.698437
0.631694
0.395809
0.449962
0.635254
0.305883
0
0.271456
0
0.445837
0.712228
0
1.16144
0.339118
0
1.13321
0.710435
0.747428
0.668644
0.565801
0.890821
0
0.742058
0
0
0
0.575264
0.447877
1.07035
0
0
0
0.636745
0.752785
0.651847
0
0
0.623216
0
0.682215
0.796818
0
0.705945
0
0
0
0.850566
0.86487
0.37333
0
0.516695
0.662335
0.89173
1.22672
0
0
0.939955
0.501998
0.448033
0
0
0.514802
0.782792
0.574753
0
0.474135
0.724874
0.847476
0.480967
0
0.591064
0
0.317137
0.420328
0.0909516
0.195384
0.831609
0.708217
0.553588
0.696977
0.460989
0.780143
1.78609
0.838002
1.23744
1.35336
0.54141
0
0.893764
1.43957
0.635408
0
0.949041
0.612359
0
0.688195
0.570947
0.786528
0.583746
0.287539
0.594737
0
0.68886
0
0.416531
0
0.46212
0
0
0.459032
0.748454
1.24895
0.472838
0
0.25034
2.07394
0.814821
1.2901
0.669334
0
0.582618
1.0304
0.480504
0
0.805177
0
0.800093
0
0.206997
0.153403
0.437455
0
0.77226
0
0.70397
0.957569
0.467224
0
1.37359
0
0.418885
1.05704
0.396699
0.493816
0.711449
0.693628
0.847258
0.470742
0.712431
0.578022
1.51525
0
0.644219
0.809879
0.641838
0
0.161654
0.444409
0.419807
0.387007
0
0.52685
0.206577
0
0
1.37179
0.587789
0
0.338092
0.515598
0.257717
0.882448
0
0.60498
0
0.580172
0.217623
0.6606
0.673216
0
0.652013
1.07656
0.726462
0
0.350197
0.639679
0.819997
0.706528
0.255708
0
0
0.238678
0.862048
0.486055
0.538914
0.863993
0.965311
0.590912
0.148518
0.422358
0
0
1.06991
0.750271
0.356694
0.510203
0
0.45115
0
2.97168
1.67075
0
0
0.839339
0
1.07827
0.399413
0
0
0
1.01726
1.32243
0.52991
0.162279
0.379842
0
0.256435
0
0
0.40321
0.764508
0.974171
0.426752
0.263565
0.876642
0.293966
0.334132
0.814193
0.186937
0
1.26393
0.616915
0.812641
0.972382
0.483173
0
0.654423
0.473942
0.824437
0
0
0.433795
0
0.680422
0
1.50447
0
1.52484
0.470367
0.730055
0
0.71983
0
0
0.340166
0.273976
0
0.380366
0
0.541399
0
0.599681
0.564713
1.098
0.47471
0.307924
1.72432
0
0.442011
0.734541
0.640858
0.574056
0
0.191681
0.467426
0.151242
0.669327
0.799136
0.766734
0
0.350742
0
0.557071
0.844668
0.465679
0.9814
0.954608
0.375549
0.48556
0.384404
0
0
0.708077
0.243016
1.02224
0.714068
1.03114
0
0.759796
0
0
1.13736
0.293415
0.657611
0.35162
0
0.676941
0.490001
0
1.08996
0
0.410066
0
0.615817
0
1.00293
0.977349
0.267845
0
0
0.373105
0
0.426276
0.338227
0.684604
1.01348
0.659711
0.608655
0
0
0.946615
0
0.0876802
0.752824
0
0
0
0.544997
0.494678
0.481726
0.684884
0.495367
0.379192
0
0.592289
0
0.507838
0
0.492135
1.32065
0.199928
0
0.41211
0
0
0
0.561675
0
0.449934
0.42866
0.622483
0.90246
0
0.881233
0.707906
0.771883
0
0
0.894338
1.23462
0.594687
0.501128
1.184
0.965269
0.618948
0.665091
0.6029
0
1.38684
0.314051
0
0.670946
0.250603
1.28431
0.612895
0.528672
0.855852
0
0.762357
0
1.04772
0.754303
0.6288
0.513877
0.519598
0.723362
0.559203
1.18913
0.436961
0.515732
0
0
0.237119
0.594401
0.495147
0
0.947588
0.586
0.390392
0.26418
1.51087
0.461423
0
0
0
0.397526
0.285952
0.534506
0.970597
0.683483
0
0
1.07147
1.14746
0
0.837598
0.448151
0.67528
0
0
1.00085
0.615241
0
0.740121
0.125601
0.532846
0
0.562771
0
1.02457
0
0.605117
0.613271
0.808598
0
0
0.550067
0
0.482636
0
0.693078
0.67549
1.56115
0
1.33924
0
0
0.624221
0.725995
0
0.86652
0.911818
0.745544
0.260816
0.270666
0
0.801265
0.543989
0.542721
0.559325
0.685142
0
0
0.373301
0.40534
0.432708
0
0
0.43321
0
0.987844
0.656047
0.674424
0.551991
0.425235
0.731335
0
0.675369
0.508694
0.828732
0.279018
0.50717
0.344892
0
0
0.416632
0.636807
0.651567
0
0
0.422676
0.303794
0.486271
0.0787676
0.356578
0.33059
0.354241
0.686365
0.710476
0.601503
0
0.288728
0
0.489472
0
0.905535
0.392913
0.3971
0.279911
1.06437
0.889112
0.665274
0
0.259385
0.443142
0.379377
0.662743
0
0.809071
0.735268
0
0.451186
0.661303
0.469299
1.15719
0
0.80585
0
0.444468
0
0.671662
0.36447
0.214081
0.562119
0.384586
1.02196
0.748864
1.69891
0
0.367927
0.457752
0.563052
1.13723
0.54322
0.40872
0.690725
1.22823
1.09488
0.717712
0.544151
0
0.592294
0
0.346915
0.30631
0
0.656138
0
0.305453
0.583774
0.608645
0.177759
0.289909
0
0.941829
0.432043
0.471615
0
0.386216
0.294365
0.426649
0.902429
0
0
0
0
0
0
0
0
0
0
0
0
0
0
0
0
0
0
0
0
0
0
0
0
0
0
0
0
0
0
0
0
0
0
0
0
0
0
0
0
0
0
0
0
0
0
0
0
0
0
0
0
0
0
0
0
0
0
0
0
0
0
0
0
0.519233
0.596448
0
0.421069
0.382787
0
0.69682
2.39908
0.417017
0.536072
1.31945
0.659889
0.433155
0.638843
0.45278
1.85379
0.340111
0.682856
0
0.524741
0.383532
1.81283
0.563263
1.07862
0.341915
0.620182
0
0.318305
0.623319
1.94688
0.927936
1.35582
2.43082
0.547717
1.35209
0.883147
0.906392
1.5547
1.45145
1.29617
0.422579
1.33098
2.22171
1.10586
0.768439
0
0.591531
1.40958
1.37091
0.437992
0
1.39337
0.433071
0
1.10119
0.834494
0.272603
1.66768
0
0.27356
1.33392
1.29551
0.238036
0
0.724498
0.226612
0
0.962604
0.967434
0.756829
1.33298
0
0.368018
0
1.3614
1.06981
1.05919
0.644013
2.17179
0.49171
0.519422
0.595097
1.3236
0.697815
0
0.562276
0.49598
0.872485
1.07167
1.20858
0.279765
0.651903
0.35193
0
0.62823
0.489742
0.474612
0
0.574055
0.624253
0.135856
0.834743
0.6845
0
0.803495
0
0
0.945072
0
0.289625
0
0.910412
0
0
0.480462
0.593651
0.917553
0.329736
0
0.334244
0.720364
1.08136
0.643723
0.74464
1.14498
1.10517
0.965901
0
0.579152
0.892982
0
0
0.632363
0.41621
0.956555
1.3735
0
0.623184
0.89391
0.908234
0.903251
1.14734
0.610245
0.591889
1.29951
0.653015
0
0.418052
0
0.668724
0
1.30008
0.947643
1.1908
0.473629
0.586667
0
0
0.517225
0.668905
0.241176
0.488873
0
0.00910645
0.231937
0.475799
0.477389
1.70603
1.36604
0.935266
0.52451
1.26271
0.789074
1.76882
0.440754
0.269759
1.17893
0.488204
0
0.832852
0
1.2439
1.0274
0.933196
0.768155
0.949482
0.389363
0
0
0.852312
0.808589
1.24319
0.794128
0
1.0745
0
0
0
0.648148
0.679099
0.298976
0.402717
0.568821
0
0.507544
1.19356
0.524728
0.288594
0.493446
0
0.524042
0.696202
0.556458
0.516015
0.351764
0
0
0.37985
0.531866
0.29532
0.632733
0.67492
0
0
0.901668
0.412206
0.627561
0
0.531784
0.187472
0
0.776571
0.451538
0
0.654441
0.583291
0.227888
0
0.69575
0
0.410041
0.483247
0.680835
0
0.857728
0.955719
0.550727
0.63974
0.388479
0.999561
2.09729
0.940774
0.690545
0.696985
0.557676
0
0
1.10769
0.0994734
0.724462
0.637296
1.00945
1.06924
0
0
0
0.91127
0
0.460286
0.519134
0.726672
0.52378
0.844245
0
0.953024
0.275739
1.90815
0.921419
0.980522
0.439944
1.10103
0.687558
0.56718
0.44388
0.516496
0.494511
1.21179
0.46021
1.10789
0.860201
0.514215
2.05739
0.683868
0.655477
0.714885
0.96678
0.609236
0.804469
0.236412
0.924505
0
0.873858
0.738769
0.490225
1.21558
0.350096
0.319911
1.08371
0.978595
0.525182
0.304632
0.902909
0
1.22183
0
0.539125
0.577079
0
0.723576
0.534042
0
0.638557
0
0.477205
0
0
0.690586
0
0
0
0.31163
0
0.677263
0.794157
0.574493
0.66739
2.02136
0.971678
1.61067
0
0.467152
0
0.646936
0.44378
0.568394
0.860703
0
0.714401
1.60658
0.757122
0
0.365603
0.618707
0.702128
0
1.06655
0.353703
0.446435
0
0.359067
0.716407
0.696642
0
0
0.583528
0.630828
0
0.327435
0
0.643519
0.556446
0.0774109
2.88463
0
0.609533
0
0
0
0.700399
0.706178
0.314038
0.478341
0.85681
0.436068
0.53981
1.23198
0
1.25136
0
1.16805
0
0.519349
0
0.597807
0.665901
0
0.511729
0.450179
0.307395
0.489668
0.555797
0.403421
0
0.457833
0
0.396418
0
0.389292
0.485525
0
1.11062
0
1.02263
0
0
0.351558
0.543782
0.633696
0
0.630032
0
0
0.578153
0.425465
0
0.722532
0.502716
0.69238
0
0
0.630372
0.70062
0.453733
0.609953
0.545296
0.42346
0
0.609521
0
0.654889
1.24923
0.464903
0
0.288878
0
0
0.401715
0.505518
0.398758
1.70213
0.904867
1.46454
1.26412
1.15427
0.611974
0.99418
0.830272
0.65816
0.926589
0
1.16502
0.187129
0.720782
0
0.73715
1.57908
0.459833
0.520478
0.338924
0.800034
0.474659
0.800853
0.523848
0
0
0.505667
0
0.822013
0
0.16943
0.330197
0
0.566384
0
0
1.83564
0.300901
0.338125
0.610336
0.381976
0.249314
0.987712
0.564815
0.983112
0.644881
0.310492
0.444099
0
0
1.7416
0.734393
1.31027
0.587654
0.904283
1.28633
0.374101
0.337314
1.17348
0.604582
0
0.42921
0
0.156057
1.09722
1.79827
0
0
0.957376
1.76404
0.667574
0.693928
0.545629
0.900747
0.755341
0.485844
0.297106
0.795129
0.521997
0.527234
1.25679
0.362695
1.30465
0.782095
0.981951
1.58435
0.755271
0.644648
0.278202
0.62569
0.563527
0
0.402136
1.03038
0.802073
0.642461
0.498502
1.33773
0.975697
0.778853
0
0.413059
0.737479
0.399384
1.48246
0.356195
0
0
0.586328
0.248771
0
0.681879
0.842467
0
0
0.804619
0.437222
0.949309
0.50923
0.473213
0.607709
0
0.67254
0.505792
0.391563
0.432382
0.791091
0.972487
0.80932
0.630825
0.817867
0.655672
0.814285
0.221787
0.210045
0.694166
0.591159
0
0
0.719023
2.76659
0.414877
0
0
0.453399
0.946863
0.586959
0.812599
0
0.691601
0
0
0.796727
0.436133
1.47527
1.18073
0
0.64091
1.10769
0.778482
0.418772
1.69951
0
1.21003
0.614142
0
0
1.1428
0.348341
0.873067
0.863867
0.554159
0.670242
0.526929
0.190021
0
0.621735
0
0.681473
0
0.525844
0.627172
0.390313
0.250855
0.78258
0.811834
0
0.60618
0.225245
0.591426
0.465952
0.531421
0.972776
0.53609
0.215504
0
0.756724
0
1.10295
0.456027
0
0.550702
0.417258
0.624734
0
0.414356
0.516197
0.807579
0
0.471134
0
0
0.403757
0
0.31919
0.293814
0.503865
0
0.365078
0
0
1.01789
1.04647
0
1.28104
0.628279
0
0.805459
0
0.430775
0.541863
0.537363
0
0.408828
0.514361
0
0.380146
0.470275
0.47589
0
0
0
0
0
0.453538
0
0.489589
1.05738
0.644596
0.342047
0.707974
0.562639
0.890711
0
1.43031
0.597146
0
0.328142
0.7531
0.568585
0.591427
0.226264
0.513938
0
0.547111
0.390171
0.740882
0
0
0.440068
0.521103
0.528053
0.208382
0.886333
0
0.868354
0.521286
0
0.369613
0.726826
0.704111
0.399093
0
0.386102
0.579949
0.264552
0.890066
0
0
0
1.04626
1.02751
1.67137
0.640735
0.440541
1.03305
0.731746
0.820201
0.965834
1.11813
0.549747
0.668781
0.949135
0
0
0.940604
0.529213
1.21162
0.624508
0
0.867335
0.640559
0.372239
0.482953
0.474796
0
0.503232
0.544293
0.549369
0
0
2.10454
0.20794
0.219628
0.899713
0.470318
0
0.198337
0
0.565282
0
0.463195
0.806483
0.535795
0
0.415339
0
0
0.700525
0.440049
0.767385
0.545776
0.475101
0.618787
0
0.520138
0
0.44444
0.754463
0.350579
0.833957
0.515461
1.09006
0.798408
0
0.599674
0
0.540608
0.256703
0.770954
0.53487
0.406988
0.64106
0.0722764
0
0.311974
0
0.450585
0.92429
0.196749
0.863957
0.602988
0
0.319807
0.696313
0.598984
0.875528
0
0.903247
0.752265
0.542258
0.800384
0.733942
0
0.880961
0.595997
0
0.663824
0.944986
0
0
0.29351
0.476604
0.611685
0.343756
0.680917
0.875261
0.734689
0
0.690269
0.274381
0.702938
0.169245
0.524171
0.414472
0.803222
0.501022
0.577024
0.700425
0.997979
0
0.77388
1.06786
0.154772
0.399394
0.588631
0
0.773496
0.611901
0.593127
0.61859
0
0.413006
0.711403
0.53868
0.752325
0.857428
0.617142
0.515753
0.596339
0.639081
0.616212
0
0.215734
0.505547
0.456655
0.219381
0.401572
0.284989
0.670671
0.495296
0.233928
0
0
0.693022
1.47149
0
0.373109
2.52803
0
0.614052
0.685144
0
0
0
0.46132
0.36938
1.22024
0.0421824
0.306341
0.226356
1.10106
0.531011
0.259718
0.470165
0.752933
0.690595
0
0
0.638248
0
0.68215
0
0.706091
0.638701
0.837743
0
0
0
0
0.443162
0.745953
0.43692
0.338443
0.426012
0.906686
0.748799
0.361522
0.639908
0.397681
0.41909
0.393588
0.392771
0.541412
0.726569
0.36695
0.698577
0.855591
0.662937
0.713738
0.745677
0.367086
0
0.441868
0.920091
0.298581
0.330405
0
0.366324
0
0.403772
0
0
0
0
0
0
0
0
0
0
0
0
0
0
0
0
0
0
0
0
0
0
0
0
0
0
0
0
0
0
0
0
0
0
0
0
0
0
0
0
0
0
0
0
0
0
0
0
0
0
0
0
0
0
0
0
0
0
0
0
0
0
0
0
0
0
0
0
1.042
0
0
0
0
0
0
0
0
0
0
0
0
1.81118
0
0
0.746112
0
0
0
0
0.646402
0
0.583503
0
0
0
0
0
0
0
0
0
0
0
0
0
0
0
0
0.691994
0
0
0
0.294033
3.11055
0
0
0
0
0
0
0
0.312487
0
0
0
0
0
0
0.405744
0.685249
0.848576
0.675724
0
0
0.486461
0.713321
0.986791
0.786063
1.29792
1.86241
0.580889
1.90489
0.713972
0
1.46877
0.346783
0
0.560956
1.26857
1.2323
1.21452
0.721088
1.14356
0.683807
0
0
0.821571
0.486387
0
0.980566
0.265479
0.323855
0
0.882534
0.540021
0.75286
0
0.749155
1.49766
1.12487
1.15895
0.766384
0.2881
0.451083
0.557051
0
0.637981
0.898451
0.587547
0.477989
1.27064
0
0.819463
0
0.643599
0
0.550072
0.616379
0
1.88512
0
0.493593
0.22848
0
0.539012
0.580691
0.659476
0.351678
0.900434
0.540908
0.662549
0.622029
1.19096
0
0
0
0.608496
0
0
0.768656
0.788139
0
0.730559
0.48262
0
0.650431
0
0
0.399446
0.43
0.95602
0.850755
1.85189
1.10977
0
1.52679
0.659612
0.610222
0.231629
0.671422
0
0.798403
0
0.978777
0
1.36616
0
0.860346
0.392114
0.863478
1.23445
0.608137
0.721878
0
0.48588
0.283508
0.698821
0
0.731943
1.54553
0
0.600796
0.635482
0.436004
0.127816
0.437545
0.528618
0.881353
0.305607
0.356085
0.688962
0.672867
0.441597
0
0.390955
0
1.41809
2.03124
0.711444
0.472226
0.679728
0.511422
0.620544
0.34311
0.506949
0.644389
0.60977
0.971594
0
0.447762
0.590564
2.41404
1.19073
0.774699
0.564702
0
0.60228
0.556512
0.634288
1.54235
0.518723
0.404389
0
0.756138
0
0.730174
0.67554
0.667055
0
0.24619
0.486585
1.12928
0.8468
0.300589
0
0.39299
0.459107
0
0
0.631364
0.452595
0.38239
0.340677
0
0
0
1.14953
0.197583
0.581196
0.255972
0.350782
0.381985
1.02095
0.740168
0
0
0.6631
0.533146
0.336417
0.370068
0.447814
0
0.463595
0.701182
0.740625
0.945135
0
1.11642
0
0.829045
0
0
0.591599
0.414743
0.555854
0.780671
0
1.47511
0.999651
0.761558
0.967106
0.346181
0.753582
0.428166
0.201731
0.376885
0
0.570673
0.957839
0
0.51286
1.63863
0
0
0
1.3618
0
0.521087
0.654448
0.841396
0.83024
1.51588
2.09415
2.81671
0.614219
0
0
0.829776
0.19237
0.680093
0
0.671796
0.87955
0.417176
1.14618
0.433975
0
0.693702
0.273563
0.999047
0.82193
0
0.350858
0
0.346653
0.71054
0
1.08137
0
1.04055
1.30574
0
1.86201
0.544902
0.564035
0.486213
0.43645
0.616769
0
0.955459
0
0.385222
0
1.14647
0.849987
0.868149
0
0
1.26786
1.82227
0
0.546563
0.29749
0.454413
0
0
0.600613
0
0.581402
0.628172
0
0.493809
0.387124
2.19019
0.617542
0
0.314357
0.212158
0.581374
0.519905
0.42331
0.414784
0
0.339574
0
0.262323
0.861621
0.811472
0.473971
0.508306
0.732633
0.408679
0.611844
0.417342
0.654746
0.526544
0.665056
0.354731
0.55187
0.601965
0.404645
0
0
0.887616
0.350988
0.683718
0.326392
0
0.687994
0
0.45821
0.511139
0.270709
0.494744
0
0.295539
0.998835
0.479602
0.753828
0
1.12819
0
0
0.447303
0
0.442532
0.3225
0.462307
1.1441
1.26541
0
0.481375
0.949335
0.463755
0
0.497005
0.43541
0.843048
0.742735
0.506269
0
0.548851
0
0.286267
1.38945
1.79741
0.4737
0.471142
0.355005
0.443925
0.285156
0.629073
0.501031
1.15338
0
0.98316
0.449678
0.539163
0.377637
0.766393
1.03971
0
0
0.764474
1.47979
0.439444
0
0
0.857649
0.796393
0.505223
0.291324
0.360973
0.531682
0.168077
0
0
0.450144
0
0.473597
0
0.610124
0.62749
0.77544
0
0.243634
0
1.28144
1.28855
0
0.986423
0
0.219927
0
0
0
0.23856
1.35702
0.815269
0.714491
0.399874
0.680669
0.376351
0.269078
1.47817
0.561815
0.305967
0.68398
0.930523
1.41248
0.39185
0.333931
0.378882
0
0.4452
0.502567
0
0.772682
0.682864
0.539179
0.585837
1.46942
2.2236
0.584412
0.325393
0.955747
0
0.699892
0.896806
0
0.456439
1.07074
0
0.451013
0.737399
0
0.872277
1.11972
0.895777
0
0
0.600493
0.515975
1.17156
1.16606
0.461871
0.702509
0
1.59857
0
0.563773
0
0
0.700154
0.550667
2.76563
0
0.883657
0.751205
0.337997
0
0
0.304305
0.699723
0.473364
0.916072
0.569205
0.393754
0
0.588639
0.713748
0.782115
1.18793
0.815168
0
2.01697
1.23674
0.669536
0.458158
0
1.18784
0
0.923088
0
0
0
0.534667
0.444422
0
0.835152
0.516346
0.43996
1.13876
1.73748
0
0.693232
0.28508
0.217905
0
0.436944
0.573916
0.519481
0
0.510262
0
0.464558
0.35171
1.01306
0.99927
0.69974
0
0
0.590628
0
0
0.807117
1.05153
0
0.895201
0.779474
0.494153
0
0.316908
0.774737
0.992585
0
0.485799
0.615954
0.391877
0.272174
1.21996
0
0.534845
0.477902
0
0.437016
0.250628
0.538704
0.390403
0
0.925924
0.637637
1.0443
0
0.558644
0.81604
0.779591
0.592684
0
0.805852
0.451984
0.832553
0.536552
1.36015
0.34573
0.44143
0.768309
0.996905
0.773218
0
0.805717
0
0.64966
0.497974
0
0.824035
0.680099
0.757993
1.11517
0
0.657002
0.596644
0.732449
0.979265
0.827607
1.17727
0.686675
0.621426
0
0.625279
0.599977
0.145612
0.900966
0.626192
0
0.489797
0
0
0.483127
0.562137
0
0.936627
0.316872
0.563811
0.521332
0.50486
0.812751
1.26969
0.150922
0.66569
1.70997
0.556784
0.403934
1.068
0
0.411393
0.806578
0
0
0.581102
0.847252
0
1.12537
0
0
0
0
0.730829
0
0.691721
0.506104
0.890193
0.4239
0.557906
0.767834
0.717203
1.00179
0.52842
0.581021
0.851791
0
0
0.745157
0.771362
0
0
0.509434
0
0
0.777168
0
0.413902
0.147582
0.77915
0.613027
1.08439
0.253172
0.940172
0.352662
0.746181
0
1.69404
2.00455
0.980457
0.363049
0.665151
0.952817
0.387089
0
0.641283
0
1.45993
1.07683
1.42065
0.558786
0
0.69758
0.465167
0.58896
0
0.672036
0
0.198716
0.483279
0.519189
0.914622
0.430201
0.274316
0.534427
0.232962
0.339788
0.71579
0
0.391759
0.43064
1.82191
0
1.08356
0
0.418426
0.729379
0
0.805641
0.724696
0.731749
0
0.370971
0
1.34391
0.572409
1.74302
0.402041
0.13889
0
1.04867
1.07858
0.90405
1.22215
0.658842
0.333565
0
0
0.709814
0.486803
0
0.554206
0.348652
0.331478
0
0.407639
0.513741
0.664974
0.700755
0.486538
0.506515
0.406845
0
0.608579
0.129075
0.423828
0.716601
0
0.744837
0.726807
0.757575
0.740116
0.43319
0
1.03756
0.576039
1.17905
0.78209
0.98069
0.711089
0.970847
1.12083
0.75821
0
0.326372
1.03384
0.791927
0.557002
0.401632
0
0
0.268187
0.528519
0.418482
0.392075
0
0.262067
0.286705
0.395851
0
0
0.6109
0.421649
0.91209
0
0.317302
0
0.475932
1.24632
0.651104
1.18112
0
0.844177
0.510295
0.831523
0
0.382377
0.596611
0.521205
0.532007
0.464302
0.951367
0.386817
0
1.01419
0.44974
0
1.22565
0.684346
0.821722
0.376352
0.408047
0
0.937347
1.38486
0.471121
0.346997
0
0.598206
0.202386
0.692037
0
0.361384
0.447525
0.96964
0
0.442921
0
0.687348
0.0354371
0.132296
0.276725
0
0.829734
0
0.732298
0.320456
0.765115
0
0
0.757676
0
1.05073
1.06864
0
0.93443
0.372237
1.01698
1.25484
0.092544
0.859298
0.908711
0.729401
1.00406
0
0.772387
0.846547
1.31497
0.198805
0.445563
0
0
0.529345
0.40618
0.122753
0.411427
1.34851
1.23154
0.631439
0
0.450169
0.384313
0.810626
0.25055
0.52602
0.430131
0.680833
0.648202
0.754081
0.434211
0
0
0
0
0
0
0
0
0
0
0
0
0
0
0
0
0
0
0
0
0
0
0
0
0
0
0
0
0
0
0
0
0
0
0
0
0
0
0
0
0
0
0
0
0
0
0
0
0
0
0
0
0
0
0
0
0
0
0
0
0
0
0
0
0.46333
0.731592
0
0.527353
0.467829
0
0.356173
0.737729
0.251228
0.382808
1.3032
0.52227
0.542813
1.16625
0.468441
1.21825
0.395812
0.555409
0
0.569447
0.598185
0
0.451787
1.12153
0.285353
0.643659
0
0.411758
0.357253
0.985428
0.405581
1.74559
0.228999
1.19638
0
0.183296
1.13508
0
0.30857
0
0
0.492513
1.01978
1.91835
0.594483
0
0.719061
1.81392
0.516654
1.75357
0
0.284812
0.501745
0
0.906104
1.03247
0
0.596255
0
1.38593
0.413202
0
0.99671
0.913244
0
0.549899
0.429107
1.55787
0.814469
0.48772
0
0.885991
1.28235
1.77632
0.813925
0.792743
0.914301
1.41332
1.01538
0.532913
0.909356
0.8616
0.797771
1.05346
0.945118
1.17254
0.78405
1.19014
1.37172
0.531105
0.221688
0.539339
0
0.490098
0.722955
0.828498
0
0
1.88081
1.29558
0.131065
0.433389
1.0327
0.76579
0.329991
0.575209
0
0.890367
0
0.65314
0.569928
0.292073
1.04671
0
0.413072
0.515114
0.941182
1.9473
0
1.41726
1.43759
0.911589
0.284211
1.64067
0.510097
1.44305
0
0.462321
0
0.312358
0
1.06537
0
0.826683
1.19404
1.70461
1.2178
1.45958
1.31914
0
0.536281
0.293757
0.754047
0.920582
0.501247
0.54803
1.49746
0.415115
0.684725
1.28706
0.698422
1.39662
1.30691
0.698729
0.0968395
0
0.322817
0.72275
0.612056
1.35775
0.663299
1.04968
0
0
0.940588
0.40326
0.417485
2.68624
0.867183
1.12338
0
1.16535
1.28441
1.55077
0
1.10496
0.623708
0.637956
0.736059
0.695474
0.778427
0.772252
0.690644
0.726459
0
0.377363
1.08427
0.663841
2.30181
0.839081
0.969035
0.762834
0
0.760077
0
0
0.58638
0
0.903064
1.65676
0.847817
0.49919
1.14986
0.96052
0.897919
0.270906
0.377165
0.507648
0.228608
0
0.541422
0.546715
0.678096
0.45841
0.509791
0
0.470663
1.08477
0.908516
1.46135
0.262799
0.704201
0.736529
0.798723
1.90078
0.545789
1.08993
0.700661
0
0.55676
0
0.490299
0.971161
0
0.442654
0
0.77664
0.746386
0
0.5086
0.557822
0.0837378
0.21205
0.623688
0.713509
0
0.470304
0
0
0.57228
0.533811
0.706297
0.539894
0.384001
0.677062
1.07475
0
0.533181
0.509101
0.99234
0.834726
0
1.11049
0
0
0
0
0.789865
0.696238
0.998057
1.08891
0.322928
0
1.70047
0
0.449781
1.03615
0.888779
0.147315
0
0.0149795
0.31911
0
1.0398
0
0.614543
1.42644
0
0.566874
0.588803
0
0.506041
1.23012
0
0.643638
1.5969
0.543414
0
0.920871
0.940257
0.742993
0.72168
0.754329
0.39836
0
0.913545
1.39547
0
0.848517
1.30388
0.360932
0.462432
0.499861
0
0
0.786285
0.507669
0.644727
0.958744
0.797674
0.171726
2.07164
0.450963
1.03518
0.437059
0.720214
0.45338
0.674713
0
0
0
0.724371
0.601311
0.421526
0.247704
0.492627
0.54108
0.27211
0
0.301859
0.262501
0.516444
0.604992
0.79446
0.501301
0
0
0.864868
0
0.965118
0
0
0.372147
0.437333
0.313811
1.31081
0.504935
0
0.642168
0
0.543444
0.545652
0.545758
0
0.721515
0.327227
0.308755
0
0.536973
0.653077
0
0.509034
0
0.472909
0.272512
0.537434
0.578792
0
0.66012
0.741159
0.319602
0.178341
0.689791
0.576781
0.972107
0
0.826063
0.792341
1.01423
0.472767
0.363381
0.450655
0.474251
0.309279
0.340803
0
0
0.67169
0.586065
0.603509
0.958728
0.805533
0.547032
0.261371
0.516404
0.423535
0
0
0.423366
0
0.842904
0.233852
0.810166
0
0.550865
0.385388
1.07817
0
0.726479
0
0.758591
0.632053
0.396733
0
1.09133
0.553716
0.512146
0
0
0
1.42822
0.574205
0
0.236985
0.77277
0.387516
0
0.475903
0.548093
0.441564
0.795788
1.52008
0.621911
0
0.806015
0
0.260201
0.172522
0.396898
0.502558
1.13935
0.852887
0.435547
0
0.336251
0
0
0.727823
0
1.77571
0
0.7781
1.02948
0.331772
0
0.254057
0.398295
0.866516
0.663944
0.218729
0.770612
0.6389
0.594866
0
0
0.196226
0.341391
0.170687
1.38479
0.896642
0.851799
0
1.45402
0
0
0
1.45144
1.05433
1.00644
0
0.610923
0.424956
0.490109
0
0.578841
0.460378
0
0
0.944885
0.515076
1.66396
0.709449
0.866015
1.75122
0.921822
0.619084
0.641717
0
0.963292
0
0.363633
0.631
0.867836
0.92439
0
1.55017
0.643061
0
1.20053
0.589729
0.598525
0.224096
0.306612
0.462717
1.16573
0
0
1.2415
0.533813
0.363893
0
1.06386
0.725779
0.505971
0.586476
0.652488
0.282393
1.2941
0.881629
0
0
0
0.84929
0.737128
0.997551
0.830369
1.42039
0.922863
0.677334
0.402252
0.579596
0.522473
0.771999
1.00197
0.452836
0.417875
0.83874
0.673284
0.729541
0.625368
0.599438
0.53824
0.452482
2.91745
0.854681
0
0
0.542117
0.34535
0.724863
0.9501
0.43621
1.32543
0.887189
0.62067
0
0.762441
0.300362
0.857744
0.462017
1.07675
0.435707
0.706385
0.396541
0.818008
0.466604
0.555339
0
0
0.708446
0
0
0.453147
0.426788
0.423746
0.703516
0
1.21053
0
0
0
0.387276
0.353171
0.981237
1.19663
0.578447
0.51843
0
0.504684
0.802
0.31385
0.959818
1.01877
1.22691
0.700277
0.366058
0.927267
2.36577
0.549096
1.7684
0.818901
0.231821
0.28531
0.361154
0
1.09211
1.14469
1.0488
0
0.43928
0.664445
0
0.380337
0
0.680234
0.655348
0.663709
0.968282
1.16686
0.194021
0
0.534111
0
0.756602
0
0.88039
2.27936
0.512354
0
1.01141
0.701326
0.623021
0
0.551419
1.07429
0.508765
0.985464
0.409444
0.624875
0
0.869492
0.671211
0.468405
0.550082
0
0.826633
2.19595
0
0
0
0.379616
0.454298
0.498079
1.4789
0.47348
0.789159
0
0.684169
0
0.533422
0
0.438817
0.533357
0.29917
0
0.594672
2.09452
1.56761
0.699646
0
0.31777
0.295526
1.36365
0.971944
0.250931
0
0.840624
0.544142
0.626498
0.719257
0.705832
0.195682
0
0.524971
0
0.72409
0.44899
0.806671
0.445895
0
0.455403
0
0.422979
0
0.157791
0.758133
0
0
0.447918
0.740587
0
0.198192
1.31998
0.371558
0.936066
0
0
0.763432
0
0.293971
0.874309
0.459462
1.0281
0.657991
0.420002
0.733505
0
0
0.474594
1.03685
0
0.649981
0
0
0
0.698929
0.616189
1.42748
0.464732
0
0.569305
1.24424
0
0.342091
0.422589
0.548676
0.658698
1.38503
0.627199
0.907141
0
0.543654
0
0
0
0
0.704855
0.699028
0.369095
0
0
0.344366
0.42994
0
1.19393
0.939877
0
0.37884
0
0.672078
0.459919
0.726135
0.934319
0.458824
0.589298
1.06391
0.408194
0.674435
0.506492
0.429813
0.444166
0.86424
0.434365
0
0.279938
0.289556
0.56354
0
0.455715
0.896148
0.264067
0.516929
0.314873
0.675257
0.265047
0.33049
0
0.553742
0.222542
0.980448
0.227579
0.497742
0
0
0
0.50213
0.522274
1.4388
0.705472
1.03959
2.20893
0
0
0.528255
0.72535
0.786927
1.27596
1.21889
1.28924
0.545074
0
0
0
0.660306
0.257125
0
0.389904
0
0.606387
0.609274
0
0.0650989
0
0.614768
0.49702
0
0.763351
0.605108
0.175574
0
1.12084
0.651349
0.302775
1.47005
0.409118
0.44896
0.336706
0.938926
0
0.962338
0.641335
0
0
0.75439
0
0
0.410011
0
0.300804
0
0.606389
0.666242
1.0849
0.510018
0.338779
0.26472
0.49867
0
0.216901
0.418771
0
0.494694
0
0.422626
0.523397
0
0.545391
0.218985
0.810957
0.835582
0
0
0
1.10771
0
0.499142
0
0
1.17508
0.443994
0.387079
0.374865
0
0
0.653595
0.478538
0.246675
0.684559
0.464416
0
0.399855
0
0.672711
1.07744
0
0.29941
0
0
0
0.396638
0.303614
0.532122
0
0
0
0.379733
0.423611
0.768729
0.666683
0.16402
0.4394
0.613903
0.675525
0
0.469583
0.475085
0
0.771917
0.606025
0.849372
0.320269
0.431328
0
0.708349
0.931114
0.51372
0.370459
0.879225
0.648383
0.433656
0
0.488104
1.53767
0.529697
0.495727
0.212074
0.473138
0
0.4658
1.22862
0
0
0
0
0
0
0
0
0
0
0
0
0
0
0
0
0
0
0
0
0
0
0
0
0
0
0
0
0
0
0
0
0
0
0
0
0
0
0
0
0
0
0
0
0
0
0
0
0
0
0
0
0
0
0
0
0
0
0
0
0
0
0
0
0.221361
0.732504
0
0.696881
0.419178
0
0.334985
1.19575
0.312581
0.521953
0
0.332966
0.448173
0
0.849173
0.962043
0.280376
0.505965
0
0.508003
0.513422
1.25652
0.361997
0.818887
0.260419
0.398601
0
0.427373
0.551707
1.03454
0.514242
1.11945
1.61118
0.517387
0
1.70156
0.257407
0
0
0.802581
0.201701
1.89375
0
0.470535
0.336398
0
0.61914
1.9341
1.65434
0.33961
0
0.913379
0.156052
0
0.348168
0.459682
0.17332
1.06757
0
0.677541
0.813535
0
0.628945
0.480291
0.848498
0.470056
0.696171
0.361611
0
0
0.721171
0
0.225547
0.324324
0.428225
0.291061
1.93106
0.860609
0.762477
1.4764
1.12519
1.11577
1.5494
0.869417
1.69118
1.73377
0.575418
0.602276
0.735835
0.618358
0
0
0.681917
1.0589
0.533666
0.402622
0.739744
0.832546
2.26669
0.514253
0
0.889801
0.626228
0
0.745306
0
0.514637
0.801396
0.734061
0.675244
0
0.792838
0
0.665497
0.33867
0.456177
0.505671
3.13408
0.866455
1.19519
1.62411
0.25292
0
0.644997
0.673541
0.754314
0.670588
0.835872
0
0
0
0.951352
0
0.724477
0.954401
0.443053
0.88838
0.368307
0.508993
0.460211
0.724939
0.416106
0.458404
0.952905
1.59524
0.341801
0
1.09852
0
0.917853
0.395981
0.448971
0
0.259285
0.883227
0.763758
0
0.886407
0.307794
0.801672
0.298076
0.810647
1.44724
1.04201
0
0
0
0.654195
0
1.10309
1.48813
0.587493
2.27145
1.5913
0.511219
0.714424
0.929701
0.471806
0
0.441192
0.268503