<?xml version="1.0"?>
<VTKFile type="RectilinearGrid">
<RectilinearGrid WholeExtent="0 32 0 32 0 32" Origin="0 0 0" Spacing="1 1 1">
<Piece Extent="0 32 0 32 0 32">
<PointData>
</PointData>
<Coordinates>
<DataArray type="Float32" format="ascii">
0 0.524874 1.04975 1.57462 2.0995 2.62437 3.14924 3.67412 4.19899 4.72386 5.24874 5.77361 6.29849 6.82336 7.34823 7.87311 8.39798 8.92285 9.44773 9.9726 10.4975 11.0224 11.5472 12.0721 12.597 13.1218 13.6467 14.1716 14.6965 15.2213 15.7462 16.2711 16.796 
</DataArray>
<DataArray type="Float32" format="ascii">
-5.03879 -3.62163 -2.20447 -0.787311 0.629849 2.04701 3.46417 4.88133 6.29849 7.71565 9.1328 10.55 11.9671 13.3843 14.8014 16.2186 17.6358 19.0529 20.4701 21.8872 23.3044 24.7216 26.1387 27.5559 28.973 30.3902 31.8074 33.2245 34.6417 36.0588 37.476 38.8931 40.3103 
</DataArray>
<DataArray type="Float32" format="ascii">
0 0.524874 1.04975 1.57462 2.0995 2.62437 3.14924 3.67412 4.19899 4.72386 5.24874 5.77361 6.29849 6.82336 7.34823 7.87311 8.39798 8.92285 9.44773 9.9726 10.4975 11.0224 11.5472 12.0721 12.597 13.1218 13.6467 14.1716 14.6965 15.2213 15.7462 16.2711 16.796 
</DataArray>
</Coordinates>
<CellData>
<DataArray type="Float32" Name="Scalar" format="ascii">
0
0
0
0
0
0
0
0
0
0
0
0
0
0
0
0
0
0
0
0
0
0
0
0
0
0
0
0
0
0
0
0
0
0
0
0
0
0
0
0
0
0
0
0
0
0
0
0
0
0
0
0
0
0
0
0
0
0
0
0
0
0
0
0
0.133117
0.302101
0
0.217248
0.527296
1.23932
0.307
1.20037
0.294377
0.276976
0
0.257601
0.504461
0
0.31867
1.39643
0.154327
0.246341
0.784089
0.311818
0.416318
0
0.600888
1.07125
0.244944
0.246655
0
0.165853
0.28731
0
0.26176
0.817033
0.245048
0.868584
0
0.264467
1.27235
0
0.0990357
1.92791
0
0.715562
0
0.65966
0.178008
0
0.971567
1.03291
0.135987
0.222647
0
0.267283
0.661901
0
0.284653
0
0
0.156126
0
0.252639
0.230355
0
0.811714
1.25637
0.268446
0.894295
0
0
1.20997
0.530654
0
0.648662
0.46405
1.92387
1.14265
0
1.00556
0.934042
0.471344
1.29768
0.436826
0.537523
0
1.1326
0.650066
1.10188
0
1.52455
0.726504
2.38861
0
0.395579
0
0.780697
0.679024
0.161775
0.850507
0.828226
0
0.45545
0
0.433753
0.459214
0.455134
0.712852
2.6133
0.454016
0
0.612561
0
0.505209
0
0
0.352617
0.691884
0.729215
0
0.482749
0.610792
2.16368
0.401589
0.949927
0.579965
0
0.798459
0.373136
0.711627
0
0.759959
0
0
0.627387
1.29727
0
1.29032
1.00035
0.364695
0
0
0.792526
0.454701
0.367938
0.744461
0.924575
0.365383
0.548381
0
0.623281
0.644076
0
1.00862
0.938024
0.993407
1.25799
0
0.494812
0.6144
0.473847
0
0.0633734
0
0.479157
0.437125
0.44973
0
0
0
0.356785
1.56528
1.26445
0.807106
0.518899
0.808464
1.34181
0.670795
0.507381
0
0.565455
0.525306
0.612342
0
0.559084
0.431207
0
0.322766
0.581176
0
0.178897
0.625535
0
1.06207
0
0.59229
0
0
0.341033
0
0.552634
0
0
0
0
0
0
0.570211
0.791945
0.486454
0.68559
1.15701
0.218226
0
0.477968
0.217207
0.551627
0.784924
0.653382
0.70991
0
0.589158
0
1.21671
0
0.477983
0.977977
0
0
1.43954
1.75267
0.776301
0.445733
0.479005
0
0.911051
0.365547
0.540977
0.777983
0.300794
0.373836
0
0.513236
0.824985
0.825194
0
0.624967
0.799672
0
0.469491
0
0
0
0.257225
0.744798
0.560362
0
0
0
0
0.470523
0.578188
0.736174
0.613881
0.56322
0.65552
0.558424
0.922611
0.35946
0.648904
0.474754
1.21101
0.967773
1.06343
0.616765
0
0.561546
0.779595
0.797292
0.671692
0.417858
0.781075
0
0
0.327519
0.921022
1.04563
0.556265
0.941464
0.516339
0.533148
0.430219
0
1.277
0.36046
0.878264
0.670093
0.350507
1.16968
0.782227
1.37647
0.674641
0
0
0.729541
0.717554
0.411395
0.478695
0.386882
0.558089
0
0.745537
1.19357
0.403922
0
1.10017
0
0.381578
1.18664
0
0.605987
0.44076
0.357484
1.02357
0.632667
0
0.487341
0
0
0.819619
0
1.27048
0.619264
0.505353
1.17661
0.175413
0.455621
0.427972
0
0.404424
0.207383
0.664959
0.758683
0
0.942624
0
0.846674
1.22752
0
0.838208
0
0.508349
0.176377
0.665811
0.799227
0.329641
0.839468
0
0.819423
0
0.284794
0.72268
0
1.28916
0
0.516414
1.00894
0
0.889531
0.303941
0
0.24301
0.761298
0.848405
0.462679
1.13165
0.564616
1.10232
0.491255
0.757226
1.07967
0.477822
0.829685
0.410276
0.319564
0
0
0.561352
0.383157
0.541236
0.0151789
0.64817
0.983209
0.575411
0
1.51416
0.590564
0.805335
0
0.581967
1.65721
0.715663
0.270265
0.543935
0.605016
0
0.910312
0
0
0.355664
1.01377
0.333778
1.05858
1.50696
0.45993
0
0.824564
0
0.278072
1.48438
0.663534
0
0.794222
0
2.39463
0.679483
0
0.618222
0
0.222786
0
0
0.626411
0
0.662871
0
0.516664
0
0.179175
0.589477
0.970686
0.742009
0.635839
0.863139
1.22457
0.552707
0.503173
0.242442
0
1.53943
0.970669
0.518886
0.702384
0
1.67947
1.22221
0
0
0
0
0.355689
0.343851
0.549481
0.22699
0
0.253329
0.514926
0.407365
0.996633
0
0.374783
0
0.672299
0.649285
0
0.726214
0.841865
1.99518
0
0.883812
0.0205101
0
0.633666
0.506431
1.10806
0
0
1.21374
0
0.685874
0.425811
0.741832
0.72699
1.09918
0.427706
1.32599
0.980323
0.340634
0.437929
0.612391
0.639285
0.563414
0
0
0.246512
0.78882
0.875093
0.990678
0
0.668432
1.03606
0.300549
0
0.434719
0
0.682425
0.526266
0.888644
0.673687
0.64987
0
1.24614
0.17578
0.491369
0.257623
0.581921
0.894899
0.903238
0.621917
0.576517
0
0.534343
0.385938
0.487447
0.578961
1.48162
1.1656
0.605068
0.860263
0.774465
0.867564
0
0.645753
0.518664
0.979791
1.33355
0.665281
0
1.07114
1.12818
0.40737
0.821696
0
0.664392
0.641583
0.468315
0.551758
0.771825
0.342287
0.351712
0.360183
0.384839
0.978793
0
0.516536
2.31945
0.821983
0.798999
1.4624
0
0.793173
0
0.739909
0.33062
0.705498
0.869467
0.781756
0.655691
0.447355
0.745095
0
0.761719
0.183974
0.373164
0
0.553223
0.368332
0.20238
0
0.528517
0
0.477716
0.397208
0.60785
1.02995
1.18123
1.43305
1.22895
0.966237
0.654066
0.200937
0.963544
0
0.813674
0.584165
0.485851
0.743606
0.327682
0.334198
0
0.960459
0.376941
0.609745
0.616132
0.91178
0.714209
0.367741
0.892335
0
0
0.908783
1.26591
0.650563
0
0
0.47291
0
0.428462
0.791649
0.471508
1.16634
0.225865
0.7253
1.0165
0.789868
0.997438
0.724396
0
2.52815
0.540882
0.826004
0.112447
0.31851
0.469441
0.447563
0
0.650384
0
0
0.888761
0.272674
0
0.800557
0
0.836814
0.583062
0
0.889486
0.346814
0.868351
0
1.0242
0.834175
0.439731
0.515949
0
0.576669
0
0.528683
0
0.714382
0
0
0.4168
0.245659
0.683936
0
0.801627
1.13386
2.38816
0.971281
1.42499
1.15194
0.741782
0.731069
0
0
0
0.460093
0.978127
0.939317
0.708489
0.547226
0.126199
0.678699
0
0.824991
0.623433
0.342849
0.0910327
0.40815
0.598785
0.383466
0.511827
0.529181
0.395367
0.314659
0.796916
0.598816
0.834169
0.590374
0
0.268251
0.250963
0
1.8321
0.627091
0.594735
0
0
1.19845
0.847702
0.55189
0
0
1.01716
1.44824
0.406749
0.472931
0.745214
0.439419
0
0.293469
0.767329
0.679814
0
0.457379
0.450365
0
0
0.677022
0.799519
1.01346
0.124644
0.299761
0
1.15393
0.914503
0.46131
0.766375
0
0.598687
0
0
0.969238
1.06995
0.383329
0.462056
0.806852
1.53213
0.296419
1.97949
0.956598
0.600644
0.542712
0.529253
0.408511
0.477126
0
0.701536
0
0.513053
0.592071
0
0.728038
0.571812
0.678058
0.516641
0.46285
0
0.276407
0
0
1.21328
1.06304
0.0679068
0.826076
0.378371
0.490139
1.28737
1.16624
0.426161
0.903592
0.754925
0.746926
0.491152
0.871566
0.729336
0.843784
0.697415
0
0.671395
0.4455
0
0.882776
0
0.835066
0.39097
0.815275
0.948205
0.580193
1.25409
0.504068
1.30719
1.22713
0.780481
1.58713
1.37031
1.28459
0.649943
0
0
0
0
0
0.47082
0.283578
0.439162
0.657811
0.407376
0.837042
0.349885
0
0
0.600749
0.531054
0
0.420935
0
0.182986
1.69523
1.09927
0
0.528046
0.582956
0.83138
0.346917
1.2262
0.783338
0.71642
0
0.989115
0.560079
0.550761
0.628121
1.18345
0.842133
0
0.513438
0
0.388671
0.668529
0.550518
1.00109
0
0.426069
0
0
0.498059
0
1.15026
0.58883
0.571072
0.245376
0
0.731803
0.256672
0
0
0.598831
0.59608
0.561893
0.954791
2.42103
0.710823
0.78242
1.25917
1.52561
0
0.405422
0
0.486601
0
0.818399
0
0.654345
0.592507
0
0.95697
0.83124
0.600299
0
0
1.15809
0
0.359694
0.29909
1.01042
0.706412
0.392237
0
0.173208
1.03505
0
1.64403
1.79183
0
0.787582
0.694925
0
0.769544
0
0.38566
0
0.776363
0
0
1.06653
0.618154
0
2.31103
0.240264
0.568858
0.424896
0.355051
0.370192
0.372427
0.366361
0
0.686322
0.692459
0.418538
1.0549
0.377364
0.696888
0.434547
0.700191
0.916506
1.11217
0.713436
0.719774
0.1564
0.862032
0.439293
1.51647
0.292482
0.973642
0.775733
0.646505
1.83799
0.220572
0.673391
0.276124
0
0
0
0
0
0
0
0
0
0
0
0
0
0
0
0
0
0
0
0
0
0
0
0
0
0
0
0
0
0
0
0
0
0
0
0
0
0
0
0
0
0
0
0
0
0
0
0
0
0
0
0
0
0
0
0
0
0
0
0
0
0
0
0
0.337179
0.594023
0
0.3139
0.344983
0.801963
0.550438
1.56486
0.301512
0.499057
0
0.561393
0.523376
1.05162
0.451119
0.891315
0.354025
0.548845
1.31178
0.635124
0.464413
0.999702
0.567847
1.62789
0.427541
0.469504
0
0.339594
0.456012
1.7662
0.587442
1.15438
1.41894
0.412345
0
0.412204
0.210118
0
1.55553
1.34707
0.694398
0.946643
0
0.314133
0
0
0.240536
1.78545
1.57099
0.299496
0
0.980286
0.683763
0.902105
0.939933
0.504517
0.187315
1.05619
0
0.173424
1.30067
0
0.675193
0.798437
0.777976
0.395378
0
0.598215
0.77328
0.769279
0.402981
0.577935
0.604303
0.694087
0.983867
1.29356
0.58972
0.758729
0.733724
0.5189
0.532682
0.543095
0.280999
0.764278
0.519329
0.514537
0.775464
1.06772
1.45935
1.63138
0.599751
0.654876
0.962631
1.08469
1.23044
0.563676
0.778564
0
0.465229
0.563004
0
0
0
0.195846
0.698069
0
0.0312941
1.60048
0.570583
0
0
0.875447
0.739272
0
1.00103
0.972804
0.757541
0.911083
0
0.504509
0
0.636862
0.781023
0.16091
0
0
0.634366
0
0
0.668017
0
0.806023
0.640036
0.659523
0.728791
0.708717
0.420308
0.513528
0.761335
0
0.827539
0
0
0.889832
0
0.678047
0
1.47027
0.833438
0.841254
0.577182
0
0.423056
0.312711
0.742047
0.565506
0.391455
0
0.688415
0.363247
0.615768
0.447023
0.728638
0
0.363646
0.607536
0
0.488137
0.924548
0.416074
0.456898
0.217896
0.35815
0.251793
0.647871
0.176586
0.445992
1.00786
0.732444
0
0.551957
0.340698
0
0.459645
0
0.539119
0.809491
0.493411
1.01557
1.48177
0.768983
0.518376
0
0.781171
0.460042
0
0.399216
0.642446
0.455726
0.59652
0.711264
0.396258
0
0.55014
0.305076
0.810731
0
1.86153
0
0.428718
0.309418
0.751961
0
0.369073
0
0
0.902458
0.25274
2.03667
0
0.574117
0.462192
0.381785
0.559779
0.407023
0.807653
1.6118
1.28441
0
0
0.65195
0.801225
0.403949
0
0.754453
0
0.373076
0
0.548509
0.357857
0.713901
0
0.465545
0.813307
0.928464
0.525572
0.59374
0
0.385918
0.531213
0.705132
0.565429
0.7315
1.70615
0
0.428405
0.925941
0.577863
0.374301
0
0
0.574624
0.472465
0.480991
1.60847
0
0
0.291033
0.483937
0.137419
0
0
0.43531
1.17995
0
0.725697
0.428454
0
0.154143
0.652893
0
0
0.510103
0.399444
0.519393
0.532112
0.454938
0.548954
0.66057
1.26798
0.694193
0
0.916717
2.20769
0.534776
0.492492
1.32291
1.09337
0.955151
1.14013
0.445352
0
0.624104
0
0
0.687943
0
0.674119
0
0
0.0820321
0.794566
0.58161
0.323027
0.599923
0.745575
0.82526
0.659372
0.759706
0
0
0.581833
0.653962
0.270235
0.671256
0.930881
0.555741
1.41866
0.964233
0.488143
0
0.522227
0
0
0.513953
0.800173
0
0
1.01438
1.42207
0
0.806285
3.49715
0
0.982605
0.76495
0.696741
0.526696
0
0
0.73125
0.582332
0.339988
0.592988
0.46504
0
0.426683
0
0
0.790989
0.196742
0.972165
0.997544
0
0.633726
0.658521
1.06074
0.916913
0.424393
1.04315
0
1.55271
0.84037
1.32464
1.41725
0.56949
0.87981
0
0.459821
0
0.584941
0.781887
0.803809
0.869389
0.694873
1.28656
0.473148
0
1.08867
1.82324
0.849031
0.789915
0.107434
0.360232
0
0.477768
1.06948
0.243365
0.118527
0
0.579345
0
0.599685
1.8766
0.512548
0
0.506279
0.674882
0.903654
0.430238
0.926227
0
0.560334
1.05078
1.89592
0.507879
0
0
0.510693
0.739206
0.559755
1.57615
0.664445
1.03466
0.640127
0.191036
0.465643
0.545805
0.312794
0.553234
0
0.877402
0
0.530075
1.00845
0.991098
0.631096
1.66364
1.1035
0.489229
0.73653
1.2977
0.417815
0.403973
0
1.3047
0.879355
0
0.870318
0
0.695604
0
0.790697
0.379116
0.467452
0
0.217521
0
0.627762
0
0
0.385114
0
0.809405
0
0.524541
0
0.894325
1.08812
0.606628
0.423188
0
0.660015
0.725245
0.942787
0.548996
1.58494
0.808194
0
0.267169
0
1.35505
0.816053
0.507187
0.616034
0
0.390099
0
1.11411
0
0.583277
0
0.451408
1.09218
1.00243
0.450172
0
0.373249
0.753387
0.426067
0
0.176413
0
0.534646
0.971466
0.792449
0.363253
0.294891
1.01117
0.589339
0
0
0.614016
0
0.30132
0.38821
0.244652
0.385218
0.606531
0.232724
0
0.361838
0.315191
0.61711
0.249094
0
0
0.49674
0
0.952673
0
0.156091
0.564596
1.18264
0
0.628571
0
0
0.858786
0.732248
0.796614
0.953423
1.22922
0.750929
1.14698
1.26474
1.25314
0
0.681935
0.518882
0.985627
0
0.761366
0.0759364
0.801202
0.436946
0.641341
0.69544
0
0.370654
0
0.0705546
0
1.06071
0
0.112681
0.454364
0
0
0.692131
0.823699
0.885705
0.443717
0.443276
0
0.462898
0.596389
0.779407
0.653279
0
0.372023
0
0.77329
0
0.261093
0
0.448114
0
0.98542
0.636003
0
0.0714529
0.360805
0.912361
0.929825
0.197149
0
0.418801
0.322585
0.531374
0.937299
0
0
0.953501
0.580872
0.65459
0
1.01371
0
0
0
0
0
0.685354
0.558305
0.288426
0.276697
0
0.904673
1.08492
0.489413
1.25911
1.45976
1.66317
0.893438
0.490086
0.852743
1.55704
0.406447
0
1.13697
0
0
1.03485
0.859111
0.631125
0.193323
0.483461
0.859905
0.637798
0.688672
1.27792
0.648434
0.31576
1.08632
0.484049
0.899249
0.350826
0
1.35995
0.788954
0.824598
0.861935
0.334902
0.291183
0
1.15069
0.762917
0.405266
0.715703
0.952079
0.854587
1.40401
0.995184
0.389599
0
0
0.954986
0.358948
0.640421
0
0.896679
0.320799
0.613707
0
0
0.987831
0.817088
0.708617
1.07061
0.586872
0
0.788518
0.283284
0.568226
0.732848
1.51409
0.394273
1.19931
0
0.731859
0
0.867394
1.20587
0
0
0
0.741621
0.837966
0
0.518858
0
0.469298
0.834877
0.450832
0.348076
0.598554
0.918226
0.418577
0.667367
0.70927
0.39927
0.80276
0.744703
1.32562
0.770798
0.736594
0
0.844859
0.452384
1.29173
1.11387
1.22517
0.738897
0.715881
0.871494
0.744362
1.83192
0.475113
0
0.727122
0.927041
0.758535
0.65529
0.467033
0
0.598045
0.492325
1.68387
1.21309
0
0
1.05889
0.845847
0.494119
0
0.461379
0.0793818
0.513282
1.3841
0.606329
0
0
0.514672
0
0
0.668325
1.23906
1.15143
0.676132
0.499265
0.666744
0.495085
0.443271
0.688125
0
0.994095
0.531223
0
0
0.188649
0.284742
1.18058
0.871951
0.73246
0.381346
0
0.376489
0.410697
1.75439
0.612924
1.53996
0.584493
0.43541
0
0.583238
0
0
0
1.89069
0.574895
0.291092
0.585214
1.43391
0.474218
0.470475
0
1.15855
0.447625
0
0.290975
0.670146
0.381775
0.964046
0
0.815061
1.78691
0
0
0.611789
1.55831
1.01731
0
1.16036
0.66528
0.427644
0.724148
0.512352
0.747459
0
0.500438
0
0.818461
0
0.101767
0.874768
0.368697
0
1.36783
0.904868
0.252623
0.970763
0.557586
0.553608
0.562046
0
0.382832
0.720935
0.824116
0.236549
0.453482
0.404023
0.512685
0.414425
0.648727
0.702654
1.43128
0.41767
0
1.10809
1.04694
0
0
0.897762
0.373705
0
0.406581
0.698758
0.484706
0.265441
0
0
0.469748
0
0.0667479
0.570459
0.0499782
0
0.678912
0.490188
0.685113
0.642068
0.432227
0.540961
0.24394
0.779265
0.417016
0
0
1.43737
0
0
0.994167
0.466063
0.571856
0.578913
0.401827
0
1.19172
0
1.68044
0
0.373945
1.01067
0.484455
0.501419
1.48185
0
0.472568
0
0.888629
0
0
0.292646
0.65959
0
0.625101
0.370923
1.83847
0.700972
0
0.912956
0.493926
1.01279
1.42963
0
0
0.255011
0.876554
0.234076
0
1.64679
1.38025
1.05436
0.466711
0
0.715891
0
0.416952
0
0.62475
0.500004
0.641639
1.49706
0.485653
0.46147
0
0.118022
0.329725
0.876719
0.5152
0.840159
0.68797
0.731876
0.814461
1.17798
0.912003
0.114106
0
0
0.646709
1.57015
0.847746
0
0.537706
0
0.547503
0.603881
0.573284
0
0
0
0
0
0
0
0
0
0
0
0
0
0
0
0
0
0
0
0
0
0
0
0
0
0
0
0
0
0
0
0
0
0
0
0
0
0
0
0
0
0
0
0
0
0
0
0
0
0
0
0
0
0
0
0
0
0
0
0
0
0
0
0
0
1.00543
0
0
0
0
0
0.375609
2.04992
2.09707
0
0
0
0.824826
0
1.20993
1.15723
1.23448
0
0
1.361
0
0
1.26351
0.609933
1.17236
0
0
2.36442
1.07378
0
0
0
0
0
0
0
0
0
0
0
0
0.132538
0
0
0.563083
0
0
0
0
0
0
0
0
0
0
0
0
0
0
0
0.44856
0
0
0
0
0
0.756573
0.575308
0.564484
0.580738
1.06603
0.935909
0.544349
1.8737
0
1.10498
1.07721
0
0.759882
0.407839
0.976536
0.856112
0.577673
0.51126
0.85927
0.108901
0
1.47487
0.719464
1.0277
0.816298
0
0
0.553651
0.755872
0
0.950642
0.504367
1.53533
1.0348
0.501202
0
0.486887
1.03828
0.716913
0.962905
0.726984
0.482054
0
0.712101
0
0.70717
0
1.03658
0.521686
0
0
0.538865
0
0.441851
0
1.87983
0.475811
1.01949
0.665323
0.868913
0
0
0.529905
1.02251
0.87672
0.486337
0.915045
0
0.60266
0.78399
0.728085
0.784063
0
0.705867
0.622227
0.522124
0
0.979617
0.671541
0.646316
0.329845
0.729929
0.583168
0
0.528866
0.459205
0.673562
0.488413
0.47646
0.681966
0.647281
0.586843
0.760995
0
0.804193
0
0
0.557848
0.277908
0
0.579349
0.45998
0
0
0.619417
0.198563
0.32819
0.406986
0.979444
0.595078
0.388591
1.04747
0.543272
0.622531
0
1.26614
1.00489
0.632071
0.738484
0.573978
0
0.592981
0.587478
0.980308
1.16089
0.304256
0
0.295375
0.81414
0.537662
0.537318
0
0
0
0
0
0.924362
0
0
0.628599
0.738322
1.19529
1.14841
0.617911
0.406131
0.579768
0.207721
0.507195
0
0.516025
0
0.54633
1.15303
0.574547
1.30569
0
0.504585
0
0
0
0.219643
0.633117
0.859967
0.366625
0
1.65509
1.02575
0
1.35344
0
0
0.352222
0
0.316081
0.706722
0.2065
0.99173
1.14318
0
0.287338
0.532451
0
0
0.327603
0.729051
0
0
0.413829
0.108387
0
0.44309
0.438875
0.612144
0.216469
0.609264
0
0.746198
0.524288
1.17177
1.05967
0.511721
0.601993
0
0.232591
0.690195
0
0.740673
0.553449
0.447904
0.626686
0
0.35596
0
0.430033
0.289206
0
1.13111
0.494693
0.496138
0.543399
1.04384
1.46414
0
0
0.86005
0
0.688633
0.525711
0.679804
0
1.0046
0.956328
0
0.244374
0
1.18995
0
0.58616
0
0
0.835009
0.779867
0.786468
0.582283
0
0.707719
0.259039
0
1.1888
0.438819
0.716186
0.603976
0.885081
0
0.794113
0.890562
0.555272
0.390874
0.667761
0
1.06371
0.755518
0.67007
0.694014
0
0.538427
0
0.806041
0
0.56172
0
0.657852
0
0.715341
0.673511
0.645721
0.731867
0.942562
0.491158
0.919863
0
0.350524
0.869437
0.481975
0.602589
1.23298
0.718274
0.888595
0
0
1.1326
0.727267
0.646962
0.423659
0.188799
0.778183
0
0.928689
0.685006
0.0993709
0
0.810936
0
0.773414
1.17417
1.41916
1.64226
0.849338
0.902474
0.914349
0.516328
0
0.396064
0
0
0.872593
0.740132
0.763696
0.394902
0.704629
0.746591
0.804725
1.07064
0.728057
0.453621
0.711875
0.309147
0.559737
0.509137
0
1.13562
0
0.148162
0
0
0.594449
0.300421
2.59135
0.711592
2.7045
0
0.780703
0.916287
0.507568
0.628676
0
0.390582
0
0.0725942
1.06168
0.799183
1.43214
0.934942
0
0
0.853364
0.963214
0.50513
0.324779
0.219983
0
0.362404
0.636271
0.687903
0.352282
1.29518
0.939424
0.411552
0.351541
0.96126
0.807777
0.85386
0.686616
0.760875
0.678001
0
0.372402
0.885215
0.665027
0.620802
1.52666
1.73998
0.254241
0.841367
1.21854
0.273542
0.359978
0.460454
0
0
0.620936
0.31122
0.504645
0.240906
1.11554
0.822455
0
0.422747
0.888964
1.59203
0.902331
0.634948
0.195574
0.733436
0.260482
0.440791
0
0.634619
0
0.565796
0.444215
0.46717
0.663205
0.389521
0
0.748701
0
1.01358
0.775921
0.711
0
0
0.389
0
0.442199
0
0.494103
0.524595
0.544391
0.613165
1.08937
0.962246
1.43091
0.625979
0.714625
0.777619
0.711417
0.515329
0
0
0.223358
0.545048
0
0.477113
0
0.607068
0
0.473739
0.298594
0
0
0
0.337277
0.521923
0
0.313028
0.486867
0.646204
0
0
0.432509
0
0.372826
0.714905
0.417307
0.379148
0.297849
0
0.345012
0.693249
0.581693
0.5726
0.778087
0
1.25816
1.10664
0.712296
0.454778
0.567675
0
0.888479
0
0.675398
0.805783
0
0.683756
0.579644
1.18062
3.13675
0
0.343723
0
0.385534
0
0.577078
0
0.410002
0.42901
0.985124
0
0.408411
0
0.731434
0
0.733516
0
0.830471
1.41765
0.597469
0
0.961198
1.03079
0
0.586907
0.25613
0
0.462229
0
0.484755
0.442713
0.287831
0.721003
0.568383
1.52959
1.0649
0.758735
0.39978
0.152921
0.918882
0
0
0.943449
0.637721
0.432197
0.528815
1.70789
0.402598
1.45468
0
1.14865
0.546144
0.567486
0.790192
0
0.995189
1.10036
0.941467
0.732835
0.065537
0.641966
0.475578
0
0.520733
0.654378
0.167623
0.535893
0.403122
0.542866
0
0
0.531342
0.534549
0.539632
0
0.821818
1.70429
1.25642
0.300332
0
1.63018
0
1.07707
0.547308
0
0
0.576178
0.797821
0.770032
0.780125
0.578186
0
0.447052
1.79794
0.727033
0.410082
0.836781
0
0.574454
0.503013
1.2203
0.48955
1.09127
0.718961
0.989759
0
0.744014
0.709174
0.652319
0.570379
0
0.301796
0.77795
0.496108
0.376644
0.610332
0.393724
0.0960489
0.327319
0.504914
0.668794
0
0.54265
0
0.750885
1.33147
1.23705
0
0.291322
0.389643
0.512783
0.190777
0.234991
1.67794
0
0.494246
0
0.676817
0.480501
0.560741
0.662417
0.518063
0
0.74544
0
0.739848
0
0.362435
0
0
0.76533
0.476835
0.419152
1.48632
0.512705
0
0.619471
0.699276
1.0933
1.161
0.678071
1.5514
1.48922
0.54965
0.666569
0.25189
1.0111
0.632476
0.373745
0.822375
0.615461
0.480512
0.203867
0.616406
1.01087
0.901704
0.53841
0
1.04264
0
0.777138
0.989407
0
0.831532
0.807286
0.695953
1.05556
0.864956
1.18057
0.92204
0.364676
0
0
1.09184
0
0.298028
0.233728
0.600716
1.24352
0.265633
0.572187
0.538411
1.40828
0.953946
0.384595
0.546038
0.183069
0.999616
0
2.14662
0
0.3711
0
0
0.805773
1.17507
0.999938
0.793946
0
0.840344
0.340174
0.365208
0.469748
0.548563
0
0.52245
0.9001
1.12628
1.39101
0.785585
1.00648
0
0.95071
0.459379
1.18859
0
0.615404
0.540788
0
0.512648
1.30247
0
0.424599
0
0.54499
0.573752
0.661675
0.692243
0.510834
0.892832
0.665943
1.71417
0.826348
1.08763
0
0.571698
0.757929
0
0.735844
1.92924
0.554573
0.668891
0.38665
0.452762
0.438353
0
0
0.30445
0.614525
0.442094
0.386385
0.579645
0.113494
1.27786
1.08974
0.733423
0.431012
0.722212
0.445149
0.621871
0.951514
0.590794
0.646497
0
0.93912
0.427228
0.368458
0
0.343984
0.350011
0.555076
1.67239
0.693405
0.698567
0.629966
0.476976
0
1.12167
0.920979
0
0.551983
1.49524
0
0.506106
0.518671
0.655428
0.879881
0.500136
0.373066
0
0.407686
0.788283
0.694434
0.592601
0.523097
0.542336
0
0
0.924227
0.492126
0.368467
1.15772
0.848895
0
0.328272
1.4011
0.932136
1.70173
0
0.405225
0
0.719173
0
1.14038
0.297476
0.777097
1.82102
0.560464
0.708782
0
0.74515
0.747257
0
0
0.782343
0.183063
0.525189
1.04257
0.631921
0.52928
0.10082
0.384425
0
1.53802
0
0
0.595475
1.91545
1.71092
0.680124
0
0.693121
0
0.697098
0.249281
0.404886
0.368335
0
1.16964
0.489997
0
0.723133
0
0
0.331176
0.141547
0.319966
0.945237
0.373131
0.451176
0.351782
0.56086
0.628577
1.55569
0.760946
0.561179
1.10954
0
1.568
0.562707
1.07142
0.421483
0.679734
0.877518
0.519712
0.959632
0
0.53453
0.82639
0.498453
0.854706
0.690276
0.333432
0
0.59962
0
0
0
0
0
0
0
0
0
0
0
0
0
0
0
0
0
0
0
0
0
0
0
0
0
0
0
0
0
0
0
0
0
0
0
0
0
0
0
0
0
0
0
0
0
0
0
0
0
0
0
0
0
0
0
0
0
0
0
0
0
0
0
0
0.26706
0.554751
0
0.442011
0.525297
0
0.5998
1.65852
0.455507
0.460735
2.18803
0.501441
0.463615
0
0.484691
1.53722
0.318675
0.607075
2.12512
0.703597
0.47825
0
0.63392
1.53464
0.559081
0.313773
0
0.428291
0.510969
0.962488
0.535633
1.08935
0.240689
0.655975
0.0755759
0.359654
1.33152
0
0.616238
2.1497
1.33901
0.518674
0
0.947567
0.596218
0
1.38473
0.501364
0.177249
1.30649
0
0.180039
0.807982
0
0.158082
0.759698
1.00822
0.287384
0
1.89347
0.755513
0
1.19162
0.958722
0.355668
0.446591
0.875351
0.765705
0.836003
0.728004
0
1.05854
0
0.37955
0.42162
0.52285
1.15406
0.852632
0.93073
1.23822
0.712477
1.14138
2.49568
0.542806
0.478401
0.278953
0
0.908458
1.49607
1.01351
0
0.748233
0.57422
0
0.471761
0
0
0.565254
0.887577
0
0.692702
0
0
0.456066
1.15678
0.270371
0.158619
0.629598
1.58278
0
0.484213
1.00449
0
0
0
0.623247
0.906424
0.806802
0
0.562764
0.683629
0
0
1.05255
0.787791
0
0.394474
0.512684
0
0
0.652282
0
0.942025
0.907039
0.911435
0.535277
0
0.635098
0
0.934659
0.460692
0.508203
0
0.57703
0.685362
0.565998
0
0.377347
0
1.02893
0.983237
0.605992
0
0
0.716902
0.457895
0.363302
0
0.621193
1.06259
0
0.71174
0.992198
0
0
0.532838
0
0.828964
0
0.834881
1.15419
0.532529
0.658692
0
0.842136
0.497849
0.78341
0.895591
0.531413
0
0.381942
0
0.484472
0.532085
1.36284
0.731575
0.505916
0.449001
0
0.226683
0.476873
0.587034
0.302352
1.2138
0
0
0.104324
0.612864
0.537638
0.502615
0.610017
0.656683
0.537279
0.678875
0.317582
0
0.623063
0.528346
0
0.413834
0.48551
0.559936
0.907273
0.521581
0
0.219095
0
0.454718
0.341343
0.555355
0.477019
0.213036
0.331654
0.398154
0.562723
0.442038
0.860368
1.09997
0
0
0.592805
0.698902
0.312183
0
0
0.614244
0.426812
0.786188
0.310254
0.459192
0.319621
0
0.451019
0.362336
0.950743
0.945337
1.07405
0.20044
1.16884
0.29688
0
0.714469
0.829671
0.641482
1.51379
0.799095
0.31177
0.48641
0.567622
0.620843
0.880081
0.514375
0.642619
0.879137
1.11894
0.507573
0.854545
0
0.428887
0
0
0.467768
1.03416
0.648993
0
0.787373
0.667388
0
1.05597
0.520053
0.369615
0.412788
0
0
0.648
0.701768
0.31617
0.879293
0.753284
0
1.21828
0.411091
0.703667
0
0.383832
0.149617
0.331982
0
1.0965
0.487609
1.18554
0.613605
0
0
0
0.415309
1.79965
1.11909
0.457593
0.366855
0.217134
0.421719
0
0.487506
0
0.760366
0.701631
0.585146
0.993165
0.416989
0
0.659859
1.51075
1.14078
0.584559
0.577435
0.878588
0
0.350705
0.27841
0.8402
0.926516
0
0.725627
0
0.407964
0
2.13518
0.385567
0.473463
0.64588
0.398548
0.792514
0.518923
0.786745
0.589199
0.263553
0.540618
0.879248
0.47661
0.355619
0.863173
0.416874
0.548248
0.799875
1.08507
0
1.1532
1.29014
0.476381
0
0.526464
0.872606
0.799665
0.570478
0.492899
0.660024
0.593811
0.566732
0.849704
0.746915
0.54923
1.03503
0.792812
0.433739
0
0
0.423848
0.538638
0.804414
0.386154
1.22381
1.07399
0.468084
0.248178
0.776685
0.224614
0.719694
1.4156
1.36832
0.559046
0
0.347672
0.41774
1.3144
0.66678
0.662272
0.696668
0
0.568496
1.15334
0
0.38271
1.19249
0.509726
0.490657
0
1.05031
1.13661
0.338942
0.570698
1.04659
0
0.466962
0.5049
0.41315
0
1.41826
0.591931
0.512872
0.777163
1.60726
1.80663
0
0.628929
0
0.487905
0.942252
0.434439
0.999231
0.752512
0.855103
0.680338
0.802279
0.199444
0.748797
0.548015
0
0.25002
0.604983
0.350789
0
0.702265
0
0.504022
1.21777
0.888249
0
0.556845
0.99172
1.39216
0
1.63479
0.741509
0.664233
1.03291
0
0.402761
0.753158
0.306843
0.31036
0.22857
0.517144
0.206176
0.774852
0
0.711503
0.718484
0
0.507376
0
0
0.63901
0
0
0.479758
0.667618
0.941636
0
0.748782
0
0.379961
0.767481
0.475044
0
1.15161
0.582303
0.875773
0.345252
0.396264
0.414473
0.382943
1.01957
2.22787
0.677416
1.04103
0.681366
0
0.763505
0.546255
0
0
0.500566
0.366395
0.451598
0.463585
0
0.392904
0.639237
0.445719
0
0
0.301087
0
0
0.649631
0.463924
0.549841
0.385898
0.466521
0
0.435868
0.843385
0.379703
0.396985
0
0.41197
0
0.580838
0
0.77651
0.316336
0
0.283953
1.81272
0.0639666
0
0.626959
0.865907
0
0.600655
0.705901
0.226109
0.315893
0.462983
0.921782
0.522695
0.874001
0
0.902217
0
0.619052
0.972871
0.810354
0.604511
0.302136
0.449001
0.367949
0
0
0.427818
0
0.190869
0.415119
0
1.20378
0.610969
0.276497
0.597595
0
1.02978
0
0
0.383005
0.740394
0.740045
0.612954
0
0.776297
0.749514
0.529761
0.438772
0.539787
0.947328
0.488065
0.863326
0.728791
1.11676
0
0
0.626951
0.635952
0.709442
0
0.782412
0
0.593852
0
1.18972
0.249061
0
0.646828
0.699746
0.644905
0.741518
0
0.681172
0.427547
0
0.823231
0
0
0.49262
0.592519
0.57282
0.597056
0
0
0.534076
0.827781
0.75825
0
0.30246
0
0.860715
0.928686
0.49496
0.278184
0.796168
0.528232
1.65939
0.658053
0.278041
0
0
0.600577
0.671195
0.920835
0.71355
0.343542
0.627054
0.759319
0.00636915
0.545612
0
0.430968
0
1.26776
0.496182
0.586814
0.591324
0
0.823405
0.727635
0.580067
1.5203
0.659786
1.4878
0.535611
0
0
0.532983
1.01523
1.04349
0.708032
0.677901
0
0
0.588872
0.814826
1.08183
0.713567
0.813499
1.14457
1.48291
0.200785
0
0
0
0.928911
0
0.523486
0
0.301446
0.530528
0.847206
0.876292
0.640832
0.673852
1.29881
0.911682
0.967905
0.494033
0.684446
0
0
0.964084
0
0
0.722834
1.01959
0.866358
0.616602
0.850048
0.520747
0.373683
0
0.380661
0.132542
0.975042
0
0.812607
0.58194
0.646874
0.414068
0.843412
0.86683
0.59404
0
0.540507
0.677137
1.02499
0
1.03692
0
0
0.432791
0.829969
0
1.35775
0.631237
0.722679
0.49299
0
0.538734
0.817736
1.01094
1.44672
0.600807
0
1.45894
1.26275
0.568482
1.35942
0
0.727418
0.802618
0.780863
0.136443
0
0.416868
0
0
0.552771
0.493421
0.86735
0.846133
0.926279
0
1.18157
0
0.566032
0
0
0.822781
0
0.520176
0
0.43491
0.452414
0.792779
0
0.951683
0.326735
0.434628
0.465687
0.605178
0.71833
0.307527
0.423414
0.305816
0.896905
0.507304
0.810607
0.352007
0
0
1.20986
0
0
0.483736
0.623865
0
0.7049
0.299618
1.11197
1.44712
0
0
0.331752
0.795091
0.948908
0
0
0
1.1051
0.753243
0.989826
1.39129
0.560403
0
0.48027
1.09824
0
1.1843
1.3013
0.699291
0.66386
1.11529
1.59687
0.380913
0
0.734845
0
1.14573
0.576181
1.18722
0
0.887413
0.847994
1.03945
1.46863
0.559326
0
0.796174
0.483235
0
0.263387
0
0.827643
0
0.438679
0.480323
0.516336
0.572472
0.544237
0.66815
0.460197
0
0.704402
0.604683
0.948306
0.519547
1.08813
1.37819
0
0
0.267549
0
0
0
0
0.877345
1.23501
0.954576
0.778359
0
0.720146
1.18729
0.600074
0.652883
0.60879
0
0.430178
0.62025
0.704552
0.223619
0
0.911499
0.475674
0.444062
0.712386
1.11972
0
0.39524
0.323501
0.23348
0.669018
0.612219
0.41942
0.595142
1.21001
0
2.40543
0.812282
0
0.636432
0.32615
0.702375
0.503581
0
0
0.42012
0.992601
0.436958
0.711721
0
0.568411
0.806425
0.513996
0.469265
0.824674
0.902007
0
0.235487
0
0
1.61841
0
0.634713
0.550539
0.729284
0.290247
0.602597
0.677214
1.2741
0.455534
0.750692
1.13664
0.266571
0
0.501381
0.872356
0
0.645803
0.45129
0.458036
0
0.625151
0.406455
0
1.09583
0.826572
0.978743
0.835167
0.796499
0.405614
0.345193
0
0.740091
0.759162
1.3379
0.697131
0
0
0.55495
0.293037
2.00187
0.967522
0.933701
0
0
0
0
0
0
0
0
0
0
0
0
0
0
0
0
0
0
0
0
0
0
0
0
0
0
0
0
0
0
0
0
0
0
0
0
0
0
0
0
0
0
0
0
0
0
0
0
0
0
0
0
0
0
0
0
0
0
0
0
0
0
0
0
0.375893
0.445607
0
0.367409
0.736407
0.559127
0.363474
1.57342
0.55205
0.357674
1.41264
0.59694
0.599034
0
0.770437
1.49551
0.217962
0.686457
0.364028
0.401066
0.602434
0.529341
0.524998
0.820473
0.281847
0.594437
0
0.338321
0.576922
3.03428
0.427471
0.675101
0.908093
0.383241
0.978375
0.731688
0.180924
0
0.69351
0.334057
0.121754
1.07175
0
0.299219
0.992831
0
0.195773
1.30431
0.994186
0.598624
0.843774
1.29945
0.257268
0
0.72013
0.467249
0.207087
1.48035
0.596546
0.461677
2.34575
1.79554
0.229843
0
0.1634
0.645862
1.31346
0.835647
0
0
0.198649
0
0.485328
0.704939
0.183327
0
1.51793
0.658813
0.933432
1.01023
0.584748
0
0.584029
0.465097
0.769862
0.138795
0.65196
0
0.685084
0.458578
0.762619
0.473935
0.456863
0.457665
0.650421
0.72285
0.470153
0
0.302395
0.517724
0.419208
1.14398
0.461041
0.828702
0.516201
2.95508
0.640047
0.840476
0
0.354738
0
0
0.701031
0.53183
0.267861
0
0.603893
0.522767
0.371897
0.532163
0
0.926557
0
1.01614
1.00804
0.72362
0
0
0.619185
0.650225
0.450895
0.364499
0.849221
0.498452
0.983579
0.336038
0
0
0.468142
0.542142
0.595201
1.23106
0.477437
0.406831
0.365587
0.614727
0.63533
0.336185
0.714631