<?xml version="1.0"?>
<VTKFile type="RectilinearGrid">
<RectilinearGrid WholeExtent="0 32 0 32 0 32" Origin="0 0 0" Spacing="1 1 1">
<Piece Extent="0 32 0 32 0 32">
<PointData>
</PointData>
<Coordinates>
<DataArray type="Float32" format="ascii">
0 0.524874 1.04975 1.57462 2.0995 2.62437 3.14924 3.67412 4.19899 4.72386 5.24874 5.77361 6.29849 6.82336 7.34823 7.87311 8.39798 8.92285 9.44773 9.9726 10.4975 11.0224 11.5472 12.0721 12.597 13.1218 13.6467 14.1716 14.6965 15.2213 15.7462 16.2711 16.796 
</DataArray>
<DataArray type="Float32" format="ascii">
-5.03879 -3.62163 -2.20447 -0.787311 0.629849 2.04701 3.46417 4.88133 6.29849 7.71565 9.1328 10.55 11.9671 13.3843 14.8014 16.2186 17.6358 19.0529 20.4701 21.8872 23.3044 24.7216 26.1387 27.5559 28.973 30.3902 31.8074 33.2245 34.6417 36.0588 37.476 38.8931 40.3103 
</DataArray>
<DataArray type="Float32" format="ascii">
0 0.524874 1.04975 1.57462 2.0995 2.62437 3.14924 3.67412 4.19899 4.72386 5.24874 5.77361 6.29849 6.82336 7.34823 7.87311 8.39798 8.92285 9.44773 9.9726 10.4975 11.0224 11.5472 12.0721 12.597 13.1218 13.6467 14.1716 14.6965 15.2213 15.7462 16.2711 16.796 
</DataArray>
</Coordinates>
<CellData>
<DataArray type="Float32" Name="Scalar" format="ascii">
0
0
0
0
0
0
0
0
0
0
0
0
0
0
0
0
0
0
0
0
0
0
0
0
0
0
0
0
0
0
0
0
0
0
0
0
0
0
0
0
0
0
0
0
0
0
0
0
0
0
0
0
0
0
0
0
0
0
0
0
0
0
0
0
0.0895038
0.352959
0
0.365257
0.263524
0
0.308018
0.761829
0.12895
0.210464
0
0.22822
0.399789
1.3645
0.194921
1.3609
0.185728
0.387427
0
0.369081
0.293824
0
0.334138
1.41111
0.108866
0.224816
0
0.295641
0.301956
0
0.368218
0.843895
0.0896406
0
0
0.0686418
0.830024
0
0.0456708
1.63775
2.16861
0.418631
0
0
0.169216
0
1.85794
0.533472
0.133606
0.466235
0
0.356183
0.280069
0
0.0934244
0
0
0.224153
0
1.08334
0.0607161
0
2.217
0.353099
0.415804
0.703315
0
0
0.785901
0
0
1.21444
1.26692
0
0.272618
0
0
1.60324
0.678164
0.622516
1.61178
0.656365
0
0.777261
0.442933
0
0
0
0.961856
0
0.656779
0.787621
0.512318
0.43296
0.548219
0.278366
0.901008
0.60949
0
1.13074
0
0.958756
0.535511
0
0
0
0.934072
0.689804
0.948422
0.92585
1.45096
0.902389
0.619892
1.17541
0.759709
0.69796
0.588878
0.247145
0.383979
0.747376
0.674771
2.9843
0
0.648814
0.681167
0
0
0
0.708281
0.535428
0
0.526971
0
0.352152
0.737184
0
0.436868
0.752505
0.418259
0.224336
0.587463
1.13597
0.640609
0.419051
0.815769
1.08888
0.825993
0.30036
0.686602
0
0
0.436776
0
0.381399
0
0.919727
0.535839
0.297446
0.341878
0.913828
0
0.501533
0.57723
0.579146
0.541141
0
0.628912
0.591611
0.402784
0.993375
0.37045
0.473522
0
1.10564
0.493914
0
0
0
0.395258
0.483677
0.460029
0.699895
0.723124
1.5269
0
0.163193
0
0.356676
0.212956
0.300025
1.40655
0.421665
0.732596
0.862655
1.2114
0.377748
0
0.518219
0
0
0.696029
0.545466
0
0
0
0.468263
0.662654
0.751396
0.687171
0.769573
0
0.769224
0.83665
0.70684
0
0.120659
0.649398
0.511294
0.747862
0
0.500257
0.644179
0.733607
0.569142
0
0
0.504089
0.45529
0.843918
0.858178
0.508616
0.531779
0.570251
0.294106
0.708325
0.847104
0.359426
0.52069
0
0.438261
0.633507
0.543426
0
1.0469
0.645477
0
0.370192
0
0.787773
0
0.377181
0
0.285222
0.761158
0
0.689813
0
0.202702
0.233676
1.03597
0
0
0
0
0
0
0.65091
0.339865
0.205887
0.81529
0.264444
0.27086
0
0.853612
1.41744
0.491611
0.464176
0.650785
0.663954
0
0.618297
0.644148
0
1.50928
1.31498
0.477869
0.718578
0.764415
0
1.00605
0
0.790585
0.665426
0.499753
0.800761
1.20834
0.774903
0.715271
0.200489
0.478264
0.361723
0
0
0
0.426775
0.590746
0.71223
0
0.280517
0.430214
0.539801
0.491099
0.678266
1.3256
0.766393
0
1.17707
0
0.593678
0.658212
0.252032
0
0
0.330416
0
0
0.314976
1.91348
0.713473
0
0.701675
1.1626
0
0.53043
0.444102
0.654707
0.369661
0.110951
0.887516
0.425932
0
1.13262
1.38697
0
1.02849
0
0.54624
0
0.606399
0.50875
0.732063
0
1.09561
0.523314
0
0.39091
0.330783
0
0.626936
0.283706
0.416056
0
0.727531
0.556959
0.905652
1.17368
0.671053
0
0.522798
1.21855
0.618779
1.10873
0
1.81606
0.998123
0.989946
0.377692
0.23185
1.85842
1.00733
0.676282
0.419374
0.744795
0
0.772855
0.556901
0.385675
0
0
0
0.251573
0
0.643976
0.603371
1.61222
0.502304
0.958686
0.496702
0
0.00672813
0
0.962376
0.245254
0
0
0
0
0.620971
0
0.203644
0
0.780244
1.03125
0.746741
0.355872
0.844906
1.01604
1.04524
0.80006
0
0.534609
0.451922
0.895409
0
0.486406
0.387388
0.706344
0.417966
0.144524
0.465344
0.518209
0.446422
0
0.395403
0
0.79878
0.761281
1.06436
0.620741
0
0.415009
0
0.369172
0.726314
0.957777
0.399087
0
0.630923
0.495409
0.514227
0.70054
0.328304
0.540534
1.26393
0.562494
0
0.735191
0.592949
0.570194
0.595309
0.236874
0
0.240887
1.04433
2.36698
2.03439
0.426123
0.162232
1.10125
0.660477
0.801025
0
0.580438
0.935151
0
0.518844
0.373748
0.491897
0.274163
0
0.329435
0.597587
0.722488
0
0.66015
0
0.777658
0
0.593918
0.381094
0.233257
0.747023
1.74463
0.396579
0.280252
0.616411
0.496591
0.680061
1.61781
0.856745
0.354451
0.475945
0.501842
0
0
0.592952
0
0.34107
0.724986
0
0.263625
0
0.484192
0.59926
0
0.430041
0
0
0.444927
0.510094
0.408927
0.607999
0.532238
0.804966
0.794711
1.44527
1.19867
0
1.25058
0
0.50405
0.465108
0.468154
0.346013
0.157216
1.39774
0
0.49846
0.59902
0.280703
0.52262
0
0.792675
0
0
0
0.730949
0
0.402104
0
0.431057
0
0.695198
0
1.03549
1.09308
1.13457
0.961311
0.267759
0
2.36336
0.40772
2.19833
1.23152
0.438122
0.78327
0
1.17405
0.511553
0.712347
0.446777
0.777509
0.842754
1.49625
0.504373
0.456362
0.97975
0
0.532888
0.276967
0.393659
0.523836
0.584202
0.161601
0.748439
0.534701
0.965914
1.29052
0.537365
0.630255
0.91458
0
0.603942
0
0
0.971159
0.850094
0.986353
0.32586
0.76079
1.00236
0.541111
0.490401
1.72675
0.410508
0.287179
0.633828
0.411199
0.201011
0.851292
1.10255
0.781234
3.11751
0.506519
1.89726
0
0
0
0
0.569977
0
0
1.2109
0.589942
0.35571
0.44844
0.136449
0.489573
0
0.630405
0.759694
1.03879
0
0.204117
0.86341
0.981609
0.7014
0.923025
1.06836
0.590083
0
0.2688
0
0.934056
0.753242
0
0.873377
0.914805
0
1.20163
0.686463
0.675143
0.377257
0.674285
0.461929
0
0.833724
0.599822
0.695527
0
0.240892
0.643166
1.65905
0.843457
0.274349
0.487707
0
0.98128
0.991432
0.384511
0.462749
1.71957
0.747893
0
0.445175
0
1.4043
0
0.722375
1.20971
0.432037
0.361595
0.592335
0.307803
0
1.22918
0.470927
0
0.745171
0.261798
0.991104
0.894565
0.403963
0
0.583809
0.122277
0.394643
0.324357
0.168292
1.03882
0
0
0.790997
0.710736
0.972706
1.38128
0.401946
1.54954
1.31575
1.45408
1.26617
0
0.744587
0.639854
0.295072
0.163486
0
0.47089
0.475772
0.414826
1.25336
1.04807
0
0.626412
0
0.400946
0
0.706662
0
0.508381
0.895025
0.868428
0
0.433296
0.663339
0.428811
1.5175
0.495279
0.502265
0
0
0.589028
0.663762
0.873914
0.89024
0.742421
0.68752
0.466338
0.737515
0.889505
0.495886
0.272095
0
0.755163
0.7969
0.681163
0
0.372932
0
0.519703
0.732524
0.296915
0.976073
1.28096
1.31672
0.749134
0.72053
0
0
0.809851
0.301665
1.12752
0.484666
0.693853
0.432555
0.626962
0.775891
0.430005
0
0
1.0242
1.10887
0.800952
0.715418
0.305864
0.396093
0.429541
0
0.932267
0.733725
0.462255
0.441409
0
0.590932
0.942625
1.88011
1.2299
0.51454
0.672592
0.382441
0.387014
0
0.718428
1.11473
0
0.714742
0.293808
0.321645
1.14195
0
0.21736
0.753005
0.638373
0
0.841031
0
0.843849
0
0.86989
0
0.342539
0
0.954368
0
0.575434
1.21611
0
0
0.952904
0
0
0.782605
0.492729
0.583193
1.17653
1.03323
0.534597
0.653785
0.773617
0
0
0.394566
0.534336
0.784901
0.827934
0.184429
0.724173
0.156983
0.622799
0.814022
0.419194
0.448683
0.66801
0.444838
0.465331
0
0.817529
0.577592
0.649126
0
0.510883
0.308763
0.473878
0.521436
0
0.842928
0
1.22196
0.729187
0
0.651336
0
0.183165
0
0.722302
1.34878
0.422982
0.731297
0
0.660419
0
0.25704
0.764126
0
0
0.807471
1.32534
0.2837
0.32182
1.48624
1.20192
0.613271
0.734218
0.498592
0.809623
0
0.714286
0.611816
0.260134
0.215439
0.542892
0.420948
0.633027
0.570009
0.89656
0.342956
0.487996
0.259488
0.720645
0.595593
0.555439
0
0.75576
1.73592
1.64667
0
0
0.422172
0.596554
0.509153
0
0.355073
0
1.21578
1.07437
1.37331
0.323291
1.5055
0.334237
0
0.625326
0.579666
0.368585
1.0727
0.46656
0
0.426797
0
0.724715
0.768331
0.339293
0.32679
0.273032
0.318044
0.533075
0.352393
0
0.618141
0.367653
0.629207
0.512064
0
0.633225
0.462554
0.821732
0.850719
0.400599
0
0.605158
0.597496
0
0
0
0
0
0
0
0
0
0
0
0
0
0
0
0
0
0
0
0
0
0
0
0
0
0
0
0
0
0
0
0
0
0
0
0
0
0
0
0
0
0
0
0
0
0
0
0
0
0
0
0
0
0
0
0
0
0
0
0
0
0
0
0
0.244198
0.422271
0
0.768582
0.427164
0
0.485462
1.09166
0.347911
0.314949
0.327806
0.689657
0.531302
0
0.623362
0.514279
0.17722
0.293972
1.32311
0.256263
0.531493
0
0.583435
1.45942
0.252207
0.570629
0
0.626187
0.418977
0
0.811497
1.13464
0.878129
0.340015
0
1.14125
0.415209
0
1.40995
0.762748
0.284234
0
0
0.209149
1.05727
0
0.257938
0.0549764
0.544301
0.348801
0.875678
1.05118
0.431755
0
1.01216
0.875867
0.192524
1.17009
0
0.183369
0.692466
0
0.307064
1.06803
0.820705
0.563423
0
0.56956
1.40853
0.509856
0.620156
1.2443
1.46285
1.07346
0.533413
0.869458
1.13491
1.07329
1.3553
0.533159
0.572982
0.678465
0.399546
0.777603
0.141132
0.30961
0.44609
0.942906
1.09848
0.989029
1.38782
1.415
0.952548
0.147282
1.01521
0.911813
0.937451
0.133775
0
0.471379
0.535821
0.877348
0.918857
0.390538
0.613811
0.491842
1.02094
0
1.2909
0.7659
0
0.864914
0.905253
1.69148
2.15545
0.495614
1.28194
0.54115
0
0.417666
0
0.695991
0
0
0.83601
0.480262
0.970729
0.933805
0
0.591104
0
0.8036
1.08287
0.922722
1.12258
0.542191
0.61279
0
0.668015
0.714141
0.566588
0.926734
0
0
0.614972
0.684603
1.43541
0.294948
0
0.369422
0.886697
1.19169
0.382467
0.695978
0
0.412235
0.557618
0.926287
1.05691
0.579348
0.620458
0.700229
0
0.0952225
0
1.10872
0
0.761813
0.624092
0.236064
0.614207
0.354558
0.218939
0
0.517993
0.0764373
0.948086
0.487902
0
0.519563
0.393081
0
0
0.359336
0
0
0.700044
0.650288
1.10575
1.45155
1.60433
1.13721
0
0.698394
0
0
0
0.587002
0
0.571677
0.432605
0.37898
0.462854
0.325007
0.357068
0
0.804111
0.542617
0.459253
0.917581
0.640591
0.817249
0
0.298083
0.210001
0.187603
0.345132
0.773644
0.503213
0
0.651221
0.422339
0.975194
0.72625
1.07039
0.763555
1.85526
0
0
0.426827
0.773289
0.462552
1.09996
0.769929
0.670826
0.928894
0.651594
0.530756
0.659898
1.15519
0.452594
0
0.403061
0.345226
1.20199
0.581856
1.16966
0
0.423743
0.56411
0
0.472152
0.460469
0.982595
0
0.629349
0.701069
1.69003
0.728311
0.692922
0
0.332629
0.754837
0.988087
0.604335
0
1.1435
0.731043
0.243868
0.510894
0.239075
0.311417
0
0.344394
0.664252
0.66703
0.470031
0
0
0.21851
0
0.460812
0.623695
0.582131
1.43882
1.40202
0
0.888258
0.470351
0.391848
0
0
0.480086
0.550779
0.32564
0.623143
0.54186
0.477329
1.39779
0.886847
0.412319
0
0.397453
0
0
1.40361
0.633881
0.346202
0.27268
0
0.640222
0.567977
0.581196
0.190809
0
0
0.79905
0
0
0.551106
1.17507
0.989027
0.529162
0.620819
0
0.620151
0.45043
0.690977
0.468084
0
0
0.761583
0.59062
0
0.895596
0.757551
0
0.421211
0
0.254453
0.469899
0.734693
0
0.858524
1.17631
0.754097
0.756769
1.66661
0
0.918668
0
0.897452
0
0
0.490125
0
0.283517
0.2691
0
0.547846
0.900429
1.27147
0.940876
0
0.559699
0.508807
0.631926
1.10561
0.779569
0
0.56566
0.570361
0.938521
1.63992
0.812312
0.324552
0
0
0.205951
0
0.469783
0.750492
0
0.83628
0.884921
0.321111
0
0.427222
0.494885
1.12049
0.239582
0
0.348262
0.56678
1.1496
0.912485
0.755627
0.563319
0.643758
0
0.325397
0
0
0.649934
0.647861
0
0.642769
0.203476
0.498543
1.08883
0.607145
0
1.057
0.797127
0
0
0.599478
0
0.707015
0.404325
0.364837
0
0
0.677261
0.184522
0.466025
0.495355
0
0
0.345049
0
0.477993
1.40159
0.0858544
0.401726
0.560793
0.52995
0.85647
0.775035
0.938838
0.738588
0
0.273145
0
0.594568
0.873797
0
0.509321
0
0
0.415255
0
0.4387
0.835553
0.584756
0
0.685632
0.329119
0.861392
0
0.136007
0.468397
0
0.799054
0.50484
0.889894
0.300945
0.368644
0.556754
0.278105
0.31921
0.464706
0.94566
0
0
0.42308
0.486998
0.50996
0
0.159546
0.368193
0.601697
1.10428
0.749081
0.940584
0
1.37205
0.656717
0.59569
0.502079
0.598338
0.862235
0
0.483303
0
0
0.575628
0.796889
0.381488
0.725039
0
0.328817
0.387201
0.766713
0.706054
0.264382
0.688507
0.420863
0.545404
0.868859
0
0
0
0.896787
0.551124
0
0
0.823734
0.319524
0.911701
0
0.915409
0.474657
0.784254
0.591713
0.867927
0.982944
0.412297
0.622985
0.259477
0.414158
0.224449
0.532312
1.00778
0.257991
0.703433
0.568767
0
0.546203
1.32366
0
0.377161
0
0
0.803232
0.838436
0.798965
1.43723
0.293632
0
0.651762
0
0.663431
0.476155
0.4187
0.371245
0
0.544896
0
0.629679
0.694931
0
0.598819
0.654158
0
0.422994
0.807361
0.575684
0.884575
0.701101
0
0.313313
0
0.208038
0
0.617406
0
0.799967
0.780037
0
1.19163
0
0.705812
0
0.558338
0
0.746958
0.543014
0.731712
0.783529
4.08913
0.438507
0.654407
0
0.491428
0.671312
0
1.46779
2.39559
1.70207
1.7434
1.00936
0
0.909588
0.638098
0
0
0
0.911213
1.11877
0
1.07913
0.557372
0.32201
0.350404
0.446167
0.787848
0.854081
0.66235
0.101759
0.263274
0
0.409551
0.759661
0
0.35455
0
0.933049
0.50552
0.924151
0
0.506891
0.587269
1.13354
0
0.954412
0.705085
0
0.688346
1.12294
0
0
0
0.754503
0.494647
0.571352
0
0
1.18178
1.04922
0.467922
0
1.25758
0
0
0.647768
1.4214
1.06794
0.34434
0
0.317835
0.582673
0
0.550825
0
0.985005
0.645229
0.736654
0.781906
0.833352
0.453296
0.435613
0.7608
0
0.369176
1.73664
0.942975
0.829703
0.447958
1.06317
0
0
0.316498
0.943811
0.840807
0
0
0
0.822756
0.185659
0.485533
0
0.586514
0
0.148555
0
0
0
0.773521
0.272654
0.500487
0.44443
0.12491
0
0.834589
1.04906
0.284179
0.974239
1.75221
1.42959
0.84695
0.577097
1.05304
0.664277
0.994116
0.85632
0.818693
0
0.620038
0.643318
0.930657
0
0.835067
0.733368
0.467713
0.688687
0.750744
0.669354
0.916976
0.410301
0.525624
0.70603
0
0.565006
0
0.369324
1.11245
0.171342
0
0.92779
0.6531
0
1.58322
0.980319
0
0
0.563837
0
0.958777
0.681179
0
0
1.78353
0
0.373868
0
0.567597
0
1.13738
0
0
0
0.915032
0
0.933191
0.263619
0
0.484912
0
0.505789
0
0.197195
0
0.307549
0.703412
0.428517
0.332535
0.919039
0.278383
0.850725
0.610008
1.1127
1.29066
0
1.03277
0.687346
0
0.701153
0
0.418024
0
0.814041
0.942275
0.137799
0
0.802048
0
0
0.712154
0.864276
0.801014
0.966307
0
0.918118
0
0
0
0
0.528291
0.607534
0.478369
0.938813
0.257843
1.25999
0
0
0.672049
0
0.823347
0
0.775833
0
0.548327
1.21535
1.45895
0.502833
0.798243
1.34844
0.711493
0.781958
0.785396
1.94407
0
0.841725
0.714898
0.722249
0.431558
0
0.590023
1.05195
0.940687
0.74986
0
0.45137
0.504757
1.22107
0.618983
0.754105
0.563575
0
0.686151
0
0.627501
1.64766
0.82994
1.16736
0.623507
0
1.13714
0
0
0.801402
0.518966
0.921125
0.12738
0.658728
0.375677
0.261676
1.99227
0.883151
0.329864
0.480245
0.160228
0.600946
0.847223
0.582172
0
1.99738
0
1.18659
0.383237
0.547368
1.31724
1.49467
1.01287
0.859385
1.07673
1.13022
1.11319
1.24836
0.485551
0
0
0
0
0.606847
0.781741
0.799659
0.258868
0.592745
0
0.838031
0
0
0
0.509496
1.28959
0.410691
0.124285
0.353741
0
0.445198
0.966131
1.0128
1.18329
1.20147
0.814947
0.429471
0
0.83371
0.603995
0.797969
0.941519
2.23889
0.659081
2.43728
0.780084
0.75584
0.642823
0.535193
0.63258
0.368139
0.189058
0.593822
0.643675
0.347488
0
0.787011
0.303618
0
0
0
1.06964
0.34001
0.519655
1.85823
0.409101
1.2138
0.45038
0.666815
0.927415
0
0.921149
0.701779
0.662769
0.352312
0.91183
0.478044
0
0
0
0
0
0
0
0
0
0
0
0
0
0
0
0
0
0
0
0
0
0
0
0
0
0
0
0
0
0
0
0
0
0
0
0
0
0
0
0
0
0
0
0
0
0
0
0
0
0
0
0
0
0
0
0
0
0
0
0
0
0
0
0
0
0
0
1.20009
0
0
0.330068
0
2.63787
0
0
0
0
0.524933
0
0
1.25899
1.40449
1.17401
0.363634
0
0
0
0
2.12642
0.464761
1.01386
0.51078
0
0
0
0
1.40796
0
0
1.0555
0
0
0
0
0
0
0
0
0
0
0
0
2.64326
0
0
0.679995
0
0
0
0
0
0
0
0
0
0
0.218191
0
0
0.420864
0
0
0
0.121059
0.765641
1.15867
0.525466
0.74344
0.455418
0.521296
0.763516
0.847723
0.626666
0
0.964571
0.320138
0.717038
0.297521
0
0.478418
0.437657
0.971241
0
1.84201
0.546828
0
0
0.678467
1.20882
0
0.86005
0
0.380575
0.478716
0.734911
0.416307
0.681665
0
0.597461
1.13314
1.0662
2.42785
0.996071
0.626293
2.20864
0.913425
1.9129
0.581663
0.371611
0.797405
0
0.751379
0
0.311226
0
0.0522468
0
0.62926
0.498561
0.908869
0.920966
0.62401
1.01225
0
0.689757
2.02128
2.01999
0
0.601058
0.592752
0.940649
0.666176
0.443855
1.34962
0.416639
0.521114
0.500836
0.497689
0.349294
0.603798
0.61941
0.642751
0.643291
0.789
0.329163
0
0.71
0.546864
0.630202
0.568398
1.00054
0.733783
0.650789
1.66192
0.726078
0
0.809296
0.936305
0.497071
0.491586
0.72093
0.350585
0
0.433338
0
0.277571
0.619589
0
0.248778
0
0.394852
0
0.563187
0
0.492967
0.409557
0
0.732153
0.987474
0.676075
0.272487
0.491844
0.415409
0
0.909003
0.475341
0.663606
0
0
0.581871
1.67969
0.646442
0.409843
0.629057
0.54692
0.520458
0
0
0.639316
0
0
1.05106
0.795265
0
0.548722
0
1.20561
0
0.345252
0.347104
0.544062
0.267917
0.508376
1.64232
0.617615
0.30136
1.64483
0.567251
0.647208
0.719312
0
0.418925
0.601566
0
0
0.382392
1.04317
0.804457
0.992649
0
0.640864
0
0.668235
0.49399
0.3787
0.597446
0.355588
0.197611
0.423327
0.760722
1.421
0.665122
0.460634
0.320177
0.360585
0.920889
0
0.169882
0.458474
0.740545
0
1.6631
0.761434
2.7081
0.529112
0
0.864731
0
0.654475
1.13202
0.942201
0.915972
0.998452
1.17574
0.455698
0.998756
1.20124
0.581467
0.743376
0.991041
0.379147
0.453866
0
0.327277
0
0
0.379628
0
0.70811
0.740601
1.03015
0.677127
0.880243
0.533207
0
0.389855
0.758622
0.729387
0.520752
0
0.672517
0
0.590484
0
0.970181
0.471897
0.689289
0
0.375373
0.318334
1.04754
0.51946
0.664338
0
0.235142
0
0.480729
0.680139
0.48866
0
0.674878
0.983315
0
0.529969
0.840406
0.583866
0.629228
0
1.28613
0.587543
0.20825
0.495216
1.05378
0.366182
0.766673
0.604785
0.761393
0.793171
0
0.226002
0.325256
0.527339
1.11165
0.455196
0.196359
0.800063
0
1.57981
0.216852
0.80161
0.703818
1.06008
0.533661
1.1998
0.946913
0.532768
0.531628
1.02147
0.754615
1.07458
0
0
0
0.331507
0.549084
0
1.07243
0.823644
0.87803
0.852624
1.59621
0.31618
0.305195
0.781038
0.927305
0.655067
0
0.454855
0.234645
0
1.79073
0.566239
0.260914
1.14352
0.90525
0.928057
1.60626
1.00522
0
0
0.681443
0.486803
0.610053
0
0
0.693814
0
0.507592
0.527436
0.600617
0.193908
0
0.374171
0.55575
1.32324
0
0
0
0.996923
0
0
0
0.5477
0
0
0.318122
0.938781
0.276794
0.384882
0.468802
0.571461
0.6915
0.766398
0.485593
1.87105
0.937865
0
0.371199
0.497182
0.688444
0.6908
0
0.377879
0.392569
0.490651
0.255462
0.4499
0
1.29395
0.642223
0.347154
0.976103
1.56768
0.843357
0.244632
0
0
0
0
1.56512
0.379579
0.581195
0.397528
0
0.448351
0.326012
0.987522
0.639165
1.01357
0.348272
0.884902
1.19595
0.916264
1.08994
0.805461
0.476644
0.397396
0
0
0.856267
0.519784
0
0
0.356066
0.150839
1.12577
0.253607
0.512774
0
0.490808
0.571448
0
0.224233
0.480548
0.992531
0.31588
0.0794527
0.341385
0
0.572127
0.913706
0.698544
0
0.601392
0.799222
0.742443
0.313751
0
0.335902
0
0.535086
1.24477
0.829389
0.726678
0
0.199872
0.311871
0.303575
0.805114
0.905188
0
0.534623
1.18118
0.518293
0.557126
0.968468
0.223785
0.448794
0
0.600896
0.379849
0.312147
0.536861
0
0
0.648811
0
0.517903
0
0.241947
0.563876
0
0
0
0
0.657986
0.81519
0.472903
0.656457
0.863684
0.901166
1.12197
0.361087
0
0.741
0
0.416438
0
0.287025
0.268225
0.286395
0
0.425574
0.984722
0.28432
0
0.598628
0
0.313212
0
3.6576
0
0.293499
0
0.323966
0
0.672849
0.620044
0.636267
0.41605
0.846555
0
0
1.31648
0.797018
0.423563
0.303957
0.387742
0.831648
0.471919
0.816757
0
0.64215
0.859459
0
0.503171
0.605467
0
0.724704
0
0.966273
0
0.425628
0
0.46337
0.445237
0.685534
0.367079
0.470822
0.681211
1.31523
0.459784
0.975101
0.353268
1.4653
0.812649
1.12316
0.607436
0.701263
0.295509
0.830509
0.768928
1.00457
0.694868
0.74517
0
0.419526
0
0.55763
0.231345
0
0.31059
0.571484
0.523104
0
0
0
0.642782
1.19801
0.785665
0
0.718489
0
1.21532
0
1.45436
0.695964
1.02611
0
0.512886
0
0.691073
0
0
1.50427
0
0
0.550054
1.11538
0.497297
0
0.374106
0.643239
1.14717
1.03072
0.706216
0.48551
0.384246
0
0.357405
0.350078
0.932652
0.481678
0.861767
0.979704
0.623452
0
0.52999
0
0.724811
0
0
0.422295
0
0.629415
1.07501
1.08961
0.35458
0
0.889146
0.244275
0.701409
0
0.573946
0.482006
0.674977
0.572069
0
0.451918
0
0
0.497342
0.446508
0.991189
0.313541
0
0.586348
0
0.514476
0.279204
0.614186
0.26905
0.23806
0
0.617524
0.124818
0
0
0.84092
1.03998
0
0.815631
0.959768
0.27928
0.549675
0.450571
0
0.383569
0.215621
0.349272
0.618036
0
0.356819
0.374183
0.533711
0
0
0.312375
1.96061
0.72658
0
0.508692
0
0.22288
0.642645
0.636812
0
0.691876
0
0.432649
0
0.74701
0.789837
0
0.539454
0.76414
0.572993
0.636376
0.538436
1.29607
0.596631
0
0
0.416607
1.06994
0.483932
0.98588
0
0.524859
1.77456
0.944925
0
0.763596
0.449417
0.762554
0
0.880322
0
0
0
0.624662
0
0.309658
0
0.0978545
0.483814
0
0.702729
0.293252
0.286921
0.583229
0.627113
0.632532
0.236238
0.306485
0.934216
0
0.581445
0.993475
0.920902
1.06029
0.736798
0
0.96593
1.11312
1.76364
0.608667
0.723907
0
0
0.4625
1.02429
0.341735
0.764388
0
0.674813
2.70663
1.77852
1.14594
0.623881
0.621471
0
0.475682
0.39857
0.591873
0
1.81405
1.01045
0.314038
0.661089
0.466822
0.535062
0.734821
0.803301
0.924516
0
0
0.97819
0.611707
0
0.571099
0.543024
0.546738
1.47384
0
0.788365
0.164668
0.542384
1.23361
0.727358
0.666909
0.823912
1.18002
0.797795
0
0.0290616
0
0.294747
0
0.355047
0
1.17231
0
0.709724
0
0.460426
0.88446
0.579605
1.19196
0.479469
0.197435
0.213728
0
0.294205
1.60384
0.36976
0.700347
0.75889
0
1.27379
0
0.154999
0
1.11009
0.870753
0.808637
0.593645
0.426336
0
0.426274
0
0.717043
0.897221
1.38512
0.858596
0
0.902865
0
1.10176
0
0.855839
1.64343
0.548182
0.333831
0.672772
0.743011
0
0.710125
0.580449
0.703429
0.64654
0.735888
0.434389
0
0.884152
0.713428
1.35384
0.906965
0
0.486335
0
0.676261
0.73758
0.480392
0.553598
0.499883
0.226151
0.556478
2.11805
1.30316
0.845448
0
0.807219
0.938325
1.70481
0.687075
0.575306
0.550285
0
0.819789
0.502043
0.422902
0.490939
0.40559
0.609504
0.586956
0.449082
0.354362
0.695972
0
0
0.864718
0.666573
0.529116
1.11774
0.516542
0.526915
0
0.864067
0.771843
0.93818
1.42924
0.980985
0
0.7747
2.34758
1.00485
0.736884
0.389228
0.104087
0.398127
0.725512
0
0.603082
1.13102
0.514527
0
0
0
0
0
0
0
0
0
0
0
0
0
0
0
0
0
0
0
0
0
0
0
0
0
0
0
0
0
0
0
0
0
0
0
0
0
0
0
0
0
0
0
0
0
0
0
0
0
0
0
0
0
0
0
0
0
0
0
0
0
0
0
0
0.272356
0.338363
0.548586
0.501213
0.326239
0
0.878355
1.3383
0.299262
0.556217
0
0.37538
0.344296
0
0.351678
0.613694
0.248837
0.494106
0.512195
0.348023
0.435948
0
1.01402
0.802062
0.320188
0.561111
0
0.413628
0.383211
0
0.40203
0.830753
0.186767
1.17867
0
0.27898
1.72639
0
0.695686
0.39728
0.0812357
0.381814
0
0.500953
0.467524
0
1.10154
0.292028
0.0768576
1.25187
0
0.079325
0.914447
0
0.192226
0.707936
1.51534
0.628155
0
2.09311
0.542045
0
1.23044
0.743215
0.60259
0.283127
0
0.638382
0.965145
1.40682
1.20847
0.953028
0
1.00092
0.719992
1.16111
0.93781
0.786653
0.651764
0.821795
0.638164
1.02219
0.649572
0.284919
0.428203
0.574448
0
0.88473
0
0.648049
0
0.657472
0.711792
1.0908
1.0693
0.460489
0.900112
0
0.358357
0
1.19927
0
0.819268
0.73656
0.771932
0.559735
0.985715
1.43788
0.99176
3.15153
3.10501
1.41138
0
1.03819
0
0.255082
0
0.69948
0.347721
0.329351
0.472874
1.11851
0
1.52023
0
0.77962
1.24011
0.337154
0.657723
0
0.999489
0.619129
0.669127
0.253816
0.820813
0
0.278704
0.641857
0
0.341533
0.235416
0.525446
0.512571
0
0
0
0.769072
1.12993
0
0.243424
0.320424
0.324054
0
0
0.805739
1.05909
1.61262
0.250035
0
0.898725
0.809475
0.482943
0.619488
0
0.389756
0.809761
0.618652
0.237955
0.256483
0
0.242439
0.716578
0
0
0.866168
0
0.935894
0.417597
0.448408
0.401951
0.488134
0
0
1.39352
0
0.387917
0.5642
0.520144
0.539669
0.887769
0.427608
0.469843
0
0.347054
0
0
0.772088
0.440422
0.713638
0
0.567181
0.391737
0.304171
0.349097
1.27842
0
0.852221
0.89506
0.455991
1.75955
0.937049
0
0.908795
0
0.731893
0.789487
0
0.465465
0.228939
0
0.795823
0
1.18226
0.40152
0.568653
0.364586
0
0.621812
0
0.195032
0.671352
0
0
0.597969
0
0
1.0289
0
0.794722
0.820797
1.94135
0.527238
0.41087
0
1.01994
0.891226
0
0.149368
0
0
0.936944
0.92713
0.303846
0.845674
0
1.33869
0
0.523799
0.88196
0.294548
0.728183
0
0.44412
1.63533
0.401144
0.693871
0
0
1.25004
1.37353
0
0.44377
0.196271
1.88375
0.620301
0.238041
0
0
0.764634
0.557729
0.345712
0
0
0.450105
0.82747
0.674679
0.478584
0
0
0
1.16891
0.512152
0.486705
0.203213
0.296512
0.251301
0.327896
0
0.435132
1.35505
1.01404
0.65019
0
0
0.13472
0.504725
1.00629
1.33201
0.248307
0
0.74171
0
0.410849
0.492464
0.648751
1.30986
0.348625
0.501926
0
0.490514
0.208956
0.593588
0.545697
0.520135
0
0.744371
2.17333
0
0.472582
0
0.418753
0.576648
0.400433
0
0
0.968053
0.328237
0.855954
0
1.15232
1.26885
0
0.108719
0.74557
0.72825
0.52767
0
0
1.02524
0
0.408532
0.625525
0
0.358191
0.541704
0.768864
0
0.956056
0
0.478616
0.63335
0.507134
0.678333
0
0.796027
0.835761
0.478889
0.702582
0
0.464025
0.544771
1.33433
0.587206
0.60756
0.794673
0
0
0.868546
0
0.787113
0.753214
0
0.515922
1.37657
0.531933
1.08788
0.865643
0.867733
0.810825
0.47501
0.73834
0
0
0.558953
0
0.654766
0.913563
0.922787
0
0.517031
0.341617
0.657674
0
0
0.706369
0.664627
0.630044
0.534373
1.46436
0.556237
0.379342
0
0
0.354343
0
0.667216
0.385926
0.37695
0.93827
0.771977
0.915606
0.460007
0.880697
0.647533
0.846586
0.547993
0.993517
0.345578
1.10181
0.516052
0
0.681458
0
0.488477
2.70044
2.23624
0.709354
0.421655
0.604361
0.63477
0.419532
1.37542
1.15708
0.793001
0.659863
0
0
0
0.760858
0.590422
0.594134
0.944229
0.955383
0
0.649138
1.20192
0
0.355964
0.613001
0.750227
0
0.343602
0
0.726151
0
0.624398
0
0.999552
0
0.779542
0.373708
0
0
0
0
0
0
0
0.502598
0.479522
0.950477
0.517611
0.620207
0.820997
0
0
0.920764
0.840039
0.937349
0.525933
0.354187
0
0.717553
0
0.452449
0
1.31751
0
0.298786
1.28983
0
0
0.442689
0.21703
0.752853
0
0
0.649964
0.404115
0.420184
0
0.946057
0.501672
0.76224
0
0.341763
0.459145
0.513726
1.56659
0.439514
0
0.392363
0.310076
0.572523
0.676192
0
0.567933
0
0.850088
0.290362
0.514486
0
0
0.563797
0
0
0.574108
0.572286
0
1.01952
1.15577
0.533996
0.25806
0.327144
0.608054
1.2677
0.755843
0.465975
0.817427
0.64902
0.436191
0.6805
0.559586
0.802332
0.704148
0
0.503494
0
1.00443
0
0.592393
0.351893
0
0.109012
0
0
0.668612
0.827626
0
0.418978
0
0.733623
0.728314
0.449842
0.380401
0.326502
0.576532
0.392212
0.47814
0.426172
1.09633
0.57844
0.863937
0.591208
0.327934
1.3028
0.408901
0.769753
0.365249
0
1.47464
1.08503
0.521944
0
0.528488
0.766183
0.853888
0
1.10784
0.201767
1.03042
0.792858
0.850379
1.40329
0.601207
1.39678
0.26655
0
0
0
0
0.248503
0.41467
0.752261
0.722026
0.32227
1.83293
0.77709
0.536816
0
0.374184
0
1.1568
0.704081
0.203001
0.424305
0.570307
1.02436
0
0
1.1975
0
0.711849
0.533657
0
0.499022
0
0.232339
0.693765
0
0.408372
0
0.537013
0.503353
0
0.206661
0
0
0.434228
0.800769
0.979785
0.556382
0.516276
0
0.391364
0.445169
0.442354
0
0
0.408728
0
0.547297
0
0.964147
0.663208
0
0.797139
0
1.08418
0
0.339479
0
0.502237
0.877483
0.129284
0
0.600006
0.829397
0.0367314
0.640445
1.15995
0.658685
0
0.568312
0
0.500923
0
1.7336
0
0.679053
0.853218
1.44316
1.24301
0
0
0
0
0
0.578802
0.812828
0.669442
1.15222
1.45697
0
0
0
0
0
0.775233
0
0.70823
0
0
0
0.728285
1.30387
0.538757
0.44849
0.326665
0.644367
1.14031
0.490887
0
0.841658
0.580679
0.217276
0
0.964955
0
0.710089
0
0.700334
0.667086
0.76225
0.694396
1.29844
1.34153
0.397794
0.517255
0
0
1.14493
0
2.4493
0.524448
0.583756
0.568695
0
0
0
0.848286
0.29877
0.776475
0.379151
0.736444
0.8138
0
0.773621
0
0.553139
1.25107
0.34894
0.512157
0.417278
0
0
0
0
0
0.756998
0.645554
0.381592
0.542653
0
0.33254
0.515808
0
0.708913
0
0.48676
0
0.788101
0
0.616459
0
0.870836
0
0.459445
0.951565
1.04721
0
0.775717
0.67419
0.71381
0.701128
1.08703
0
0.835812
0.706943
0
0.816918
0.825302
0.938738
0
0.597328
1.12992
0
2.4647
0.507347
1.0389
1.18256
0.201313
1.06586
0.220423
0
0.22691
1.44617
0
0.639926
0.842875
0.84607
0.978086
1.02579
0.453443
0.756261
0
1.23224
0
0.525772
0
0.575394
0.161913
0.610717
0
1.06152
0.858266
0
0.723802
0
0.391929
0
0.890112
0
0
0.428649
0.748514
0.487011
0.680912
0.870562
0.908598
0
0.136796
1.80759
0.914908
0.417199
0
0
0.528811
0
0
0
1.1583
0.715432
0
0
0.645944
1.34201
3.45395
0.851596
0.466728
0.867131
0.717903
1.53884
0.802577
0.758351
1.00638
0
0
0.933587
0.447778
0
0
1.25983
0
0.32944
0
0
1.23483
0.708228
0.505108
0
1.05699
0
0
0.519597
0.579532
0.444472
0.343601
0.689275
0.769787
0.911627
0
0.617383
1.26531
0.364887
0.200612
0.401101
0.58352
1.62018
0.866872
0
0
0.589511
0
0.652896
0
0.644556
0
1.14024
1.55419
0
0
0.478585
0
0
0
0.409906
0.611281
0.753342
0
0
1.05832
0.615832
1.26524
1.20104
0.523648
0.493728
0
0.871355
0.511879
0.245221
1.69724
0.728015
0.473787
0.713577
0.689257
1.47976
1.25982
1.16441
0
0.405415
0.359115
0.430964
0.317813
0.713106
0.596294
0
1.05079
0
1.12083
0
0
0
0
0
0
0
0
0
0
0
0
0
0
0
0
0
0
0
0
0
0
0
0
0
0
0
0
0
0
0
0
0
0
0
0
0
0
0
0
0
0
0
0
0
0
0
0
0
0
0
0
0
0
0
0
0
0
0
0
0
0
0
0
0.126029
0.564709
0.860539
0.458131
0.405855
0
0.351661
0.953546
0.367817
0.522865
0
0.789313
0.62159
0
0.65877
1.44019
0.310401
0.631458
1.18731
0.464181
0.37311
0.243539
0.3633
1.28528
0.260298
0.449401
0.227354
0.646182
0.469863
0
0.604663
0.589812
0.712204
0.308232
0.789243
0.710054
0.367984
0.621585
0.83537
0.553458
0.217428
1.2856
0
0.180364
1.06202
0
0.0849562
0.922662
0.420009
0.398491
0
1.13811
0.265219
0
0.656624
0.845121
0.258255
1.18556
1.35612
0.628077
0.646561
0.444145
0.319864
0.652693
0.950239
1.22607
1.93155
0.758029
0
0.665825
0.460916
1.22873
1.16773
0.59607
0
0
0.654384
0
0.414452
0
0.762559
1.59043
0.927512
0.619167
0.522396
0
0.865079
0.211226
0.470971
0
0.815082
0.719746
0.328205
0.608059
0
0.681145
0.25053
0.580384
0.588543
0.838152
1.2018
0.855743
0
0.329047
0.29387
0
0.345804
2.203
0.50181
0.778955
0.627472
0.254831
0.448021
0.611478
0
0.280206
0.577802
0.556994
1.11798
0.619076
0
1.7258
0
0.729016
0.290912
1.4675
0
0.885148
0
0.479556
0.874446
0.675324
0
0
0.799034
1.09358
0.944425
0
0.576083
0
0.55703
0
1.06855
0
1.05987
1.39266
1.08922
0.765507
0
0.613604
0
0.495608
0.282547
0.648903
0.434894
0.906782
0.645885
0.989156
1.51984
0.727651
0
0.696008
1.0975
0.249564
0.362489
0
0
0.520331
0
0.288858
0.695732
0.625494
0.663694
1.0892
0.871808
0.303045
0.23752
0
0
0.434545
0.631522
0.943049
0.623513
0.799265
0.845563
0.686109
0
0.396673
0.294043
0.561634
0
0
0
0.676534
0.34742
0.935579
2.19181
0.727498
0.339246
1.11276
0
0
1.32785
0.195798
0.671694
0.72856
0.30771
0.783353
1.06704
0.695352
0.833007
0.811751
0
0.364715
0