<?xml version="1.0"?>
<VTKFile type="RectilinearGrid">
<RectilinearGrid WholeExtent="0 32 0 32 0 32" Origin="0 0 0" Spacing="1 1 1">
<Piece Extent="0 32 0 32 0 32">
<PointData>
</PointData>
<Coordinates>
<DataArray type="Float32" format="ascii">
0 0.524874 1.04975 1.57462 2.0995 2.62437 3.14924 3.67412 4.19899 4.72386 5.24874 5.77361 6.29849 6.82336 7.34823 7.87311 8.39798 8.92285 9.44773 9.9726 10.4975 11.0224 11.5472 12.0721 12.597 13.1218 13.6467 14.1716 14.6965 15.2213 15.7462 16.2711 16.796 
</DataArray>
<DataArray type="Float32" format="ascii">
-5.03879 -3.62163 -2.20447 -0.787311 0.629849 2.04701 3.46417 4.88133 6.29849 7.71565 9.1328 10.55 11.9671 13.3843 14.8014 16.2186 17.6358 19.0529 20.4701 21.8872 23.3044 24.7216 26.1387 27.5559 28.973 30.3902 31.8074 33.2245 34.6417 36.0588 37.476 38.8931 40.3103 
</DataArray>
<DataArray type="Float32" format="ascii">
0 0.524874 1.04975 1.57462 2.0995 2.62437 3.14924 3.67412 4.19899 4.72386 5.24874 5.77361 6.29849 6.82336 7.34823 7.87311 8.39798 8.92285 9.44773 9.9726 10.4975 11.0224 11.5472 12.0721 12.597 13.1218 13.6467 14.1716 14.6965 15.2213 15.7462 16.2711 16.796 
</DataArray>
</Coordinates>
<CellData>
<DataArray type="Float32" Name="Scalar" format="ascii">
0
0
0
0
0
0
0
0
0
0
0
0
0
0
0
0
0
0
0
0
0
0
0
0
0
0
0
0
0
0
0
0
0
0
0
0
0
0
0
0
0
0
0
0
0
0
0
0
0
0
0
0
0
0
0
0
0
0
0
0
0
0
0
0
0.280475
0.18984
0
0.288099
0.341466
0
0.422623
1.45316
0.288245
0.378305
0
0.219565
0.289532
0.772944
0.299865
0.523376
0.265483
0.20615
0
0.245737
0.434748
1.79051
0.358516
0.75955
0.0977641
0.409322
0
0.3434
0.229005
0
0.402081
1.02471
0.0601316
2.33107
1.06158
0.440145
0.711868
0
0.318515
0.566842
1.94169
0.184423
0
0.738943
0.252662
0
1.2811
0.974766
0.22428
0.639007
0
0.393427
0
0
0.174053
0.779097
0.511958
0.185
0
1.12868
0.452937
0.130284
1.45178
0.28203
1.32928
0.478505
0.681293
0.727447
0.736354
0.948335
1.37844
0.840013
1.05186
1.16464
0.371731
0.383176
0.816359
0
1.34846
0.656469
1.02331
0.464944
0.924063
0
1.01793
0
2.34852
1.88949
1.11118
1.41642
0
1.68576
0
0.528926
0.55215
0.6902
0
0.533783
1.13102
1.01583
1.16595
0.500961
0.738476
1.64603
2.0715
1.38126
1.0242
0.563502
0.648197
0.887594
0.124976
0
0.447231
1.84866
1.51167
0.87054
0.747443
1.52109
1.07849
0.574923
1.14172
0.890123
1.57778
0.983059
0.929131
0
0
0.449557
0.776366
0.943638
0.562295
0
0.48239
0
0
0.555003
0.670243
0.689075
0
0.605217
0.790545
0.279842
0.212295
0.447379
0.547659
0.559135
2.27939
0
0.518924
0
0
0.699583
0
0.631691
0.620343
0.349535
0.599755
0.573189
0.291569
0
0.833083
0
0.551872
0.537854
0.761193
0.613873
0.320565
0.436583
0
1.60426
1.03338
0.213537
0.373171
0.640473
0.324542
0
0.391932
0.679102
0.601492
0.821869
2.12329
1.75501
0
0.792198
0.484403
0.849715
0.735988
0.758972
0.551747
0.621139
0.495278
0.635077
1.27146
0
0.728068
0.502972
0.510167
0.271297
0.333559
0.555704
0.917507
1.91166
1.18115
0.523907
0
0.994271
0.618498
0
1.51775
0.770011
1.31987
0.585097
0
0.409153
0.069644
1.01154
0.910759
1.60562
0.658986
0.561392
1.08953
0.871751
0.737744
0
0
0.201294
0.310607
0.755907
0.229567
0
0.234391
0.732329
0.582888
0
0
0.549225
0.507814
0.35463
0
0.70176
1.22455
1.80373
0
0.93163
0.413569
0.59144
0
0
1.23789
0
1.20294
0.367562
0.963206
1.27506
1.26555
0.962016
0.680171
0
0.934313
0
0.995816
0
0.930408
0.488151
0.396524
0.401334
0.81805
0.998345
0.64358
0.522106
0
0.892082
0.488049
0
0
0.837735
0.388402
0
1.45408
1.94306
0.123476
0.354153
1.53252
0.651164
1.18787
0
0.557262
0.372891
0.510077
0
1.07595
1.01718
0.95146
1.92224
0.981009
0.747062
0
0.254979
0
0.542802
0.70352
1.31783
0.663121
0.404653
2.03744
0.730728
1.35565
0.756491
0.59782
0.443226
0
0.963339
0.771716
0.903766
0.490163
0
0.276786
0.503396
0.448331
1.08568
0.980049
1.01765
0
1.09981
0
1.61299
0
0.696651
0
0.716806
0.194755
0.157193
0.251753
0
0.634678
0.325814
0.297798
0
0.795397
0
0
0
0
1.30983
0
0.719192
0
0.506415
0.601785
0.91675
0.58317
1.31224
0.0848473
0
1.32902
0.956448
0.364102
0.946498
0.458287
0.643374
0.553345
0
0.543762
0
0.427135
0
0.804032
0.870255
1.00378
0
0
0.684171
0.916723
0.552305
1.23478
0.67682
0.701554
0.489231
0
0.284138
0.343075
0.525226
0.483048
0.343501
0
0.558023
0.744033
1.04222
1.07673
0.36679
0
1.06562
0.677374
0.503756
0.545293
0
0.363929
0.740113
0.813376
0.938615
1.14816
0.724576
0
0.651449
0
0.634389
0
0.824719
0.404135
0.440626
0.500932
0.596117
0.741955
0.433124
0.612087
0.941842
0.888192
1.85197
0
0.763253
0
0.460041
0
0
0.639457
0.967161
0.565471
0.505351
0.51512
0.331232
0.653336
0.673047
1.51778
0
1.0501
0.431408
0.789519
0
0.437524
0.692197
0.745905
0
0.411636
0
0.568514
0
1.42666
0.514604
0
0.855946
0
0.378329
1.05347
0.560519
0.463873
1.01401
0.966814
2.73302
0.651345
0.607118
0.596274
0
0.692894
1.04627
0.588433
1.01598
0.564077
0.458848
1.54308
0.930921
0.405462
1.25928
0.602755
0
1.02288
0.647758
0
0.356024
0
0.495322
0.487194
0.359432
0.855929
0.561849
0.489552
2.64539
0.640036
0.540339
1.00538
0.732366
0.671233
0
0
0
0.43353
0
0.840073
1.96528
0.417614
0.396965
0
0.474581
0.701233
1.57939
1.54361
1.49343
0
0.423605
1.07422
0.568328
0
0
0
0
0.478593
0.61737
0
0
0.850142
0
0.182472
0.319326
0
0
0.659445
0.463567
0.798976
0.746298
0.784091
0
0.925196
0.417905
0
0
0
0.469536
0
0.308204
0.211831
0.61472
0.985912
0
0.534147
1.19746
0.248806
0.402193
0.598035
0.98444
0.156638
0.736848
0.794339
0
0.936254
0
0
0
0
0
0
0.381167
0
0.384227
0
0.335878
0
1.01031
0.236505
0
0
0.262236
0
0.480819
0.674667
0
0.397101
0
0.704128
0.584115
0.574185
1.76638
1.59207
0.454602
0.777464
0
1.31821
0.908837
0.863956
0
0.992703
0.355042
0.588584
0.457607
0.341112
1.10942
1.05967
1.25001
0.242351
0.197992
0.679333
0.781557
0.601375
0
1.64235
0
0.782876
0.863907
0
0.616519
0.567058
1.04412
0.63499
0.576661
0.759253
0.441125
0.816617
1.00012
0.353261
0.213564
0.480186
0
0.468332
0.536448
0
0
1.1912
0
0.357523
0
0.296088
0.569223
0.667145
1.005
0.645976
0
0.448443
1.08271
0.540121
0
0.340643
0.532763
0.162983
1.08855
0.294023
0.827903
0.477625
0.713534
0.506837
0.456413
0.24591
0
0.814976
0
0.458697
0.506164
0.247735
0.217574
0
0.338678
0.486968
0.269723
0.503377
0
0.879111
0
0.836812
0.852648
0
0.758415
1.46728
1.83536
0
0
0.48309
1.01432
0
0
0
1.15371
0
0.356415
0.240892
0.366637
0.726531
1.76496
0
0.613987
0.693516
0
0.918064
0.0628601
0.487623
0.90878
0.541446
0.797127
0.76258
0.298603
0.725397
0.659698
0
0.440667
0
1.17116
0.355018
0
0
0.590979
0
0
0
0.283217
0
1.16523
0
0.228762
0.226997
0
0.410431
0
0.572139
0.749342
0.580125
0.191213
0.518654
0.296255
0.541073
0.647621
1.00639
0.757161
0.446834
0.40987
0
0.53675
0
0
1.19398
0.276797
0.249102
0.561957
0
0
0
0.334543
0
0
0.314758
0.377017
0.419098
0
0
1.03823
0
0.494487
0.673716
0.500622
0.423979
0
0.471041
0.602068
0.445741
0.320126
0.674705
0
0
0.622531
0
0.727501
1.51036
0
0.70814
0.782981
0.684994
0
0.698272
0.505879
0.40659
0
0.387657
0
0
0
0
0.601728
0.846323
0
0.441082
0.7431
0.422456
0.631397
0.654483
0
0.557236
0.521756
0.206207
0.540717
0
0.399184
0.593044
0.652871
1.60218
0
1.85991
1.19232
0.613898
0
1.02759
0
0
0.272282
0
0.555277
0.46619
0
0.729961
0.667707
0.643199
0.305993
0
0.853368
0.764535
0.369753
0
0.775998
0
0.72116
0
0.503343
0.723919
0.764831
0.637886
0.9556
0
0.307241
0.746217
1.32885
1.28277
0.541702
0.481019
0.13557
0.438142
0.340478
0
0
0
0.608494
0.325304
0.418229
0.726075
0
0.846767
0
0
0.704297
0
0.480564
1.5183
0
0.820745
0
0.99463
0
0.923601
0.476667
0.910766
0
0.608757
0
0.567709
0
0
1.66537
0
0.657521
0
0.717678
0.635943
1.0955
0.449784
0.799494
0.559776
0.425357
0.435286
0.401436
0
0.787753
0.502008
0.336347
0.361389
1.08727
0.932782
0.380408
0
0.75529
0
0.756908
2.80321
2.4162
0.0607664
0.573877
0.492211
0.913743
0
1.01987
2.534
0.515245
0.429336
0.341903
0.680523
0
0
0.812722
0.670349
0.627
0.609435
0.956786
0.457613
0.475607
0.719857
0
0
1.18244
0.895709
0.979076
0.616897
0.821875
0.778196
0.0911328
1.56636
0.803587
0.558037
0.456064
0.561009
0.358001
0.754607
0.616246
0.606658
0
0.783173
0
0
0
0.525277
0
0
0.354675
0.968036
0.23957
0.371457
0.649738
0.775824
0
0.538129
0.956497
0
0.720247
0.716721
0.411225
0.356125
0.520236
0
0.359938
0
0
0
0
0
0
0
0
0
0
0
0
0
0
0
0
0
0
0
0
0
0
0
0
0
0
0
0
0
0
0
0
0
0
0
0
0
0
0
0
0
0
0
0
0
0
0
0
0
0
0
0
0
0
0
0
0
0
0
0
0
0
0
0
0.271441
0.523065
3.20113
0.576693
0.505216
0.584514
0.675703
1.43844
0.547436
0.465539
0
0.40814
0.349579
0
0.451163
1.79371
0.344507
0.409893
0
0.379077
0.245629
0
0.487647
1.02184
0.367184
0.283893
1.19551
0.50201
0.349349
0
0.751802
1.09528
0
0.302846
0.811366
1.00877
0.292492
0
0.578595
0.794892
0.240232
0.613872
0
0.456209
0.666308
0
0.548586
0.876195
1.50199
0.331525
0
0.89141
0.953277
0
0.753879
1.10681
0.424599
1.09885
0
0.551578
0.445067
0
0.291846
0.539899
1.84391
0
0
1.2058
0.590928
1.99387
1.66003
0
0.683659
0.955233
1.23597
1.55423
0.529585
0
1.10432
0.801003
0.660411
0.120634
0.868288
1.42694
0.976799
0.603077
1.3646
0.718193
1.05659
0.492536
0
0.980423
0.795939
0.184889
0
2.14265
1.04991
0
0.341759
0.266837
1.1437
1.57677
0.84042
0
0.715831
0.600137
0.847617
0.790526
0.98282
0.904933
0.249294
0
0.866348
0.40535
0.821789
0.857875
0.820969
0
2.14757
0
0.419647
0
0
1.06051
0.938277
1.39815
0
0
0
0.66502
0.962317
0.475861
0.761113
0.713537
0.519747
2.05184
0
0.471208
0
0.728124
0.656945
0.593646
0.226803
0
0.810264
0.875248
1.04784
0.524851
0.46246
0.66407
0.793075
0.367036
0.399838
0.462647
0
0
0
0
0.848779
0.915178
0.895719
0.570995
1.01856
0
0.330471
0
0.87852
0.264971
0.876633
0.772208
0.239077
0.969891
0
0
0.426878
0.536837
1.30515
0.736316
0.264981
0
1.43123
0.719689
0.607841
0.378719
0.372394
0
0.596781
1.01204
1.38453
0.638432
0
0.936656
1.07282
0
0
0
0.94445
0
0.677188
1.02473
0
0.568587
0
0.704865
1.32009
0.980356
1.23903
0.819111
0
0.43146
0.208852
0
1.20886
0.773863
1.76663
0.466833
0
0.560036
0.458562
0.558743
0.661199
0.939667
0.706448
0
0
0.584355
0.605611
1.29521
0
0.593088
0.664716
0.7832
0
0
0.643246
0.482393
0
0.619208
0.623049
0.398259
0.393091
0.27444
0.439414
1.6631
0.5886
1.07938
1.37767
0.561633
1.43839
0.955647
0
0
0.278801
0.570323
0
1.48974
0.452904
0
0.369965
1.09855
0.297964
0.96278
0.234781
0.541761
0
0.267247
1.22166
0.572911
0.207495
0.7258
0.692295
1.45884
0.0817357
0.295363
0.827413
0
0
0.478102
1.36829
0.393296
0
0.93841
0.98714
1.11316
0
0.483599
0.482549
1.06252
0
0.719994
0.306977
0.631275
0.560038
0.478869
0
0
0.688236
0.764396
0.843078
1.00482
0.23652
0.90738
0.473395
0.311904
0.51145
0
0.962792
0.807627
1.79607
0
0
0.727143
0
0
0.687328
0
0.821457
1.03624
0.263913
0.736222
0
0.689552
0.504466
0.940732
1.14904
1.09539
0.112941
0.390556
1.45024
0.634933
0.808107
1.2449
0.679921
0.458677
0.550916
1.11119
0
0.464528
0.495257
0
0.399233
0.199905
0.703869
0.543488
0.768374
1.26048
0
0
0.69122
0.356057
0.610924
0.255964
0
0.445031
0.612945
0.495312
0.226612
0
0.370442
0
0.633089
0.281962
0.50922
0.18793
0.46024
0.308475
0.627252
1.06208
1.23719
0.757613
0
0.762637
0.908372
0.300947
0
0
0
0.486831
0.420501
0.334094
0.423039
0.718739
0.376679
0.674712
0
1.05854
0.565281
1.09776
0
0.222596
0.622281
0.555231
0.479816
0
0.374432
0
0.651029
0
0
0.98274
1.60462
0.779807
0.957395
0
0
0.390033
0.451051
0.298545
0.344929
0.719317
1.95229
1.15576
1.11173
0.88292
0
0.897176
0.468487
0
0.969136
0.343624
0
0.369829
0
0.356863
0.824306
0
0.631683
0.381409
0.484265
0.455387
0
0.202562
0.358083
1.02231
0.765198
0.314312
0.470942
0.276144
0.730839
1.30533
0
0
0.475704
0
0.24933
0.894475
1.09102
0.994196
0
0.295448
0
0.273792
0
0.232125
0
0
0.952732
0.324926
0.338139
0
0
0.343599
0.621349
0
0.603989
0.989413
0.566683
0
0.796465
0.65018
0.322297
0.858787
0.526374
0.390417
1.05328
0.39121
0.557243
1.15371
0.806814
0
0
0.224248
0.856083
0
0.653512
0
0.79123
0.968328
1.05872
0.158102
0.506354
0
0.494052
0
0.489807
0
0.763165
0.467623
0.389217
0
0
0.349455
0
0.658905
0
0
1.02049
1.67494
1.2815
0
0.644669
0
0.498988
0
0.500357
3.87623
0.713366
1.1701
0.414465
1.68408
0.872381
0
0.378108
0.560668
0.46122
0
0
0.761766
0
0.595955
0
0.484966
0
0.459161
0
0.574067
0.347943
0.364844
0.825633
0.389378
0.655517
0.474383
0
0
0.367356
0.212724
0.41559
0.365769
0.490031
0
0.924358
1.37906
0.574344
0.371375
0.747117
0.822849
0.318154
0.455936
0.327443
0.623437
0.639313
0.687838
0
0.27196
0.161532
0.440285
1.16663
0.899183
0
0.487811
0.252081
0.689091
0.738947
0.943462
0.270409
0.636094
0
0.880326
0.988515
0.730045
0.738677
0
0.403231
0.252319
0.515704
0
0.466135
0.906851
0.656202
0
0.37613
1.17008
0.516629
0
0.949612
0
0.552705
0
0.435014
0
0.493286
0
0.460713
0
0.347422
0.224256
0.833666
0
0
0.924913
0.424111
0.339313
0
1.46436
1.5164
1.11014
0.695523
0
0
1.09214
0.537488
0
0.805039
0.559808
1.29142
0.684777
0
0
0
0
0.670407
0
0.450888
0
0.707285
0
0.468063
0
0.795141
0.412415
0
0.835387
0.73392
0
0.686743
0
0
0
0.807334
0.488931
0
0.481076
0.457618
0.454865
0.486057
0.662091
0.749596
0.504804
0
0.476934
0
0
0.347179
1.02592
0
0
0.591241
0.783055
1.0848
0.410346
0.827911
0.450697
0
0
0.310061
0.866981
0
0.859212
0.549387
0.677463
0.802649
0.461094
0
1.06899
0.645885
0.462939
0.573062
0
0.632909
0.576046
0.273311
0.408561
1.08072
0.646036
1.41275
0.548152
0.823895
0.447191
0.775513
0.727472
0
0.879849
0
0.438975
1.04878
1.19495
1.27732
0.625498
0.625846
0.489159
0.300292
0.774549
0
0.17681
0.434989
1.67547
1.35059
0.471462
0.647326
1.41651
0
0.527308
0.767586
0.767769
0.853404
1.07019
1.4167
0.596701
0.684432
0
0.4854
0.379083
0.704873
0.399087
1.2926
0.459461
0.183763
0
0
0.553566
1.47373
0.694774
0.17545
1.44618
0
0.889105
0.817766
0.66578
0
0.552905
0.368363
0.360396
0.272681
0.32504
0.353446
0
0.557959
0
0
0.61812
1.28254
0.442438
0
0
0
0.810354
0
0.409134
0.520645
0
0.614585
0
0
1.22479
0
0.925029
0.927954
2.06752
0.483247
0.517632
0.725777
0
0.756054
0
0.706111
0.646718
0.737471
0
0.873053
0
0
0
0.805073
0
0.515946
0
0.622172
0.498826
0.417452
0.521705
0
0
1.23543
0.898778
0
0.287775
0.241394
0.461653
0
0
0.653974
0.79355
0
0.344096
0.455831
0.554322
0.676901
1.01712
0.500752
0
0.60849
0.384228
0.840161
0.788312
0.593147
0.308569
1.09706
0.312341
0.451325
0.797311
0.716736
0.568517
0
0.252022
0.998191
0
0.596552
0
0
0
0.418742
0.706988
0.582204
1.28223
0.678701
0.286284
0
0.695411
0
0.36473
0.411259
0.430213
0.583051
0
0.373207
0
0.587617
0.699975
0.972792
0
0.927789
0.445199
0.521061
0.544384
0.122638
0.320871
0.653892
1.0689
0.698729
0.238648
0.571146
0
0
0
1.27734
0
0
0
0.5101
0
0
0
0.308253
0.477739
0
0.110607
1.11114
0.35152
0.344658
0.195248
0
0.360012
0
0.689084
1.15587
0.622714
0.146545
0.541477
0.777692
1.33084
0.231542
0.500398
0.239147
0
0.370578
0
0.637017
2.06188
0.602617
0
0.61555
0
0
0.397411
0
0.646113
0
0.422036
0.95477
0.290024
0
0
0.924636
0.391625
0.331902
0.581307
0.788001
0.230074
0.967006
0.368713
0.293546
0.660617
0.817571
0.747169
0.368527
0
0.431381
0.77907
0.44744
0.700001
0.642452
0.812687
0.480644
0.630559
0
0.582458
0.272167
0.600397
0.646108
0.735483
0
0.522845
0.333531
0.471559
0.644949
0.859891
0.657908
0.306877
0.542746
0.578008
0
0
0
0
0
0
0
0
0
0
0
0
0
0
0
0
0
0
0
0
0
0
0
0
0
0
0
0
0
0
0
0
0
0
0
0
0
0
0
0
0
0
0
0
0
0
0
0
0
0
0
0
0
0
0
0
0
0
0
0
0
0
0
0
0
1.68264
1.3383
1.17725
2.00047
0
0
0
0
0
0
0.628031
2.53651
0
0
1.0562
0
0.283517
0
0.324828
1.63623
0
0
0.679355
0
0
0
0
0
0
0.722902
0
0
0
0
0
0
0
0
0
0
0
0
0
0
0
0
2.77876
1.00245
0
0
0
0
0
0
0
0
1.23122
0
0
0.218246
0
0
0
0.606461
0
0.733309
0.739773
1.54381
0
0.407914
0
0.543137
1.19296
0.8983
0
1.38146
0
0.772094
0
0.993191
1.1239
0.720508
0.44789
0.636009
0.361595
0.483038
0.516093
0.593824
0.620213
0.557513
0
1.24959
1.16867
0.824034
1.50908
0.613713
0
0.924998
2.48074
0.73975
0
0.846839
0
0
0
1.22982
0.622087
0
0.296188
0.192512
0.498747
0
0
0.933765
0.60988
0.392383
0.681897
0.971518
0.424025
0.704056
0.884112
0.882566
1.34733
0.990502
0
1.11176
1.03159
0.966626
0.71807
2.62818
1.94975
0.78837
0
0
0.627481
0.851397
0
1.4715
1.1781
0.727427
0.528149
1.37567
0.735395
1.27594
1.88435
0.857299
0.722657
0
1.2254
0.718836
0.840187
0.605387
0
0.650726
0.550597
0.742234
0.677389
0.24141
0.455967
0
0
0.840172
0.606295
0.893683
0.916365
1.05754
0
0.881198
0.618541
0.419803
0.456222
0.846192
0.5939
0.658
0.546314
0.502834
0.352606
0.483347
0
1.51455
1.08358
0.618529
1.33327
0.454804
0
0.580394
0.77988
0.714443
0.598412
0
1.14336
0.809568
0
0.51883
0.821828
0.160525
0.322864
1.09754
0
0
1.04328
0
0.788688
0.678221
1.2927
0.947139
0
0.358676
0.834611
1.2554
2.01125
0
0.699746
0
0
0.451634
1.84648
0.436898
0.768934
0.48471
0.660121
2.1746
0
0.509714
0.682275
0.753448
0.66236
2.11513
0.74621
0
0.549343
0.685566
0.301164
0
0
0.333797
0
0.383692
0.451131
0.427602
0.440084
0.228725
0.594287
0
0.838681
0
1.07172
0
0.807829
0.928939
0.626991
0.313487
0.647939
1.66052
2.27985
0.652429
0.692355
0.310643
0.503291
0.703176
1.15778
0.814072
0.485642
1.07565
0.341878
0.703183
0
0.578847
0
0.751292
0
0.974448
0
0
0.434719
0
0.514324
0
0.760645
0.839263
0.608375
0.54083
0.292851
0.542114
0
0.560871
0.442692
0
1.10271
0
0.302503
0.2582
0.431311
0.353738
0.547514
1.02848
0.270866
1.05532
0.36082
0.332062
0.131116
0.592985
0.309356
0.551024
0
0.437806
0.811737
0.630384
0.339157
0.494603
0
0.789656
0.67375
1.07589
2.80076
0.201314
0
0.760151
0
1.52979
0.416741
0.585943
0
0.835551
0.391094
0
0.279362
0.521228
0.354692
0
0.516886
0
1.31995
0
0
0.941865
0
0.49574
0
0
0.579246
0
0.483428
0.397653
1.06201
0.447973
0.276028
0.902943
0.875175
0.47043
1.38224
0
0
0
0.502071
0.382212
0.544797
0
0.791369
0.148319
0
0.183675
0.661946
0.666159
0
0.697662
0.391482
1.05932
0
0.812713
0.533781
0
0.56918
1.45497
0.803577
0.454958
0.978437
0
0.56685
0
0.891973
0
0.913771
0.545598
2.37475
0.530292
0.492545
2.31772
1.38356
0
0
0.598565
0
0.417424
0.40675
0
0
0.414389
0
0.43897
0.98846
1.49999
0.814383
0.984584
1.80615
0.273591
0.364374
1.88181
0.530468
0.726845
0
1.51525
1.36465
0.867395
0
0.631506
0
0
0
1.26214
0.448247
0
0.302722
0.589093
0.820249
0.452489
0
0.925361
0.574718
1.8033
0.516012
0
0.74079
0
0.586512
0
0.417593
0
0.925882
0.666149
0.276389
0
0
0.626111
0.858532
0
0
0.415718
0.404799
0.454698
0.624569
0.320958
0
0.443839
0.989459
0.471045
0.712303
0.141101
0.854405
0.943076
0
0.782056
0.423306
0.321486
1.13995
0
0.494784
0.520217
0.72277
0.501983
0.664195
0
0.419867
0.537581
0.629104
0.768708
0.36901
0.794306
0.635363
0.668823
0
0.432386
0.30504
0
1.46194
0.527638
0.690758
0
0
0
0.544046
0
0.521463
0
0.592023
1.03862
1.33552
0
0.326905
0
0.550198
0
0.206303
0.802833
0.321078
0.100116
0.633435
0.800355
0.934566
0.610162
1.29319
0.245676
1.41896
0.171521
0
1.39947
0.376984
0.94416
0.161473
0.687455
0.431602
0.38006
0.58096
1.87396
0.460815
0.319269
0.210995
0.630336
1.17908
0
0.627724
0
0
0
0.513349
0
0
0.58154
0.551938
0.779739
0
0.634292
0.155799
0.40936
0
0.356751
0.154813
0
0.463474
0.695375
0.452305
0
0.349265
0.724004
2.01106
0.170009
0.548551
0.152221
0.090184
0.0842066
0.206177
0.566181
1.00691
0.46072
1.41697
0
0.29342
0.258651
1.16815
0
0.516838
0.579074
0.938231
0.572642
0.421534
0.387756
0
0.336552
0
0.718387
0.0639776
0
0.330934
0.449846
0
0.773401
0
0.438363
0.31863
0.674396
0
0.39297
1.13781
0.544508
1.08524
0.493605
0.110165
0.442947
0.429009
0.431984
0.90897
1.07899
0
0.737336
0.611839
0.413523
0
0.368419
0
0
0.610476
0
1.04196
0.515114
0.648053
0
0.716694
0
0.435133
0.490165
0.6341
1.10341
0
0.775583
0.447942
0.592829
0.647697
0.462053
0.39797
0.673775
0.407327
0
0
0.721581
0.390411
0.240924
0
0.418062
0
0.388843
0.802081
0.60665
0.505255
1.50202
0.527067
0.809405
0
0.391397
0.186915
0.843822
1.05629
1.66007
1.29025
0
0.463837
0.891271
0.773959
0.496111
0.420693
0.669417
0.842687
0.406269
0.516133
0.988733
0.454256
0.456496
0.371148
0.316441
0
1.38719
0
0
0.541707
0
0.250596
0.546662
0.807863
0.987514
1.11718
0.424529
0.539701
0.528121
0.353357
1.15517
0
0.618597
0.603315
0.638587
0.875195
0.761212
1.24746
0.58114
0
1.21319
0.263519
0.532438
0
0.690038
0
1.05382
0.646713
1.22412
0
0
0.480202
0.322784
0
0.688883
0.779625
0.558143
0.502636
0.265116
0
0
1.11021
0.789229
0
1.02227
1.51369
0.521764
0
0.0549121
0.471255
0.259897
0.776323
0.309524
2.25849
0.494123
0.573331
0.301175
0
0.35242
0
0.618386
0
1.24764
0.580518
0.56307
0.517128
0
0.479974
0.721496
0.597961
0.658618
0.391686
0.440407
0
0.484518
0
0
1.73649
0.299727
0
0.711375
0
0.779584
0.606842
0
0.64744
1.63524
0.579755
0.605388
0.587719
0.492157
0.318068
0
0.333204
0.0870488
0.495303
0
0.828558
0
0.624318
0.3649
0.289988
0.540277
0
0
0
0.467619
0.532295
1.56926
0
0.476268
0
0.286161
0.577967
0.519175
1.23287
0.456576
0.942851
0.396087
0
0.414069
0.270569
0.425838
0.307653
0
0.779368
0.927405
0.876028
0
0.345123
0.701552
0
0
0
0.630047
0.411231
0
0.95538
0.572571
0.568178
0.479766
0
0.272536
0
0.68797
0.463009
0.712498
1.04251
0.586
0.563798
0
0
0.633333
0.136859
1.70595
0.493916
0.396718
0.513605
0.466092
0.548593
0.520028
0.691883
0.458068
0
0.426698
0.535805
0
0.857553
1.10338
0.900451
0
0
0.464097
0
0.694977
0
0.465072
0.300565
1.22305
0.775482
0
0
0.722069
0
0.679947
0
0
0.292341
0.63524
0
0.564702
0.225144
0.747409
0.233085
0.977176
0
0.695519
0
0.359063
0.635094
0.771547
0.561268
1.22081
0.486815
0.120467
0
0.347923
0
0.773444
0.945167
0.584028
0.332134
0.811007
0.325247
0.48924
0.984397
0.860328
0.321701
0.392796
0
0.338931
0.922121
0.654104
0
0.337645
0
0.833946
0
0.616443
0.404525
0.717072
0
0.204872
0
0.538565
0.5776
0.450655
0.796527
0.342755
0.528713
0.612861
0.988112
0
0
0.425021
0.138716
0.139723
0.522619
0.40315
0.400778
0.833301
0.32019
0.3168
0.679084
0.441571
0.6753
0.613725
0.612006
0
0.534852
0.303408
0.463432
0
0.32811
0.443447
0
0.482298
0.86907
0
0
0.474263
0
0.373362
0.487206
0.446605
0.129084
0.320825
0.543196
0.615527
0.106975
0.601067
0
0.402767
0.351592
0
0.625447
0
0
0
0
0
0
0
0
0
0
0
0
0
0
0
0
0
0
0
0
0
0
0
0
0
0
0
0
0
0
0
0
0
0
0
0
0
0
0
0
0
0
0
0
0
0
0
0
0
0
0
0
0
0
0
0
0
0
0
0
0
0
0
0
0.343074
0.50722
1.72896
0.406672
0.46434
0
0.571634
0.839545
0.293243
0.38321
0.676843
0.349337
0.96792
0.681513
0.37618
1.30514
0.347575
0.493087
0
0.421311
0.519114
0
0.37901
1.52628
0.447413
0.476517
0
0.30325
0.462539
0
0.713138
0.967744
0.184796
1.08737
0
0.296209
1.56573
0
0.448321
0.514375
0
0.380316
1.67368
1.25951
0.289072
0
0.855735
1.53913
0.470424
0.760662
0
0.313131
0.698816
0
0.450114
0.200928
4.83731
0.860564
0
0.508106
0.46936
0
1.11516
0.698723
0.475408
0.578784
0
0
0.505035
0
1.04607
0.957101
0.954626
0.28501
0.738541
0.72411
0.878639
0
1.21796
0.518034
0.461697
0.627257
0
0.319225
0.422496
0.324869
0
0.491174
0.685591
1.42128
0
1.31129
2.00935
0
0.655886
1.77456
1.70035
0.511049
0.597498
1.32413
0.705379
0
0.998056
0.980802
0.518611
0.307909
1.27958
2.4399
0
0
0.516653
0.437716
0.338772
0.849293
0
0.844024
0
0
1.03932
0.564966
1.06511
0
0.20456
0.780025
0.382307
0.627186
1.77788
0
0
0.414183
0.688783
0.550405
1.76801
0.649977
0.918299
0
0.886799
0.652448
0.396358
0
0.61227
0
0.473069
0
0
0.492707
0
1.11066
0.545238
0.907123
0
1.04464
0.489913
0.76552
0
0
0
0
0.383522
0.092121
0
0.482249
0.548941
0.461206
0.492171
0
0
1.23391
1.23164
0.544408
1.18532
0.71132
0.613194
0
0.567871
0.343342
0.939443
1.50478
0.470557
0
0.536098
0
1.50519
1.31623
1.25909
0.809817
0.467726
0
0.316099
0.957332
0.227019
0.282917
0.944477
0
0.658969
0.46694
0.332208
0.772579
0.758092
0.739035
1.04442
0.431695
0.963642
0.594574
0.568212
0.655848
0.699598
0.410264
0.871303
0
0.450168
0
0.763528
0.512174
0
0.415753
0.935969
0.388699
0.713432
0
0.381933
0.790963
1.13904
1.17689
0.571139
0
0.707586
0.791381
1.00264
0.338983
0.314411
0.344559
1.05661
0.456321
0.657067
0
0
1.15752
0.642484
0
0.731655
0.565381
0.8639
1.02596
0.695869
0.702689
0.371345
1.20037
0.632335
0.679798
0.412338
0.232119
1.01148
0
2.27397
0.898682
0.577541
0
0.676769
0
0.283329
0.74415
0.235613
0
0.601322
0.398935
0.332356
0.862854
0
1.5423
0.381048
0
0.584885
1.0595
0.449126
0.379907
0.121582
1.01085
0.786699
0.943942
0
0.751993
0
0
0.522512
1.20767
0.531011
0.607283
0.782161
0.536202
0.230259
0
0.591244
0.595544
0
0.507893
0.875613
0.475505
0
0
1.35273
0.485713
0.493846
0
0.575556
1.85214
0.651466
0
1.13711
0
0.303179
0.712869
0
0
0.206737
0.631681
0.62266
0.855575
1.07098
1.04344
0
0.650013
0.918367
1.1322
0.752067
1.73362
0.37739
0.971094
0.898451
0
1.00349
0.416861
1.15165
1.18884
0.426199
0.604976
0
0.591292
0.830473
0.398893
0.707581
0.498444
0.790078
0.531158
0.860778
0.745076
0.670567
0.572171
0.990342
0.780384
0.468563
0.636624
0.15446
0.654121
0.288349
0.534374
0
0
0.614533
0.678797
0
0.45695
0.74108
0
0.5086
0.963225
0.79359
0.359975
0
0.518764
0.733461
0
0.7378
0
0
1.23938
0
0.490018
0
0.4551
0
1.01492
0
0.952807
0
0
0.758352
0.80081
1.1107
0.682283
0.492135
0.685718
0
0.644204
0
0
0.816957
0.821266
1.16295
0.581949
0
0.981852
0.57447
0.615261
0
1.09901
0.254585
0.669351
1.20117
0.885479
0
0.7044
0.958948
0
0.963806
0.598489
0
0
0.590136
0
0.46471
0.385213
0.515373
0.522001
0
0.673751
0.654004
0.628425
0
0.644199
0.933259
1.16288
0.510836
0.678595
0
0.712974
0.385557
0.56183
0
0.423852
0.332281
0.324282
0.56704
0.79553
0
0.949649
0
0.941303
0.342984
0.459109
0.680213
0
0.667948
0.523717
3.60436
0
1.08628
0.661001
0
0.616129
0.793867
0.668966
0.217885
0.500971
0
0.836057
0
0
0.412774
0.702139
0.793109
0
0.591791
0
0.385001
0.343236
0.780427
0.713852
0.598017
0
0.322719
0.371138
0.472454
0.822854
0
0.668094
1.45039
0.844322
0.382919
0.458216
0
0.670676
0.591142
0.583338
0
0.558737
0.425931
0.654562
0
0
0
1.03733
0.925607
0.949421
0
0
0.486993
1.12134
0
0.290875
1.07974
0.849489
0
0.639356
0.350218
0.350274
0.455305
0
0.653853
0
0.560036
0.986342
0.228987
1.13045
1.80128
0.900651
0.254226
1.76308
0.877953
0.750091
0.651559
0
0.689207
0.686111
0.808446
0
0.951886
0
0.399775
0.570647
1.03447
0.273936
1.02287
0
0.399987
0.388099
0.552087
0.796969
0.533309
0.582683
0
1.23381
0.844583
0.758623
0.739498
0.807599
1.02075
0.64814
0.281213
0.497465
1.54631
0.863791
0
0.476687
0.290369
0.265323
0.467326
0.648007
2.01174
0.56697
2.0212
0.7672
0
1.08531
0
0
0
0
0.619928
0.598944
0.216054
1.30445
0
1.44952
0.459277
0
0.537217
0
0.527455
0.958776
0
0
0.74857
1.09752
0.438941
0.619516
0
0.525137
0.726897
0
0
0.450397
0.815676
0.823109
0.612523
0.453055
1.37833
0.28797
0
0.650582
0.494782
0
0.203698
0.432526
0.550996
1.18831
0.988892
0.817321
0
0.59129
0.121533
0.724705
0
0.277134
0.364435
0.383217
0
0.07023
0
0.561651
0.382324
0.529274
0.393647
0.51182
0.0648062
0.227194
0.401692
0.48715
0.747495
0.508416
0
0.356284
0.674807
0.445949
0.555563
1.07665
0
1.17544
0.656536
0.316399
0.586581
0.806537
0.963866
0.988627
1.08758
0.798713
1.14396
0.704699
0
0
0.738276
0
0.83959
0.840153
0.264604
0.315171
0.625834
0.929213
0
0.962897
0.652947
0
0.141605
0
0.793874
0.541214
0.531917
0.550663
0.562273
0.45137
0
0.546316
1.06174
0.493555
0.416885
0.537669
0.344647
0
0
0.751894
0
0
0.219944
0
1.0523
0.781546
0
0
0.489296
0
0.707283
1.07517
1.02376
0.407038
0.914668
1.21833
0.880559
2.44726
0.970857
0.407434
0.343586
0.334296
0.526649
0.280586
1.40824
1.69612
0.919022
0.906397
0
0.24443
0.689547
0.929528
0.876271
0.640835
0.587202
0.371602
0.19781
3.4613
0.274668
0
0
0.517876
0
0
0
1.17996
0.983553
1.27158
0.749255
0.344279
0.379934
1.22837
1.00346
0.576735
0.715334
0
0.319836
0
0.565894
0
0.360807
0.445891
0.268039
0.414025
0.952523
0.673554
0.823251
0
0.697887
0.813687
0.438664
0
0.48617
1.30305
0.587785
0
0.320833
0.605922
0.539805
0
0.546676
0.208264
0
0.0786067
0.707854
0.448245
0
0.346509
0.064437
0.542938
0
0.439534
0.525536
0.544749
1.19095
0.519346
0.258671
0.791384
1.16515
0.533009
0.00813045
0.539014
0.455558
0.366473
0.455603
0.879724
0.937355
0.523157
1.27778
0.920009
0
0
0
0
0.375841
0.552071
0.532445
0.461474
0.673122
0.870301
0.495978
1.13643
0.317256
0
0.851831
0.851511
0.492215
0.418352
0.25767
0.450747
0.466399
0.306404
0.577719
0.0594197
0.25775
0.388171
0.883147
0.27184
0.861967
0.454468
0.598971
0.712493
0
0.871225
0
0.649031
0.613777
0.781555
0
0.15941
0.984679
0.802115
0.407165
0.279145
0.401787
0
0
0
0.401018
0
0.722069
0
0.634196
1.31102
3.05972
1.07645
1.50224
1.11139
0.439896
0.431327
0.363383
0.818588
0.358883
0.615609
1.17933
0.64368
0
0.474856
0.601257
0.36168
0
0
0
0.411212
0
0
0.571029
0.942127
0.341687
0.204647
0
0.318806
0.305634
0.351351
1.31731
0.600536
1.01782
0.354397
0.50028
0
0.269964
0
1.22369
0
0.417601
0
0.386171
0
0.430287
0.444626
0.457886
0
0
0.351695
0.405478
0.502785
0.34297
0.32449
0.539558
0
0.958515
0.856356
0.441268
0.583878
0.489777
0.740164
0.303385
0.718373
1.28465
0.490422
0.310808
0
0
0.561264
0
1.01022
0
0.858013
0
0.341692
0
0.141626
0.324688
0.320984
0.627587
0.312366
0.312829
0
0.595347
0.611961
0
1.54458
0.524033
0
0.360266
1.04489
0.592167
0.77481
0.802434
0.682574
1.22528
0.493463
0.572325
0.507073
0.459469
0.786943
0.718354
0.975988
0.618646
0.391918
0
0
0
0
0
0
0
0
0
0
0
0
0
0
0
0
0
0
0
0
0
0
0
0
0
0
0
0
0
0
0
0
0
0
0
0
0
0
0
0
0
0
0
0
0
0
0
0
0
0
0
0
0
0
0
0
0
0
0
0
0
0
0
0
0.260417
0.449035
0
0.531706
0.406815
0.171411
0.691193
1.71955
0.249787
0.448046
0
0.643058
0.479847
0.720144
0.497013
0.664392
0.192805
0.435531
0
0.54054
0.521506
1.42955
0.354947
1.19451
0.273284
0.412243
0
0.371014
0.466597
0
0.45078
1.25642
1.61365
0.44151
0
1.04886
0.433598
0
1.45707
0.458802
0.152142
0.933061
0
0.405756
1.0058
0
0.169501
0.545574
0
0.233424
0
1.25004
0.323778
0
0.591394
0.418401
0.0142021
1.17828
0
0.558793
0.565382
0
0.640729
2.01161
1.18653
0.432852
0.556936
1.14274
1.28839
0.633173
1.05425
0
0.374656
1.05646
0.268075
0.396769
0.590311
0.510404
0.347235
0.580601
0.570173
0
0.558949
0.50053
0
0.699187
0.273008
0.450494
0.259972
0.558428
0.936511
0.802429
0.404647
0
0.551815
2.78549
0.455802
0.205295
1.15924
1.04138
0
0.67376
0.150738
0.265745
0.302914
0.357047
0.159747
1.59871
0.566258
0.85705
0.806771
1.02702
0.271173
0.266027
0.911247
0.899734
0.587279
0.368368
0.274511
0
0.456669
0.692895
0.778707
0.679444
0.338195
0
0.290406
0.576501
0.573788
0.374914
0.923001
0.413673
1.23605
0.59483
1.07464
0.496649
0.868021
0.694894
0.719779
0
0.402298
0.588793
0.430923
0.220815
0.535653
0.59347
0
1.52223
1.72498
1.3579
0.555415
0.934098
0
0.19239
1.25636
0.94975
1.08112
0
0
0.38742
0.792938
0.73535
0.743355