<?xml version="1.0"?>
<VTKFile type="RectilinearGrid">
<RectilinearGrid WholeExtent="0 32 0 32 0 32" Origin="0 0 0" Spacing="1 1 1">
<Piece Extent="0 32 0 32 0 32">
<PointData>
</PointData>
<Coordinates>
<DataArray type="Float32" format="ascii">
0 0.524874 1.04975 1.57462 2.0995 2.62437 3.14924 3.67412 4.19899 4.72386 5.24874 5.77361 6.29849 6.82336 7.34823 7.87311 8.39798 8.92285 9.44773 9.9726 10.4975 11.0224 11.5472 12.0721 12.597 13.1218 13.6467 14.1716 14.6965 15.2213 15.7462 16.2711 16.796 
</DataArray>
<DataArray type="Float32" format="ascii">
-5.03879 -3.62163 -2.20447 -0.787311 0.629849 2.04701 3.46417 4.88133 6.29849 7.71565 9.1328 10.55 11.9671 13.3843 14.8014 16.2186 17.6358 19.0529 20.4701 21.8872 23.3044 24.7216 26.1387 27.5559 28.973 30.3902 31.8074 33.2245 34.6417 36.0588 37.476 38.8931 40.3103 
</DataArray>
<DataArray type="Float32" format="ascii">
0 0.524874 1.04975 1.57462 2.0995 2.62437 3.14924 3.67412 4.19899 4.72386 5.24874 5.77361 6.29849 6.82336 7.34823 7.87311 8.39798 8.92285 9.44773 9.9726 10.4975 11.0224 11.5472 12.0721 12.597 13.1218 13.6467 14.1716 14.6965 15.2213 15.7462 16.2711 16.796 
</DataArray>
</Coordinates>
<CellData>
<DataArray type="Float32" Name="Scalar" format="ascii">
0
0
0
0
0
0
0
0
0
0
0
0
0
0
0
0
0
0
0
0
0
0
0
0
0
0
0
0
0
0
0
0
0
0
0
0
0
0
0
0
0
0
0
0
0
0
0
0
0
0
0
0
0
0
0
0
0
0
0
0
0
0
0
0
0.323968
0.312698
0
0.358554
0.178762
0
0.3348
1.97323
0.270682
0.329528
0
0.325222
0.386736
0
0.402838
0.650262
0.170779
0.21526
0
0.453222
0.255366
0
0.400007
2.59627
0.26669
0.419424
0
0.227461
0.323171
0
0.350355
1.48083
0.110466
2.0855
0
0.369343
1.4315
0
0.27248
0.519593
0.813852
0.0793727
0
0.965584
0.169453
0
0.779402
1.17391
0.118468
0.590183
0
0.730946
1.26424
0
0.228377
1.12738
0
0.257087
0
0
0.468883
0
1.14995
0.943591
0
0.541179
1.13122
0.875855
1.12934
0.328012
0.690632
2.56718
1.4391
1.2166
0.614542
0.810275
1.22224
0
0.703268
0
0
0
1.0593
0
1.2514
0
0.656346
0.607261
0
0.653914
0.508144
0.726867
0.466351
0.409714
0.386117
0.722307
0
0.691573
0.427306
1.12046
1.07014
1.48336
1.68969
0
0
1.16946
0.9717
0.402207
2.32098
0.727096
0.697174
1.55802
0.951158
0.630396
0
1.14893
1.13202
0.916964
0
0.719968
0
0.976322
1.2767
0
0.647573
0.587957
0
0.952112
0.689284
0.711494
1.3296
0
1.41076
0.561927
1.0558
0.706484
1.43298
0.901249
0
0.453228
0.31183
0.688282
0
0.853671
0.374305
1.78483
0
0
0.700705
0.648594
0.537033
0.259419
0.671201
1.22819
0.674666
0.668548
0.763297
0
0.581933
0.319649
1.50729
0
0.619898
0
0.568337
0.599884
0
0.569723
0.37697
0
0.904709
0
0.837245
0
1.32291
0
0
0.683736
0
0.827947
0.417493
0.683137
0.215063
0.596254
1.53756
0.776152
0
0.557359
0.277904
1.40447
0.831789
0.758794
0.186689
0.276598
0.606197
0.428305
0.643859
0
0.355343
0.632046
0.227814
0.791781
0
0.648015
0
0.744896
0.291716
0
0.223385
0.813132
1.7448
0.376161
0.622094
0.737607
0.868843
0.936245
1.99438
0.744328
0.706903
0.281208
0.202371
0.255187
0.743784
0.437624
0.693691
0
0.840736
0
0.84099
0
0
0.625136
1.31559
0
0.7076
1.46457
0.413903
1.18182
0.452141
0.63088
1.64356
0.38403
0.272576
0
0
1.41535
1.02241
0.852758
0.833375
0
0.597085
0.920101
1.05198
0.830403
0.743541
0
0.927811
1.34608
0
1.33654
0.686804
0.353189
1.03617
0.567991
0.922379
0.531565
0
0.417929
0.477998
0.544724
0.644204
0
0.56281
0.418402
0.520772
0.707898
0.605692
0.73709
0.840779
1.08765
0
0.377853
0.662565
0.731324
0
0.575289
0.665825
1.05886
0.391781
0
1.18857
1.23466
0.524456
0.604224
1.29355
0.496753
0.833753
0.592658
0.906673
0
0.272675
0.440044
0
0.787453
0.394071
0.499624
0.8359
0.886372
0.452349
0.616271
0
0.629281
0.64448
0.83364
0
1.11222
0.475673
0.752708
0.85369
1.19684
0.942445
0.267165
0
0.588737
0
0.334151
0.456961
0.333647
1.25755
0.554417
0
0
0.561719
0
0
0.387425
1.29378
0
0.718727
0.641051
0.470838
0.569682
0.375177
1.31454
0.757493
0.988821
0.638611
0.987377
0.349326
0
0
0.441968
0.400708
0.868037
0.322314
1.42457
0
0.264277
0
0.226123
0.442378
0
0.639176
0
0.488715
0.54883
0.873213
0.610671
0.526657
0.477563
0
0.446257
0
0.988044
0.962183
0.879444
0
1.39406
0
0.772873
0
1.25588
0.47645
0.327801
1.19016
0.71046
0.568112
1.09152
0.553665
0
0.38761
0
0
0.482108
0.377946
0
0.339352
0.788084
1.63198
0.802201
0.850805
0
0.513678
0.73929
0.47372
0.259389
0.705801
0.542335
0.408125
0
0.766281
0.452661
0.459896
0.267306
1.19084
0.485932
1.39836
0.620334
0
0
0.572207
0.728146
0
0.888051
0.830713
0.354891
1.03406
0.615584
1.06521
0
0.965326
0.813726
0.501619
0.699864
0.544403
0.600875
0.639579
0.332208
1.17746
0.458122
0.519869
0
0.702393
0
0.370744
0.25241
0.544547
0.811842
0
0
0
0.479285
0
0.377055
0.694122
0.410622
0
0.48135
0.623604
0.683373
2.08197
0
0.516292
1.60959
0.868547
1.78261
0
0
0.704216
0.569352
0.959326
0
0.970106
2.00799
0.351829
0.432472
0
0.509603
1.18138
0.829092
0
0.569343
0
0.586037
0.928212
0.808206
0
0.498703
0
0.293303
0.431888
0.464664
1.67659
0.656231
1.90546
0.935211
0
0.853104
1.0084
0.566305
0
1.20828
0.465831
0.627827
0.725688
0
0.717714
0
0.314764
0.631295
0.540135
1.31521
0
0
0
0.860169
0.563735
0.775798
0.506857
1.57489
0.157692
0
0.90592
0.274439
0
0.908609
0.308422
0.704141
0.7646
0.632568
0.457331
1.07858
0.946233
1.02319
0
0.58735
0.347573
0.625265
0.267402
0.492052
0.642339
0.60349
0.857789
0.505732
0.5126
0.401984
0.747496
1.23168
0.826681
0.633466
0.616411
1.96464
0.48362
0
0.632105
0
0.342457
0
0
0.637733
0
0.742783
0.604979
0.80024
0
0.792965
0
0
0
0.431122
0
0.831326
0
0
0.617684
1.0127
0.326803
0
0.43621
0.705408
0.363897
0.794259
0
0.40534
0
0.720552
0.977935
0.24469
0
0.449681
0.619925
0.646855
0
0
0.642077
0.624345
0
0.564547
0.445779
0.386774
0
0.76069
0
0.698484
0.323224
0.5459
0.347526
0
0.544798
0.411174
0.476444
0
0.618574
0.461998
0.440773
0.687727
0.358448
0.539956
0.880838
0
1.10275
0.992879
0.239913
0
0.286588
0
0.714537
0
0.684462
2.43275
1.14846
0.491471
0
0.689924
0.936106
0.625205
0.387838
0
0.443221
0.75804
0.542243
0.61005
0.587634
0.563116
0.62677
1.0364
0.291533
0
0
1.0824
0.448544
0.305593
0
0.251872
0.211086
0
0.539426
1.48385
0.530753
0.491806
0.757193
0
0.330151
0
0.342008
0.835826
0
0.680842
0
0.29471
0.370801
0.541439
0.458498
0.969028
1.02106
0
0
0.465027
0
0.542524
0.712077
0.512558
0.553343
0
0
0
0.627965
0
0.30747
0.390983
0.314833
0.797835
0.51852
0.675127
0.608593
0.509823
0.736723
0.356494
0.0880096
0
0
0.543018
0.831334
1.44813
1.03965
0.431804
0.749032
0.541317
0.158609
0.521355
0
0.518642
0.511357
0
1.65491
0
0
0.201752
0
0.575635
0
0.21705
0
0.596117
0.866438
0.570278
0.392725
1.28546
0.581959
0.781399
0.354133
0.353705
0
0
0.352381
0.356386
0
0.417823
0
0.734525
0
0.573464
0
0.563001
0.146907
0.434155
0.949688
0.946152
0
1.45958
0.612767
1.59825
0.631736
0.571676
0.661863
1.00782
0.61286
0.477828
1.83675
0.586751
1.05378
0
0
0.634969
0
0.514538
0.04681
0
0.318015
0.798052
0
0.710336
0.380812
0
0.403882
0
0.493594
0
0.387632
0.90418
0
0.541831
0.310085
0
0.551918
0.64018
0.230468
1.08819
0.687511
0.585106
0.785146
0.373744
0
0
0.560487
0
0.494119
0
0
1.95495
0.76798
0
0
0
1.0871
0.246362
0.758483
0.892856
0.795029
0.824569
0.818479
0.304595
0.864579
0.4477
0.618538
0.445934
0.565455
0.484313
0
0.573317
0
0.722081
0.38745
0.481155
1.03239
0.143871
0.398051
0.680167
0.0268698
0
0
0.345396
0.83551
0.437589
0.779039
0.413504
0.659955
0.224
1.09513
0
0
0
0.795975
0
0
0
0.260801
0
0.348745
0.548718
0
0.433183
0.729172
0.40127
0
0.800451
0.415172
1.11623
0
0
0
0
0
0
0
0.527308
1.42625
0.814184
0
0.386168
0
0.541036
0.78646
0.378905
0.318333
0.488998
1.0111
0.494243
0.220438
0.213923
0.366196
0.906045
0.49859
0.658181
0.335562
1.07773
0.704685
0.523533
0
0.629872
0
0.731401
0.467099
0
0.444129
0.19459
0
0.241938
0.42722
0.821968
0
0
0.462753
0
0.503498
0.473869
0.434663
0
0.62601
0.499001
0
0.466514
0.450111
0.969721
0
0
0
0.360021
0
0.226089
0.222973
0.707034
0.13539
0
0.240357
0.666392
0.71691
0.462171
0.478276
0.134446
0.457237
0
0.604735
0.334958
0.349049
0
0.382783
0
0
0.427668
0.939981
0.169771
0
0
0.642724
0
0.462666
0.244586
0.70864
0.61202
0.781574
0
1.41421
0.623631
1.44167
0.745118
1.44208
0.161957
0
0.286886
0
0
0
0
0
0
0
0
0
0
0
0
0
0
0
0
0
0
0
0
0
0
0
0
0
0
0
0
0
0
0
0
0
0
0
0
0
0
0
0
0
0
0
0
0
0
0
0
0
0
0
0
0
0
0
0
0
0
0
0
0
0
0
0
0.335823
0.545063
0.967176
0.500454
0.596896
0
0.672409
1.81619
0.269155
0.359015
0.84356
0.69057
0.356376
0
0.343208
0.894449
0.304166
0.85716
0
0.487223
0.443532
0
0.513184
1.10961
0.38245
0.37713
0
0.406925
0.466042
1.54231
0.572872
1.8732
0.714215
0.310758
0
1.23708
0.248264
0
1.42817
0.424019
0.150458
0.911396
0.342823
0.549118
0.507365
0
0.472859
0.718318
1.31519
0.325929
0
1.44434
0.945704
0
1.61059
1.32557
0.36735
0.4158
0.44708
0.630267
0.992623
0
0.499853
1.81986
0.766449
0.609368
1.59702
1.12795
0.883305
1.03064
0.753572
0.688505
1.33401
1.53578
0.49655
0.97862
1.21615
0.937277
0.572092
0.896834
0.808094
0
0.613424
0.953224
0.736798
0
0.782599
0.566554
0.622186
0.644716
0
0.583041
0.388484
1.89733
0.267589
1.34748
0
0.951438
0.861574
0
0
0
0.615501
1.3903
0.286423
0
0.600089
1.28025
0.684482
0
0.525615
0.825592
1.64777
0
1.25214
0.676909
0.537938
0.961792
0
0.616562
0
1.32469
0.908659
0.642003
0.815856
0.775472
0.780673
1.0354
0.399482
1.1604
0.763957
0
1.03116
0.493947
0.650302
0
0.716164
0.640001
1.50297
0.763128
1.27783
1.09339
0.622145
1.16876
0
1.29835
0.735982
0.808523
0.620304
1.37019
0
0
0.704859
0.450551
0.276411
0
0
0.483082
0.956939
0.41253
0.991447
0
1.27767
2.42084
1.00544
1.07894
0
0.567109
0.484961
0.638863
0.356698
0.5607
0
0
0.539079
0.642192
1.09516
0
0.472849
0
0
0.986422
1.04741
1.12595
0.63198
0.618161
0
1.54864
0
1.74327
0.161154
0
0.785852
2.51075
0.380114
0.858542
0.874472
1.5014
0.436562
0
0.566734
1.34789
1.20832
0.769717
1.04955
0.329352
0.780734
0.933928
1.13481
0.721336
0
0
0.552773
0
0.363162
0.423484
1.09566
1.26257
0
0.393866
0
0.692052
0.622404
0
0
1.02859
0.638924
0
0
0.696944
0.63814
0.559401
0.583852
1.69616
0
1.16925
0.665671
1.05615
0.527327
1.01757
1.62577
0.996662
0.69929
0.753964
0.628178
0.446732
0.775989
0.814092
0
0.748091
0
0.754877
0.983795
0
0
0.874277
0.446025
0.201855
0.871402
0.652875
0.528058
0.551306
0.384407
0
0
0
0.824225
2.07811
0.647418
1.03396
0.0244959
1.25256
0
1.38965
0.616431
0.578147
0.438636
0.37081
0
0.33104
0
0.454548
0.509456
0.986325
0.75686
0.519425
0.32258
0.829361
0
0.68198
0.749869
0
0.540322
0.358026
0
0.533601
1.09963
1.12665
1.37401
0.160546
0.302468
0.305038
0.599948
0.409693
1.27824
1.00686
0.769324
0.576911
0
0
0.174518
0.478203
0
0
0.741731
0
1.37798
0
0.501714
0.686224
0.662434
0.617216
0.67934
0.632854
0
0.757748
0
0.410557
0.964999
1.38338
0.472821
0
0.459753
0
0
0.725582
0
0.954328
0.699544
1.07417
0.621405
0
0.687917
0.83456
0.666237
0.677152
0
0.494318
0.740149
0.931597
0.11095
0
1.78991
0.674803
0
1.10369
0.189284
1.35022
0
2.39508
0.683486
0.74989
0.57123
0.359598
0
0.901336
0.834541
0.392003
1.03897
0.593591
0
0
0.523184
0.511656
0.643462
0
0.599108
0.449119
0.497139
0.661913
0
0.793893
0
0.675385
1.50465
0.473507
0
0.791628
0.534983
0.767026
0.360945
0
0
0
0
0.561682
0.599498
0.508847
0.364289
0
2.01232
0.669263
0.687642
1.35665
0
0
0.846593
0
0.676937
0
0
0.82872
0.639855
0.735142
0
1.55808
0.617581
0.324141
1.00515
0.907518
0
0.622936
0.712151
0.783575
0.97472
0.772226
0.666657
0
0.855098
1.14567
0.473142
0.312478
0.831356
0
0.519291
0
0.919673
0
0.546952
0.849962
0
0.720077
0.650704
0.715032
1.03102
0.458906
0.734171
0
0
0.572735
0.968601
0.110168
0
0.94438
1.59981
1.34721
0.964875
1.26658
0
0
0.821248
0.765128
0.836866
0
0
0.277958
0.484648
0.677772
0.355561
0
0.478755
0.9922
0.582883
0.804986
0.990352
0.340409
1.26353
0.923112
0
0.656199
0.843712
1.25027
0.840936
0
0.49542
0.50969
2.28269
0.929843
0.492027
0.598801
0
0.731201
0.889172
0
0.608974
0.455744
0.4396
0.522963
0.544539
0.608758
0
0.480183
0.193039
0.539188
0.867717
0
0.871611
0.441112
0.28152
0.486401
1.31866
1.23769
0.579706
0.525958
0.440423
0.669511
0.560754
0.880951
0.699315
0.663313
0.581219
0
0.731566
0
0.7179
2.18931
0.73689
0
0
0.633856
0.681959
0.522359
0.253789
0.617295
0.363384
0.657983
0.364601
0.871131
0.732332
0
0.616817
0
0.626538
0
0.452244
0.644723
0.0125655
0.24412
0.341461
0.200675
0
0.541352
0.56297
0
0.771947
0
0.806971
0.777139
0.562894
0
0.360654
0.343457
0.445765
1.10553
0.696705
0.393778
0
0.694563
0
0.665718
0.464064
0.686701
0.828711
0.678447
0.55741
0.405308
0.347777
0
0.274351
0
0
0
0.277655
0.51006
1.47293
0
1.07823
0
0.373762
0
0.311827
0
0.401457
0
1.34731
0
0.594074
1.60938
0
0.744435
0.560026
0
0.439527
0
0
0
0.397827
0
0.55501
0.594842
0.660988
0
0.684894
2.07582
0
0.662858
0
0.37772
0
0.353673
0.690864
0
0
0.674456
1.28602
0
0.892758
1.56643
0.654149
0.267446
0.302982
0.943822
0.904724
0.495574
0.505429
0
0.502465
0
0.948376
0.262894
0.487497
0
0.773311
0
0.72678
0
0
0.411876
0.585611
0
1.27985
0.860732
0.323849
0.384862
0.671845
0.833421
0.539884
0.293596
0.452628
0
0
0.381182
0.2684
0
0.6014
0
0.324623
0.328769
0.851585
0.597501
0.02632
0
0.582636
0.45409
0.352102
0.517424
0
0.373735
0
0.986989
1.30742
0.483986
0.327608
0.763775
0.731976
0.307829
0.573187
0
0
0
0.435383
0
0.273213
0.663404
0.401827
0.873809
0
0.274894
0.100474
0.358259
0.891536
0
0
0.683421
0.97023
1.10672
0.718911
0.701695
0
0.931783
1.02537
1.31456
0.69996
0.551722
0.591319
0.705784
0.524044
0.329658
0.597427
0.526103
0
0.64791
0
0.555545
0.426814
0.753076
0
0.718196
0
0
0.271298
0
0.674235
0
0.644169
0.547516
0
0
0
0
0.685586
1.01732
0.778733
0.528236
0
0.752999
1.22531
0.744416
2.37298
0.402353
0.953337
0
0.502989
1.05872
0.419138
0
0.793319
0.45465
0.355443
0
2.01867
1.73148
0
0.709585
0
0.201408
0
0.682902
0.424859
0.987033
0.890403
0
1.17111
1.23125
0.484472
0.80369
0.893719
0
1.19513
0.844414
0.620818
0
0.661733
1.45992
0.877454
0
0
0
0
0
0.615718
0
0.640637
0
0.642636
0.405883
0.692613
0.486029
0.32774
0.555449
0
0.12424
0.6261
0
0.177871
0.196982
0.441571
0.52362
0.649939
0.377466
0.600207
0.821898
0
0.534903
0.828975
0.54839
0.662332
0.81171
0.877995
0.575577
0.520673
0.480798
0.969936
0.693417
0.264833
0.517321
0.4015
0.447113
0.549815
0.620294
0.435139
0.772128
0.617776
0.528838
0.56341
0.440906
0.239767
0
0.438422
0.633651
0.469501
0.312587
0.759806
0
0.600131
0.50624
0
0.45468
0
0.413261
0.71074
0.591106
0
1.20286
1.76563
0.79232
0.59577
0.33786
0.492394
0
0.540457
0.541042
0.391207
0.853136
0
0.538917
0
0
0.905562
0
0.686821
0
0
0
0
0.648296
0.522667
0
0.607982
0
0
0.478257
0.457083
1.26358
1.06872
0.61532
0.278977
0.544051
0
0.43698
0
0.725634
0.756108
0.292266
0.231586
0
0
0.86492
0.701165
0
0.448243
0.507933
0
0
0.533044
0.864251
0.388481
1.08583
0.78167
0.444557
0.369995
0
0
0.42721
0.434203
0.357586
0.889109
1.07885
0.742171
0.402619
0.489759
0.699151
0.313511
0.328673
0
1.26085
0.640996
0.193711
0.16595
0.428078
0.686525
0.470147
0.408874
0
0.4629
0
0.223408
0
0.249435
0
0.565969
0.266347
0.635612
0.272761
0.55747
0.51339
0.885032
0.555513
0.831304
0.641568
0
0.331583
0.326156
0
0.709158
0
0.245148
0
0.594645
0
0
0
0
0
0
0
0
0
0
0
0
0
0
0
0
0
0
0
0
0
0
0
0
0
0
0
0
0
0
0
0
0
0
0
0
0
0
0
0
0
0
0
0
0
0
0
0
0
0
0
0
0
0
0
0
0
0
0
0
0
0
0
0
0
0
2.86907
0
0
0
0
1.31988
0.449988
0
0
0.843807
1.60685
0.523358
0
0
0
0
1.03072
0
0.383669
0.772045
0
0
1.35334
0.91068
0.632151
0
0
1.47325
0
0.23551
0
0
0
0
0
0
0
0
0
0
0.207406
0
0
0
0
0
0
0
0.839394
0
2.04755
0.536065
0
0
1.21997
0
0
0
0
0.752264
0
0
0
1.31784
1.86939
0.948799
0.525667
0.198586
0.880186
0.546914
1.81093
2.03773
1.77049
0
0.811792
0.540102
0.796741
0.601095
0
1.09536
0
0.682553
0
0.465931
0.417793
0.850919
1.05263
0.30397
0.634354
0
1.14227
0.912201
0.897311
0.497546
0
0.823831
2.97079
0.338742
0.0840572
0.708633
0
0.702513
0
0.480569
0.936494
0.692232
0
0
0.947206
0.321636
0
1.08643
2.42943
2.1949
1.89099
0.457294
0
0.607724
0
0.470507
1.99174
1.23214
1.0542
0.687571
0.977718
0.823468
0.850123
0.769346
0.363578
1.03155
1.5584
1.35267
0.733279
0.81689
0.757228
0.594387
0.52494
1.02389
0.428734
1.00206
2.15375
0
1.02486
0.633176
0.396798
1.2798
1.5135
0.523002
1.75982
0.503626
0.407541
0.769342
0
0.67529
0.86668
0.96008
0.645409
0.695467
0.146434
0.834897
0.39245
0.534183
0.989543
0.745551
0.749271
0.352296
1.18243
0
0.532213
1.10126
1.17142
1.17245
0.352098
0
0.566051
0.821832
0
1.11872
0
0.672919
1.23414
0.544272
0
0.556364
0.121818
0.814916
1.4599
1.1212
0.580723
2.56968
0.755934
1.5229
0
0.515084
0
0.239181
0.855049
0.618621
1.05394
1.5234
0.580215
0.786095
0
0.432746
0.373556
0
0
0.854596
0.930275
0.735187
0.826518
1.74806
1.62741
0.925426
0
0.658711
0.449131
0.445436
0.871657
0
0.608648
2.1568
1.42528
0.75832
0.546105
0.736529
0.584394
0.548734
0.551165
1.02739
0.381537
0.454432
0
0
0
0.579325
0.778154
0.582411
0.676265
0.379856
1.50259
0.238374
0.74162
0
0.738265
0.694802
1.11398
0
0
0.367132
0.470396
0.685889
0.35807
0
0.725802
0
0.694685
0.961695
0.325416
0.574564
0
0.659281
0
0.519325
0.621789
0.612076
0
0.728404
0.372627
0.483837
1.03897
0.570596
0.772999
0.146376
0.614243
0.71594
0.915931
0.662919
0.45229
0.177848
0.605718
1.40353
0.775025
0.48604
0.645235
0.630497
0
1.09496
1.89337
0
0.620052
0
0.460753
0.705643
1.00853
0.524191
0
1.31371
0.60474
0.331483
0
1.28591
0.803047
0.555505
0.644517
0.412457
0.490493
0.415234
0.731546
0.941326
0
0.710813
0.353299
0.496515
0
0.60485
0
0.554715
0
0
0
0
0.966432
0.271122
1.03726
0
0.63592
0.488045
0.51784
0
0.201909
0
0.66835
1.34849
0
0.678914
0.405716
0.961503
1.3112
0.750209
0.230347
0
0.440923
0
0.642869
0.55557
0.322857
0.416515
1.34553
0
0.77408
0.934244
0.789193
2.08756
0
0.78836
0.646936
1.19977
0.917546
0.276145
0.546569
0.764086
0.807271
0.373519
0.714709
0
1.28418
0.602654
0
0.408567
0
0.90088
0.866556
0.904887
0.735606
0.663198
0
0.422701
1.39483
0.842517
0.664375
1.26855
0.444909
0.177734
0.622849
0.384874
0.515322
0
0.475036
0.533806
0
0.427834
0.337623
0.630094
0.39021
0
0.7865
0.400784
0.602914
1.11999
0
0.525275
0.667986
1.11007
0.640657
0
0.807009
0
0.644185
0.86756
1.0405
0
1.1851
0
0.498168
0.474297
0.221371
0
1.2542
0.63483
0.894173
0.603617
0.44262
0.55196
1.18923
0.809675
0.640151
0.536596
0
0.257746
0.124729
0.809495
2.25261
0.497548
0.849805
0.719684
0
0.677089
1.6474
0.66063
0.689558
0
0.613814
0.125066
0
0.967163
0
0.705501
0.639751
0.569591
0.53618
0.69319
0.185655
0.469972
0.856213
0.943349
0.694954
0.964105
0.515431
0.286967
1.00312
0.448147
0.537239
0.647631
0.207094
1.29369
3.28199
0.801349
0.922074
0.976035
1.7488
0.695746
0.352272
0.61707
0
0.450961
0.386308
1.14803
0
1.88523
0.367789
0.308661
0.898627
0
0.889064
0.611002
0.95146
0.417599
0
0.504778
1.27705
0
0
0.622048
0.814806
0
0.384556
0
0.374098
0
0.538859
0.463853
0.325909
0.282375
0.287358
0
1.15201
0.571435
0.808582
1.64866
0.698387
0
0
0.298651
0
0.276387
0.599521
0.80802
0
0.626874
0.468942
0.41059
0.360668
0.844387
0.390456
0.954405
0.505276
1.12635
0.630833
0
0.628762
0.585992
0.44912
0.887522
0.642326
0.818772
0
0.30656
0
0.620803
1.55711
0.517698
0
0
0.155498
0.489103
0.236688
0
0.920816
0.742944
0.727193
0
0.566576
0.105678
0.436155
0
0.943355
0
0.338024
0.113139
0
0
0.431196
0.786086
0.74362
0
0
0.64054
0.618421
0
0.500683
0.524457
0
1.1123
0.403147
0.428781
0
0.352646
0
0.307552
1.50994
0.942819
0
0.748104
0.524838
0.497385
0
0
0
0.751981
0
0.117616
0.427394
0.989042
0.808891
0.502979
2.11907
0.74971
1.04441
0.605098
0
0
0
0.479707
0.498064
0
0
0.542862
0
0
0.502027
0.195825
0.674917
1.49874
0.739961
1.10256
0.786356
0
0
0.2861
0.480234
0.784504
0.307442
0.648536
1.03071
1.10364
1.20878
0.80854
0.427132
0.53707
1.11219
0
0.611196
0.828268
0.367169
0
0.45264
0.529188
0.950207
0.771674
0
0.787013
0.465827
0.534585
0.439532
0.279903
0
0.664773
0.918474
0
0.371118
0
0.526999
0.404279
0
0.384696
0.336603
0.653435
0.482232
0.797755
0.352713
0.50552
0
1.44331
0
0.669879
0.556001
0.749309
0
0.519871
0.130557
0.55765
0.473078
0.41124
0
0.320732
0
0
0
0.405512
0.666291
0.522658
0.863849
0.799066
0
0.315921
0.676257
0.54661
1.0473
0.699565
1.94807
0
0.396876
0.605418
0.95421
0.440979
0.298542
0.405135
0
0
0.834887
0.581577
0
0.494117
0
0.451813
0.594547
0.652189
0
0.510151
0.381431
0.955783
1.0404
0.544655
0
0
0
0.895492
0.345818
0.505297
0
0
0.51964
0
0.534925
0.397043
0
0.791276
0.273476
0.612547
0.480469
1.01438
0.37889
0.436129
0
0.355133
0.881845
0.370637
0.908285
0
0.680662
0.308679
0
0.433974
0.36502
0.502943
0
0.59275
0
0.809307
0.882979
0
0
0.878743
0
0.417866
0
0.963027
0.379901
0
0
0
0.207814
0.517662
0.525491
0.4013
0
0.207952
1.91266
1.38902
0.706664
0.351849
1.08476
0.602647
0.289437
0.250617
0.380892
0.34476
0.093453
0
0.798269
1.23089
0
0.689766
0.185092
0
1.11629
0.696657
0.467656
0
0.350589
0.296252
0
0.773491
0.261311
0.300691
0.742114
0
0.366196
0.66286
0.434059
0
0.455278
0.543059
0.257081
0.391399
0.752358
0.412815
0.544561
0
0.340369
0.578703
0.925901
0.638257
0.741345
0.785381
0.1277
0.219119
0.744851
0.671267
0
0.903005
0.48818
0
0
0
0
0
1.85592
2.19284
0
0.71191
0.718388
0.254232
0.359513
1.05401
1.85907
0.32853
0.284318
0
0.62975
0
0
0
0
0.75674
0
1.12243
0
0.787867
0
0.821353
1.81724
1.0807
0
0.364081
0.575915
0
0.193654
0
0.72736
1.39761
1.85289
0.63338
0.494784
0.348681
0.556688
1.20224
0
0.382774
0.207385
0.893116
0.338664
0.554264
1.24893
1.05919
0.480077
0.2129
0
0.501
0.684798
0
0.597363
0
0
0.589776
2.43161
0.527188
1.4391
0.384033
2.16888
0
0.280007
0.437673
0.677305
0.415671
0
0.571537
0
1.08395
0
0.48965
0.595289
0.812229
0.356747
0
0.650338
0.838228
0.254332
0.871316
0
0.356082
0
0.592183
0
0
0
0.561144
0
1.6317
0.69548
0
0
0.255573
0
0.411564
0.491603
0.665683
0.405374
0.558857
0.533208
1.01193
0.631487
0
0.421209
0.351202
0.214865
0
0.996229
0
0.257429
0.646156
0
0.545305
0
0.475758
0.417443
0
0.928836
0.423655
0
0.396605
0.355401
0.849985
0
0.713734
0
0.443313
0.419407
0
0
0
0
0
0
0
0
0
0
0
0
0
0
0
0
0
0
0
0
0
0
0
0
0
0
0
0
0
0
0
0
0
0
0
0
0
0
0
0
0
0
0
0
0
0
0
0
0
0
0
0
0
0
0
0
0
0
0
0
0
0
0
0
0.470645
0.439058
0.405172
0.387109
0.313921
0
0.508154
1.03186
0.176969
0.587778
0
0.410993
0.529165
0.75258
0.300398
0.84704
0.271827
0.496052
0
0.670208
0.294475
0.353178
0.525733
1.29256
0.537073
0.601202
0
0.42741
0.534139
0.832928
0.510312
1.30079
0.308534
0.718283
0
0.185824
1.49735
0
0.70961
1.53589
1.47261
0.38098
0
0
0.502923
0.307043
0.886899
0.424504
0.166809
1.33748
0
1.02278
0.642057
0
0.431359
2.61015
0
0.386429
0
1.02921
0.695947
0
0.964079
0.899668
1.38889
0.775756
0.601551
0.596982
1.25236
0
0.840712
0
0.477492
0.788469
0.812106
0.841158
0.510533
1.4552
0.77956
0
0.408595
0.551135
0
1.28435
0.588731
0.655646
0.853016
0.813396
0.82431
0.549859
1.88001
1.33293
0.786744
0.668217
0.681776
0
0
0.446936
1.87868
0.927579
0
0
0.541825
0
0.540907
0
0
0.806312
0
0
0
0.497185
0
0.732667
1.17721
0
0.0953964
0
0.334303
0.875315
0.883807
1.55552
1.46068
0.945287
0.629414
0.457938
0.444744
0
0.0193321
0.603185
0.192433
1.36314
1.1009
0
0.780825
0.367577
0
0
0.703784
0.568293
0.876229
1.68454
0.691587
0.29954
0
0
0.394672
0.412902
0.746414
0.854272
0.556235
0
0.483715
0
0
0.886716
0
0.335167
0.687172
0.25721
0.0910684
0.538634
0.498214
0.680915
0
0
1.87727
0.800243
0.634301
0.787642
0
0.827023
0
0
1.57461
0.545612
1.04173
1.31918
0.713856
0
1.84786
0
0.327427
0.466285
0.721795
0
0.687224
0.441249
0.62815
0
1.44347
0
0.732161
0.798553
2.4104
0
0.918577
2.16616
0.364617
0.93162
1.51457
2.08405
0.567299
0.677825
0.545531
0.523019
0.703729
0.859584
0
0.675413
0
0.448249
0.817915
0.615135
0.44367
0.60407
0.532704
0.820474
0.241168
0.704459
0.443435
0
0.589637
0.977062
0.969215
0
0.738592
0.691838
0.607571
0.899279
0
0.690845
0
1.23193
0.648901
0.999676
1.10876
0.370718
0.367278
0
0.477312
0.79876
0.356904
1.08218
0
0.624099
1.19315
0.488073
0
0.71724
0.736667
0.572497
0.721968
0.694471
0.4487
0.704231
0.347214
0.875929
0.912324
1.03233
0.447306
0.539652
0
0.519335
0
0.343781
0.508988
0.531141
0
0.612598
0.58011
0.720809
0.529809
0.989303
0.403897
0.727054
0.537444
0
0.548593
0.635368
1.68666
0.780092
0
0.915479
0.541189
0.564952
0
1.01207
0
1.51504
0.921204
0
0.69755
0.748231
0.832905
0.301037
0
0.681321
1.44811
0
1.44525
0.658516
0.628199
1.0614
0.968294
0.92557
0.459415
0.734449
0.468331
0.57639
0
0
0.731486
0
0.340102
0
0
0.831874
0.330162
0.735916
0.397249
1.13335
0.44694
0.925322
0.477353
0.561795
0.0973891
0.109406
0.889867
1.1464
0
0.401974
0
0.890904
0
0.554671
0
1.09786
0.241716
0.494566
0.629039
0.952275
1.08807
1.05138
0.745858
0.645161
0.714663
0.546498
0
0.507908
0
0.47963
0.0457902
0.649174
2.21512
0.892609
1.2008
0
0.380914
0.874156
0
0.588983
1.84063
0.598087
0.7043
0.961228
1.16616
0.652032
0
0.173191
0.466266
0
0.591534
0
0.702316
0
0.82598
0.821965
0.638949
1.10236
1.1414
1.23086
0.681383
0
1.1468
0
0
0.560191
1.40535
0.625952
0.953697
0.559242
0.897316
0
0
0.622061
0.490369
1.40629
1.18729
0.924974
0
0.638251
0.57107
0.42846
0
0.895572
0.37249
0.594746
0.467179
1.03316
0
0.824562
0
0.617699
2.91004
0.552862
0
0.385856
1.01399
0.303673
0
0
0
0.583506
0
0.651524
1.10005
1.64804
1.01123
0.564821
0.572998
0
0.522979
2.08436
0.722197
0.46859
0
0.689741
0
0.557445
0
0.576818
1.14906
0.666075
0.611442
0.539028
0.310676
0
0.35863
0
0.682851
1.03214
0.644743
0.70231
1.31073
0.565139
0
1.01571
0
0.48776
0.602567
0.291853
0.270466
0.539091
0.331525
0
2.7492
3.5612
0.559613
0
0.905462
0.392124
0.448476
0
0.845367
0.227485
0.38624
0
0.678368
0
1.02158
0.699303
0
0.806147
0
0.654554
1.12792
1.72048
0.432236
1.75793
0
0
0.346982
0.633911
0
0.531609
0
0.456014
0
0
0
0.662266
0.888646
0.831106
1.01031
0.312244
1.08833
0.6749
0.611825
1.55187
0
0.65297
0.686563
0.439739
0
0.669385
0.442601
0
0.491595
0.185897
0.496098
0.593021
0.554272
0
0
0.596653
0.473057
0
0.669809
0
0.561759
0
0.568407
0.61776
0.458469
0
0.402264
0
0.805339
0.403744
0.609212
1.74775
2.76758
0.648001
0.139475
0.924826
0.259682
0
0.504535
0.266382
0
0.969436
0.461248
0.760577
0.322049
1.02431
0
0.611206
0
0.551081
0
0.916442
0
0.792741
0
0
0.311078
0.473025
1.25497
0.463997
0
0.313642
0
0.69011
0
0.619949
0
0
0.421291
0.442225
0.379006
0.492328
0
0.483537
0.454909
0.860049
0
0.616368
0.662717
0.373898
0
0
0.54114
0
0.0644803
1.10796
0.264348
0.606593
0.343136
1.01573
1.31062
0.33876
0.437343
0.166072
0
0.497696
0
0.728469
0.325533
0.53456
0
0.367683
0.220971
0
0
0.60163
0.744739
0
0.476395
0.519485
0
0.542896
0.408336
0.36203
1.17625
0.929966
0
0.367047
1.03546
1.42515
0.761992
0.446287
1.10428
0.497659
0.505274
0.337328
0.480581
0
0.309131
0.900945
1.00864
0.401223
0.992314
0.404303
1.4525
0
0
0.444879
0
0.615764
0.540054
0.496462
1.03994
0.888887
0.612624
0.551204
0.506859
0.411441
0
0
0
0.772621
0.685392
0.834753
0.451547
0
0.823418
0
0.479556
0.546449
0.590797
0
0
0.58119
1.00666
0
0.217407
0
0.872517
0.272907
0
0.573063
0.214454
0.822353
0.665547
0.257692
0.441184
0
0
0.287808
0
0.509016
0.967221
0
0.713007
0.692151
0.61887
0.417666
0.384371
0.385148
0.300329
0
0
0.702394
0.582944
0.811448
0.234081
1.21117
1.36345
0.441972
0.813854
0
1.04194
0.256357
0
0.667807
0
0.406577
1.34597
0.449608
0.619838
1.0082
0.872537
0.644275
0.663166
0.522374
0.320951
0
0.504681
0.0611268
0
0.955396
0
0.717163
0.381971
0.429474
0
0.856379
0.216044
0.892829
0
0.35792
0.812026
0.421935
0
0
0.614614
0
0
0.53024
0.440789
0
0.586445
0.632486
0.630238
0.470362
0
0
0.570735
0.598198
0.571124
0
0.622673
0
0
0
0.501345
0.205054
0.775585
1.41781
1.42355
0.661191
1.11308
0.698427
1.04283
0
0.736961
0.239412
0
0.256205
0.3576
0.419413
0
0.536172
0
0.307299
0
0
0
0.301226
0.186259
0.281569
0.815351
0.542806
0.31464
0.525373
0.791143
0.57471
0
0.489777
0
0.403489
0
0
0.283565
0.476694
0.423493
0.418131
0.475467
0
0.592712
0.714151
0.662571
0.639707
0.675047
0.580189
0.720547
0.330414
0.813813
0.339881
0
0.5101
0.581603
0.687089
0.340208
0.577071
0.545977
1.19328
1.22195
0.541591
1.51762
0.520883
0.608494
0.887026
1.07503
0.69975
0.593179
0.2371
0.59132
0.865989
0.42068
0.653533
0.516782
0.480557
0.608785
1.1039
0.867676
0
0.478892
0.387355
0.403905
0.626054
0.680815
0.614071
0.574451
0.450596
0
0.761925
0.257877
0.307044
0.391632
0.427033
0.930058
0.78138
0
0.446577
0.471452
0
1.03678
0.840538
0.363657
0
0
0.332352
0.333736
0.689397
0.677414
1.09951
0
0.402174
0.418309
0.252166
0.522222
0.342682
0.922132
0
1.12722
0.398566
0.400669
0
0.625476
1.05548
0.451255
0
1.17543
0
0.570563
0.485017
0.36518
1.29564
0.761229
0.344574
0
0.820764
2.15603
0.986708
1.76979
0.532108
0.743664
0.680336
0.790753
0.451434
0
0.507653
0.584269
0.532909
0.10618
0.350951
0.647802
0.712675
0
0.408509
0.380411
0.315204
0
0
0.353246
0
0.575344
0.479922
0.438136
1.07571
1.09133
0.845117
0.661235
0
0.776077
0.550904
0
0.688296
0
0.893779
0
0.478155
0
0.700907
0
1.40798
0.376894
0.194507
0
0.492913
0.629843
0
0.396944
0.646348
0
0.489086
0.117565
0
0
0
0
0
0
0
0
0
0
0
0
0
0
0
0
0
0
0
0
0
0
0
0
0
0
0
0
0
0
0
0
0
0
0
0
0
0
0
0
0
0
0
0
0
0
0
0
0
0
0
0
0
0
0
0
0
0
0
0
0
0
0
0
0
0.220513
0.482207
0
0.31485
0.439509
0
0.54342
1.08206
0.375909
0.493448
0
0.63883
0.347547
0
0.464336
1.05258
0.304477
0.433069
0
0.469504
0.543518
1.60777
0.483236
1.14934
0.286185
0.580335
0
0.4024
0.395775
0
0.527631
1.13915
0.736888
0.285806
0
1.63945
0.806902
0
1.12307
0.588521
0.210045
1.22135
0.869187
0.637644
0.513706
0
0.368688
2.77782
0
0.358169
0
0.873124
0.117432
0
0.903436
0.38519
0.171117
3.23664
0
0.83357
0.965477
0
0.628856
0.366609
0.865356
0.780323
0.842603
1.12862
0.499049
0
0.588823
0.385142
0
1.12122
1.28803
0.95064
0.607592
0.413225
0.543068
0.514283
0.88394
0
0.241708
0.862622
0
0
0.439981
0.884993
1.08914
0.902628
1.02069
2.11353
0.774049
0.768483
0
1.2837
0.355895
0
0.695442
1.76832
0.64597
0.395048
0.837648
0
0
0.726222
0
0
0.482172
0.669961
1.74595
2.07376
0.849935
0.723936
0.431067
1.01909
0.97218
0.521196
1.83865
0.85961
1.06795
0.790169
0.676532
0.718985
0.962773
0
1.13907
0.715635
0.319841
0.969676
2.09639
0
0.735883
0.853789
0.433772
0.822468
0.717352
0.230655
0.775605
0
1.65464
1.03857
0
0.426084
0.374592
0.455128
0.934284
0.50942
1.54453
0.946787
0
0
0
0
0.949333
0.49597
0.619198
0.687758
0
1.27314
0.591459
0
3.0349
0.439902
0.823546
0
1.94513
0.75434
1.43866
0
0.0962155
0
0.416828
0.672013
0
0
0.902124
0.880897
0.77633
0.940554
0
0.535934
0.480149
0.451815
0.83343
0.337809