<?xml version="1.0"?>
<VTKFile type="RectilinearGrid">
<RectilinearGrid WholeExtent="0 32 0 32 0 32" Origin="0 0 0" Spacing="1 1 1">
<Piece Extent="0 32 0 32 0 32">
<PointData>
</PointData>
<Coordinates>
<DataArray type="Float32" format="ascii">
0 0.524874 1.04975 1.57462 2.0995 2.62437 3.14924 3.67412 4.19899 4.72386 5.24874 5.77361 6.29849 6.82336 7.34823 7.87311 8.39798 8.92285 9.44773 9.9726 10.4975 11.0224 11.5472 12.0721 12.597 13.1218 13.6467 14.1716 14.6965 15.2213 15.7462 16.2711 16.796 
</DataArray>
<DataArray type="Float32" format="ascii">
-5.03879 -3.62163 -2.20447 -0.787311 0.629849 2.04701 3.46417 4.88133 6.29849 7.71565 9.1328 10.55 11.9671 13.3843 14.8014 16.2186 17.6358 19.0529 20.4701 21.8872 23.3044 24.7216 26.1387 27.5559 28.973 30.3902 31.8074 33.2245 34.6417 36.0588 37.476 38.8931 40.3103 
</DataArray>
<DataArray type="Float32" format="ascii">
0 0.524874 1.04975 1.57462 2.0995 2.62437 3.14924 3.67412 4.19899 4.72386 5.24874 5.77361 6.29849 6.82336 7.34823 7.87311 8.39798 8.92285 9.44773 9.9726 10.4975 11.0224 11.5472 12.0721 12.597 13.1218 13.6467 14.1716 14.6965 15.2213 15.7462 16.2711 16.796 
</DataArray>
</Coordinates>
<CellData>
<DataArray type="Float32" Name="Scalar" format="ascii">
0
0
0
0
0
0
0
0
0
0
0
0
0
0
0
0
0
0
0
0
0
0
0
0
0
0
0
0
0
0
0
0
0
0
0
0
0
0
0
0
0
0
0
0
0
0
0
0
0
0
0
0
0
0
0
0
0
0
0
0
0
0
0
0
0.222304
0.499632
3.15732
0.521089
0.260287
0.511026
0.37055
0.750067
0.0596797
0.273003
0
0.416239
0.327236
0.724886
0.572622
1.11644
0.184076
0.540717
0
0.336106
0.403072
0
0.500334
0.834118
0.0528943
0.474202
0
0.325877
0.281634
0
0.242474
0.802048
0.316724
0.920038
0
0.140233
1.38898
0
0.277416
0.687222
0
0.195423
0
0.822586
0.13064
0
1.68355
2.42294
0.51297
1.14213
0
0.190129
0.657132
0
0.567138
0.5523
0.58827
0.472379
0
0.968665
0.405223
0
0.400726
0.603398
0
0.282915
0.590501
1.86848
1.26083
1.01509
0.584517
0
1.10398
0.957337
1.35634
2.53378
0.655884
1.19087
5.20801
0.307852
0.568524
0
0.779381
1.05192
0.4807
0.101913
0.472547
2.9711
0.528329
1.59148
0.543147
0.894074
0.832163
1.3422
1.24067
0.507817
0.452158
0.516497
0.599802
0.767512
0.795917
0.63659
0
1.04336
0.433057
0.326335
0.316137
0.865108
1.01402
0.789541
0.585148
0.604281
0.251558
0.501009
0
0.648812
0
0.555943
0.580865
0.796622
1.84319
0.920121
0.870119
1.22037
1.62517
1.13432
2.17534
1.28849
0.341496
0.573329
0
0.712288
1.70183
0.882175
1.05081
0.475549
0
0.807911
1.26899
0.125602
0.908049
1.0212
0.197507
0.878113
1.32329
0.702954
0
0
0.909357
0.700305
1.34555
1.21441
0.915339
1.1693
0.581312
0
0.221109
0.736158
0.343389
1.5851
0.136401
0.69432
0
1.12422
0
0.862545
1.3814
1.04945
0.295927
0
0.39343
0
0.892488
0
0.173218
0.29305
0
1.04999
0
0.734469
1.15611
0
0.771686
0
0.785376
0
1.01083
0.699487
0.762626
0.922591
0.7901
0.908331
1.83127
0.494171
0
0.202793
0.56712
0
0.402697
0.320397
0.434123
0
0.364445
1.00101
1.66465
0
0
0
1.02271
0.574392
0.539584
0.290791
1.2044
0.759828
0.707592
0.343457
0.442596
0.260273
0.831934
0.586938
0.644165
0.678105
0.923429
1.35231
0.202598
0.595363
0.262959
0.679094
0.982623
0.50212
0.361116
1.382
0
0.685419
0
0.787475
0.945881
0
0.259466
0
1.07294
0.746134
0
0.381809
0.782197
0
0.539696
0.450785
0
0.425117
0.938735
0.499785
0.647694
0
0.514882
0
0.453613
1.90372
0.435359
0
0.540237
0
0.508381
0.67746
0
0.84145
0.594364
1.15526
0.728559
2.08482
0.682501
0
0.745844
0
0.524716
0.995331
0.81676
0.591741
0.71972
0.632994
0.487747
0
0.747728
0.982957
0.48825
0.468368
0.683418
0.64759
0.606155
0.552625
0
0.331476
0
0.492821
0
0.633297
0.582164
0
0.483106
0.669162
0.731179
0.925868
0.392075
0.348898
0.667671
0.832456
0.431112
0
0.76234
0.994135
0
1.03211
0.704669
0.358434
0
0
0.444358
0.581175
0.731933
0
0.374212
0
0.733684
0.857058
0
0.585095
1.57991
0.541875
0.756873
0.298396
1.41059
0
2.05923
0.497868
0.368927
0
0.885799
0.598188
0.554963
0.47807
0
0
0.641119
0.200298
0.590625
0.203648
0.558217
0.527249
0
1.42953
0.79132
0.673314
0.567855
0.549069
0.779849
0.542341
1.54464
0.560213
0.326482
0
0.186029
0.729577
0
0.307504
0.572561
0.651383
0
0.441618
0.485754
1.33111
0.696326
0.521023
0.535898
0.768662
0
0.414854
0.243781
0.0894072
0.467267
0
0
0
0
0.710125
0.417269
0.281775
0.435313
0.105306
0.711656
0.620722
0.658407
0
0.733844
0.639907
0.845949
0.811686
0.690392
0
0
0.674485
0.643436
1.32269
1.25119
0
0.224371
1.00498
0
0.857165
0.838517
0
0.201597
0
0.394963
0.804239
1.03013
0.360749
0.507421
0
0.94427
0.854962
0.187231
0.804569
0.467362
0.725928
1.22258
1.08443
0.109005
0.731443
0.807265
0.613645
0.983457
0
0.556727
1.42865
0.578051
0.631516
0.757473
0.776397
1.3254
0.874885
0
0.635851
0.580541
0.186913
0.9643
1.08526
0.69311
0.240448
0.500753
1.20094
0.371268
1.48863
0.890552
0.257758
1.02231
0.396782
0.614546
0.994747
0.712871
0.635341
0.864067
0
0.620724
0.844153
0
0.537777
0
0.457162
0
0.996612
0.764669
0
0.718527
0
0
0.508314
0.589965
0
0.5097
0
0
0.443669
0
0
0
0.420869
0
1.11225
0.598645
0.0277979
0.417377
0
0.481478
0.510792
0
1.09617
0.647862
2.07907
0
0.793481
0
1.15013
0.388493
0.614443
0.709372
0.558094
0
0.539147
0
0.512966
0.657791
0
0.567215
0.750192
1.37565
0.933334
0
0.89303
0.46051
0.716686
0.759877
0
0.611807
0
0
0
0.358569
0
0.448969
0.397667
0.259926
0.321982
0.825499
0.705831
0.380738
0.53053
0
0.810492
0
0
2.82152
1.19346
0.553007
0
0.818547
0.44784
0
1.10096
0
0.786632
0
0
0.338307
0.289864
0.727054
0.577994
0
0.543153
0.835027
0.345219
0.748319
0.567958
0
1.43244
0
0
0.517898
0
0.557813
1.18984
0.807313
0
0.536614
0.838847
1.79368
0.532376
0.982448
0.529098
0.419758
0.0879646
0.461164
0.541236
1.15418
0.956115
0.769435
0.77521
0.812044
0.332826
0.28464
0.428788
0.743516
0.734477
0
0.596918
0
0.521861
0
0.725471
0.349743
0.650543
0.340685
0
0.4157
0
0.753713
0.987777
0.937091
0
0.582115
0
0.350393
0.745916
1.30123
0.480436
0
1.13866
0
0.577903
1.1348
0.511576
0
0.289266
0.534799
0
0.968571
0.505071
0
0.180747
0.911693
1.00708
0.681159
0.511039
0.475044
0
0
0.0420944
0
0
0.394555
0.983006
0.409259
0
0.41256
0.616595
0.786013
0.670408
0.255079
0.728679
0.567515
0.451286
0
0.502358
0
0.761003
0
0.633124
0
0.660542
0.841851
0.883295
0.760353
0.459383
0.356846
0.552339
0.51062
0.597004
0.511109
0.376348
0.68991
0.746908
0
0.442761
0
0.672868
0
0.583245
0.727095
0.591246
0.620884
0.743518
0.400762
1.12832
0
1.35447
0.656414
2.06468
0.991124
0.478665
0.716469
0.670843
1.18566
0.671095
0.498433
0.678618
0.750071
0.960367
0.101291
0
0.553579
0.305019
0.604925
0.313072
0.572705
0.583579
0.651904
0
0
0.400106
0.349399
0
0
0
0
0.518926
1.55522
0.634795
0.685122
0
0.532292
0.915313
0.710201
0
0.734071
0
0.746785
1.34192
0.644243
0.683779
0.303054
0
0.450263
0.632246
0.574338
0.640867
0
0.874193
0.451665
0
0.51782
0.343303
0.802563
0
0
0
0
0
0.487545
1.25442
0.886894
0
1.04035
0
0.53731
0.538792
0.463619
0.789611
0
0.192721
0.833636
0.358996
0
0
0
0.587588
0.617678
1.10197
0.883058
0.340021
0.323682
0.436976
0.723327
0
0.472714
0
0.620865
0
0.456204
0
0
0.605413
0
0.636438
1.29376
0.910826
0
0.922071
1.08088
0.554232
1.36505
0.408942
0
0.707122
0.361629
0.428947
0.408754
0
0
0
0.520152
0.677473
0.480298
0
0
0.296896
0.553351
0
0
0.486639
0
0.339453
0
0.698087
0
0
0.759706
0.623358
0
0.220199
0.382878
0.281364
0.140842
0
0
0.27016
0.650576
0.391137
2.03951
0.455078
0.52749
0.335169
0
0.407821
0.526765
0
0.3824
0.615427
0.673678
0.435438
0.437043
1.30177
0.629412
0
0
0.426428
0
0.640289
0
0.405665
0.312002
0.423248
0
0
0.514875
0
0.453039
1.21679
0.27752
0.35015
0.91292
0.499219
0.193627
0
1.17076
0
0.525732
0.389744
1.05866
0.465664
0.506293
0
0
0.527197
0.500637
0
0
0.353142
0
0.71862
0.342941
0.40876
0.717253
0.296967
0.242054
0.642208
0.367899
0.960402
0.914702
1.29553
1.17632
0.94354
0
0.779437
0.349626
0.67552
1.53297
0.640514
0.342515
0.393625
0.731166
0
0
0
0.483107
0.923768
0.259425
0.451918
0.559977
0.30482
0.670384
0.473113
0
0.532933
0
0.628565
0.515837
0.758416
0.679895
0.607866
0.736434
0.4824
0.863809
0.677687
0.546692
0
0.644747
0.953254
0.818373
0
0.761299
0.405974
1.03524
1.20369
0.883813
0.701636
0
0
0.540373
0
0.778921
0.376719
0.546731
0.519737
0.383908
0.40313
0.710613
0
0.781591
0
0.752328
0.323112
0.452797
0.318651
0.352358
0
0.194977
0.621539
1.19883
0.820488
0.631929
0.872121
0
0
0
0
0
0
0
0
0
0
0
0
0
0
0
0
0
0
0
0
0
0
0
0
0
0
0
0
0
0
0
0
0
0
0
0
0
0
0
0
0
0
0
0
0
0
0
0
0
0
0
0
0
0
0
0
0
0
0
0
0
0
0
0
0.170215
0.437393
0
0.296697
0.465637
0
0.42405
0.503991
0.233932
0.416899
0
0.399817
0.433257
0
0.511909
1.51908
0.630107
0.594029
0.727722
0.55893
0.70044
0
0.363959
1.32704
0.562092
0.537372
0.642287
0.501633
0.571219
0
0.488738
1.01381
1.33272
0.608386
0
0.4201
0.281098
0
1.5205
0.449628
0.198796
0.72376
0
0.307401
0.585304
0
0.200876
1.11363
0.913311
0.682425
0
1.08975
0.729606
1.04946
1.35115
0.76514
0.259823
0.857857
0
0.192839
0.902073
0
0.472565
1.68464
0.547833
0.761162
0.633983
0.553836
0
0.596584
0.627212
0.351932
0.74479
1.47124
0
0
0.622607
0.394637
0.798637
0.9668
0.350442
0.403323
1.08588
1.03115
1.05341
0
0.78084
1.53245
1.45941
1.29714
1.06799
2.52866
0.968555
1.34868
0
0.819298
0.991573
0.842391
0
0.233387
0.621658
0.332031
0.661233
1.31296
0.527319
0.513222
0.761583
1.02677
1.16293
0.66912
0.350157
0
0.472757
0.361603
1.34726
1.14
0.375367
0.19333
0.342241
0.153415
0.894468
0.781262
1.21381
1.09823
1.49436
1.73459
0.853322
1.40494
0
0.711912
0
0
0.570448
0
0.714166
0.107417
0.482453
0.374988
0.64692
0.725724
0.661025
0.876295
0.317512
0
1.54779
1.08231
0.575711
0.539688
1.0013
0
0.315783
0.356294
0.694914
0
1.04619
0.44109
0.922853
0.529554
0.320496
0.318772
0.405332
0.575863
0
0
0.845429
0.870866
0
0.554393
0
3.39751
0.624877
0
0.968373
0.689454
1.04948
0.478935
1.46722
2.05634
0.723695
0.456561
0
0
0.548296
0.691017
0
0.362907
0
0
0
0.545696
0.255761
0.897494
0.984594
0.732328
0.607192
0.379561
1.38505
0
0.706863
0.603498
0.470475
0.65824
0
1.06224
0
1.21823
0.61464
0.756876
0.771497
0
1.15608
0.659342
1.19338
0
0
0.575173
0
0.508076
1.37239
0.842281
0.86504
0.468245
0
1.86421
0.660971
0
0.766399
0.207552
0
0.947268
0.208489
0.534999
1.07079
0
0
0
0.779183
0.795983
0.785219
0.570198
0.376704
1.29369
0.718309
1.11037
0.489747
0.645594
0
0.517633
0.887927
0.592493
0
0.723413
0.66831
1.12206
0.281494
0
0.10612
0.90887
1.35659
0
0.401511
0
0.509958
0.207104
0
0
0.385157
0.959723
0.873935
0.584062
0.591976
0.500791
0.526488
0.458416
0
0.830264
0
0
0.310741
0.667418
0.408933
0.85649
0.743479
0
0.53522
0.742062
0
1.07839
0.811307
0.710004
0.783104
0.358835
0.624717
0
0.37112
0.901434
0
0
0.346279
0.999207
0
0
0.484468
0
0.724443
0.379261
0.333679
0.696702
0
0.532255
0
0.422692
1.06603
1.20735
0.988598
0.699205
0.826183
1.05947
0.737827
1.53779
0.954189
0.219353
0.712353
0.151759
0.194718
1.27043
0.638528
0
0.437197
0
0.51421
0.517608
0.602894
0
0.745029
0.489334
0.841565
0
0
0.654858
0.649104
0
0
1.0416
0.75847
0.867573
0.427348
0.217078
0.424285
0.590935
0.797017
0
0
0.558914
0
0
0.617614
0.750416
0.29646
0
0.776246
0
0
0
0.595384
0.630423
0.229745
0.52237
0.646869
0.178483
0.363381
0
1.38743
0.379248
0.240247
0
2.76568
1.08482
0
0.451391
0.520092
1.33367
1.98994
0.601962
0.697894
0
1.20266
0.618582
0.562957
0
0.613268
0.31838
0.638514
0.472622
0.772116
0
0.778577
0.37385
0.615984
0.42115
0.675631
1.30666
0.568364
0.361937
1.15327
1.03704
0.386047
0.496105
0
0.576793
0.442075
0
0.389874
0
0.811795
0.0732073
0.713676
0.605189
0.928758
0.581785
0.226804
0.335881
0.647849
0
0
0
0
1.1245
0
0.493802
0.449234
0.230775
0.679753
0
0.925225
1.79924
0.780034
0
0.88398
0.191926
0.674453
0.390174
0.662151
0
0.235153
0.589582
0.595293
0.51864
0
0.618318
0
0.755235
0.272146
0.601198
0.556765
0
0.654437
0.369958
0.596002
0.973483
0
0.520202
0
0.747676
1.28188
0
0.842171
0.930693
0.315274
0.903231
0.433996
0.333944
0.578936
0.447461
0.0727588
0.910269
0.693739
1.1919
0
0.622529
0.379882
0.564632
0.631437
1.07689
1.01529
0.592526
0.255344
0
0.132207
0.633697
0
0.626299
0.399615
0.6308
0.940866
1.00913
0
1.2165
0.971473
2.22116
0.756856
0.979247
0.271819
0.551881
0
1.36978
0
0.320994
0.968435
0.704416
0
0.751414
0.51526
0
0.490545
0.637473
0.922607
0
0.252287
0.648281
0.521867
1.26999
0.550178
0.34854
0.729157
0.348525
0.299503
0.949133
0.582542
1.18427
0.768473
0.31429
0
0.614057
0.605383
0
0.956106
0.445578
0.893278
0.596855
1.02642
0.731922
0.922067
0.574165
0
0.186105
0.856171
0.503196
0.831621
0
0.481263
1.01424
0
0.599079
0.212509
0.485208
0
0.497383
0.777775
0.726813
0
0.811296
0.724279
0.363911
0.58912
0.690068
0
0.429691
0
0
0.314366
0.273204
0.196409
1.08916
0.592305
0.70418
0.566118
0.0413363
0.920932
0.43062
0.493357
1.49584
0
0
0.447856
0.34828
0.231544
0
1.04593
1.13108
0.369488
0.338424
0.378297
0
0
0.426598
0
0.281343
0
0.804704
0
0.934287
0
1.00076
0.230932
0
1.05273
1.20473
0.322397
0
0.477677
0
0.681929
0.447457
0.184171
0.294204
0.49208
0.455352
0.362594
0.438464
0.47786
0.74004
0
0
0.433193
0.304212
0.641725
0.97559
0.353886
0.35007
0.762006
0.353171
0
0.45336
0
1.20079
0.825865
0
0.362971
1.00738
0
0.816083
0.437303
0
0.891292
0
0.909967
1.1117
0.36375
0
0.183503
0.709735
0
0.928186
1.60549
0.676873
0.874372
0.608286
0.393607
0.110552
0.396715
0.583253
0.772723
1.16126
0.604146
0
0
1.1404
0.564328
0
0.604429
0.861947
0.474955
0.841469
0.444887
0.807405
0
0.841155
0
0
0.776195
0
0.551428
0.762907
0.735528
0.727537
0.970494
0.353633
1.09391
0
0
0
0
0
0
0
0.630634
0.800007
1.03835
0.941265
0.782131
0.428439
0
0.167491
0.636064
0.657349
0.494994
0.326688
0.382509
0
0.966223
0.580519
0.371903
0.555964
0
0
0.267499
0.256518
0.438174
0.622333
0.363362
0
0.788672
0.451768
0
0.59909
0.382759
0.411324
0.567647
0.543937
0.380068
0
0.566426
0
0.610587
0.499708
0.89907
0
1.39189
0
0.446882
0.439542
0
0.855545
0.592588
0.57028
0.648952
0.739603
0.507912
0.194796
0
0.981666
0
0.33209
0.235407
0.405152
0
0
0.674659
0.586547
0
0.625544
0
0.367656
0
0.356505
0
2.47074
0.386393
0
0.641956
0.714297
0.975458
0.795885
0.485277
0
0.247242
0
0.433063
0.626535
0.291085
1.35591
0.408856
0.56984
1.19118
0
0
0.686702
0
0.323712
0.573229
0
0.539018
0
0.876774
0
0.447724
0.110225
0.480522
0
0.546062
0.609314
0.738136
0.660125
0.574145
0.512071
0.243783
0.45403
0
0
0.386118
0
0.281119
0.398717
0.632012
1.4439
0.625827
0
0.189632
0.371481
0.0873405
0.247258
0.52383
0.182123
0.502
0.381172
0.597153
0.388291
0.951262
0.427325
0.638892
0
0.557114
0
0.442619
0
0
0.470031
0
0.342641
0
0.529009
0.714369
0.422643
0.388067
0.849452
0
0
0
0.663281
0.444822
0.270622
0
0.463128
0
1.0974
0.41439
0
0.600656
0
1.16758
1.28974
0.487065
0
0.448237
0.469249
1.1155
0.561663
0
0.394564
0.43969
0.655811
2.96578
0.849856
0
0.523947
0
0.563549
1.13463
0.659275
0.526703
0.267946
0.241213
0
0.555417
0.642957
0
1.0173
1.5783
0.797938
0.682553
0.920039
0.50124
0.474289
0.500456
0
1.09024
1.05212
1.48953
0
0.35833
0.385818
0.713794
0
0.461583
0.714748
0.390515
0.934555
0.619671
0.483818
0
0.565023
0.600353
0.384531
0
0.407525
0.31739
0.557396
0.405356
0.63884
0
1.127
0.77056
1.63137
0.809033
0.431262
0.532798
0
0.709355
0.555137
0
0.851314
0
0.365392
0.157193
0.27058
0.824194
0
0.363344
0.309068
0.522405
0.476809
0.516297
0.832358
0.709655
0
0.379044
0.540183
0.465096
0.50372
0.697475
0
0
0.94966
0.654607
0.91863
0.175948
0.64009
0
0.986003
0
0
0
0
0
0
0
0
0
0
0
0
0
0
0
0
0
0
0
0
0
0
0
0
0
0
0
0
0
0
0
0
0
0
0
0
0
0
0
0
0
0
0
0
0
0
0
0
0
0
0
0
0
0
0
0
0
0
0
0
0
0
0
0
0
0
0
0
0
0
0
0
0
0
0.973207
0.397093
0
0
0.621504
0.956048
0
0.5848
0
1.82199
0
0
0
0.326313
0
0.988897
0
0
0
0
0
0.613313
0
0
0
1.15748
0
0
0.463728
0
0
0
0
0
0
0
0
0.158821
0
1.90264
0
0
0
0
0
0
0
1.43104
0
0
0
0
0
0
0
1.74934
1.0817
0.723816
0.403597
0.994987
1.12794
0
0.893845
1.31796
0.531299
1.25579
0.421217
0
0
0.803251
0
1.0809
0.457738
1.04765
0
0
0.473173
0.495822
0.621676
1.47118
0.242568
0
0.990532
0.763471
1.47202
0.623726
0.429266
0
0.749566
0.694842
0.249747
0.974783
0.872135
0
0
0
0.554212
0.530944
0.550211
1.12789
0.957991
0
0.879142
0
1.22855
0
0.565686
0
0.467106
0.431073
0.787695
0
0.747311
1.44117
1.29938
3.88821
0.624801
0
1.96195
1.51126
0.85125
1.17808
0.951903
1.10206
0.37947
0
0.315262
0
0.619094
0
2.60444
0.942801
0.6774
0.789179
0.405447
0.826771
0.624496
0.831621
0.518202
0.589262
0.494734
0.762065
2.08369
0.570286
0.694798
0.845198
0.308196
0.542291
0.305911
1.05121
1.18445
1.49584
0
0.50985
0
0.576649
0.533938
0
0
0.92415
0
0.73081
1.07411
0
0
0
0
0.0873063
0.582295
0.776591
2.29918
1.50422
0.629191
0
1.87302
0.508716
1.32484
0.858558
0.51063
0.6491
0.484397
1.04559
0.323694
0.582578
0.642448
0.844597
0.722305
0
0.872677
1.09089
1.14412
0.217761
0
1.09658
0
0
0
0.812866
0
0.62439
1.72806
0.966643
0.993474
0.625506
0.530354
0.636647
0.576507
1.39503
2.53484
0.990444
1.58827
1.95559
0.541301
1.56788
0.98391
0.832013
0.990312
0.0774431
0
1.23721
1.24115
0.446578
0.390806
0.340184
0.75818
1.15471
0.574448
0
0
0.516497
0.797822
0
0.47616
0.678764
0.595034
0.342056
0.28944
0
1.29392
0
0
0.800296
1.39907
0.868934
0.855612
0.728843
0.235738
0.23253
1.49558
0.871899
0.622129
1.04816
0.874637
0.855686
0.77069
0.75851
0.721608
0.618932
0
0.222834
0
0.395839
0
0.187654
0
0.721396
0.977037
0.413546
0
0.388487
0.343037
0
0.870067
0.840093
0.500014
0.751854
0.745994
0.684016
0.0233975
0.537041
0.652256
0.704266
0.533907
0.490302
0
0.146236
0.487707
1.4212
0.420954
0.319416
0.533801
0.705288
0.745244
0.448177
1.03515
1.73758
0.483739
0.513647
0.385356
0.640995
0.700899
0.671325
0.237999
0.746963
0
0
0.365309
1.41971
0.944469
1.59779
0
0
0
0
0
0
0.568445
1.17095
0.596333
0.407326
0.464589
0.544661
0.677981
1.31059
0.608245
0
0
0.544449
0.208611
0.536313
0.311162
0.883681
0.601157
1.03292
0.332453
0.328796
0.626294
0.432397
1.30991
0.858546
0.910273
1.93645
0
0.39172
0.677917
0
0.341556
0
0.244684
0.416731
0.814191
0.676334
0.721689
1.07209
0.745454
0.907485
0
0.13332
0.472507
0.816005
1.11289
1.33866
0.533613
0
0.521486
0
1.27498
0.65868
0.552152
0.831735
0
0.604964
0.639857
0.754539
1.18211
1.13358
1.90335
0.513295
0.553127
0.6784
0.45895
0
0.364185
1.20366
0.86176
1.1871
1.04829
0
0.628725
0
1.90579
1.00907
0
0.75963
0.503153
0.925605
0.477741
0.763041
0.6158
0.690412
0
0.310218
0
1.28669
1.39218
0.37458
0.49343
0.838281
0.871757
0
1.01009
1.99382
0.732653
0.981754
0
0.550273
0.643955
0.517439
0
0.538271
0.281
0.866718
0.922177
0.736695
0.537035
0.391807
0.425663
1.37948
1.49817
0
0
0.390868
0.853723
0.342846
0.343278
0
1.25243
0.591149
0.849355
0.360286
1.56445
1.20529
0.352419
0.796446
0.560309
0.643376
0.258714
0
1.52661
0.374749
0.670029
0.200362
0.751982
0
1.41834
1.0059
1.29099
0.63164
0.791226
1.42001
0.83165
1.15377
0.210815
0
1.19103
0.392729
0.113686
0.254078
0.590296
0.80816
0
0.389317
0.546581
1.04767
0.461073
0.342211
0
0.598333
0.356981
0.595049
0
0.563806
0
0.973522
0.637173
0
0.818513
0.818401
1.85201
1.25733
0
1.53904
1.18463
0.687669
0
1.28419
0
0.641778
0
0.145542
0.472859
0
0.844777
0.548262
0.914733
1.33379
0.410127
0.497014
1.13483
0
0
0.761697
0
0.864463
0.566127
0
1.05944
0
0.557624
1.92579
0
0.272741
0.711256
0.762932
0
0.688772
0.621719
0.977902
0
0.874884
1.38912
0.736098
0.941446
0.445326
0.909894
0.178608
0.625715
0.264853
0.63464
0.721759
0
0.603766
0
0
1.1872
0.695628
0.664835
0.725944
1.47253
0
0.423214
0
0.487635
0
0.289236
0
0.546794
0.951394
0
0.565649
0
0.972149
0.535407
1.54021
0.504616
0
0.788776
1.2125
1.03643
1.23909
1.24635
0.481557
0.611419
0
0.518645
0
0.534289
0.363893
0.474697
0.635314
0.339568
0.287638
0.992692
0
0.368237
0
0.571378
0.931657
0.554912
0.372672
0.235218
0
0
0
0.648993
0.410943
0
0
0.379192
0.767638
0.810726
0
1.089
0.41694
0.463513
0.282639
0.788255
0.742285
0
0
0.190677
0.349312
0.579339
0
0.535935
0
0
0.524422
0.40659
0.691802
0
0.737274
0.561991
0
0.418525
0.787695
0.73297
1.30278
0.644616
0.111011
0
0
0.837807
0.365011
0.44911
0
0
0
0
1.05817
0.91774
0.679859
0.816978
0.354508
0.771199
0.891768
0.362618
0.804828
0
0
0.435078
0
0.868979
0.721543
0
0.593901
1.36998
0.797272
0.636805
0.730722
0.274042
0.700433
0
0.0383804
0.558765
0.331705
0.823791
1.56348
1.06823
0.699247
0
0.536465
0.905438
1.27849
1.19907
0
0.725497
0
0.820016
0.332831
0.893819
0.551592
0.459185
0.721758
0.678288
0.509621
0
0.678159
0
0.920821
0
0.56741
0
0.521156
0.787421
0.360631
0
0.35962
0.631933
0.934075
1.0366
0
0
0
0.964188
0.526969
0.609361
0
0.624975
0.659204
0
0.556813
0
0.283451
0.947426
0.659615
0.47966
0.262112
0.379409
0.791518
0
0.298335
0.608151
0
0.55643
0.226549
0
0.54618
0.195246
0.820966
1.35004
0
0.279374
0.214705
0
0.591565
0
0.477322
0.910235
0
0.652742
0.948436
0
0.560255
0.385718
0
1.22675
0.471377
0.922995
0.398894
0.599192
0.639062
0
0.507603
0.473609
0.74915
0.568132
0.718745
1.72005
0.412575
0
0.580917
0
0.411867
0
0.221604
0
0.640582
0.806775
0
0.919855
0.74622
0.850201
0.24097
0
0.688791
0.221615
0.818693
0
0
0.851609
1.04764
0.59614
0.16997
0.821428
0.629739
0.409448
0.492274
0
0.410622
0
0
1.22716
0
0.252913
0.657515
0
0
0.015608
0.285529
0.382988
0
0.4945
0
0
0.384295
0.642323
0.690601
0.240893
0.383121
0.521902
0
0.69811
0.436212
0
1.35211
0.500041
0.26785
0.622557
0.458617
0.989928
0.604501
0.433608
0.882705
0.888591
0
1.14209
0.79643
1.49592
0.456429
0.314676
0.5191
0.761274
0.374471
0.34178
0.6642
0.673981
0.310219
0.715987
0.411723
0
0
0
0.231536
0.165757
0.622949
0
0.374289
0.625285
0.488812
0.457457
0.604735
0.642104
0.402046
0.76776
0
0.920703
0.193105
0.405
0
1.03056
0.664746
0.965269
0
2.05843
0
0.380476
0
0.983842
0.326624
0.428972
0.960835
0.416128
0
0.391076
0.516389
0
0.412719
0
0.287262
1.1797
0
0.943243
0.43207
0
0.572922
0.70789
0.418264
0.21717
0
0
0.848134
0.647653
0.460723
0.831187
1.66619
0.664011
0
0.737297
0.457276
0.562937
0.243807
0.502381
0.509973
0.348319
0.622851
0.775732
0.385427
0
0.499794
0.55284
0
0.534598
0
1.14703
0
0
0.903468
0
0.607704
0.402894
0
0.614437
0.131337
0.437528
0.217426
0.384181
0
0.733981
0.643369
0.908446
0
1.1823
0
0.579307
0.465457
0.406627
0.895349
1.53756
0.68367
1.48802
0.908487
0.66475
0.670453
0.528833
0.907278
0.840477
0.422218
1.01925
0.508278
0
0
0
0
0
0
0
0
0
0
0
0
0
0
0
0
0
0
0
0
0
0
0
0
0
0
0
0
0
0
0
0
0
0
0
0
0
0
0
0
0
0
0
0
0
0
0
0
0
0
0
0
0
0
0
0
0
0
0
0
0
0
0
0
0.423552
0.385529
0.852855
0.524288
0.421884
0.654133
0.502462
0.679378
0.278828
0.581317
2.29292
0.63067
0.550803
0.815875
0.400763
1.20664
0.206528
0.589252
1.17534
0.717123
0.451115
0
0.550181
1.0292
0.360869
0.59243
0.215361
0.391755
0.919882
0
0.397313
1.26166
0.194576
0.673753
0.760951
0.751595
1.31441
0
0.651692
0.763628
0.901443
0.67605
0
0.652181
0.3583
0
0.16274
0.861455
0.322306
1.28015
0
0.331569
1.41246
0
0.43009
0.318684
0.30828
0.712942
0
2.13839
0.137505
0
1.01508
0.58124
0.591699
0.465758
0.891977
0
2.16597
0.624943
0.431647
1.15986
0.627714
0
0.57414
0.95927
0.400296
0.320947
0.258025
0.540265
0.370652
1.07034
0.933847
1.51009
1.39799
1.00651
0
0.431227
0.500144
0.464412
0.209543
0.565235
0.90391
1.95026
2.34566
0.6326
0.68149
0
1.12074
0.923124
0.73327
0.970005
0
0.523397
0.527951
4.47521
0
0.263127
0.583126
1.04784
1.01998
0.777624
0.822822
0.491381
1.0381
1.51035
0.933085
0.905318
0.715184
0
0.536107
0
0.52953
2.53371
0.480207
0
0.584873
0.791831
0
0.66024
0
0
1.03985
0.529595
0.643564
0.431927
0.566288
1.74221
1.25254
1.7959
1.54525
0.123133
0.40393
0.980853
0
0.733559
0.794279
0.588456
1.56085
0.612917
0.21941
0
0
0.477817
0
1.30237
0
0
0.63918
0.828161
0.592119
0.805835
0
0
0.555763
0.49321
0
0.471252
0.877523
1.34718
0.55402
0.960119
0
0.824885
0.757816
0.532853
0.459945
0.432047
0
1.09598
2.14762
0.605911
0.384431
0.616797
0.61022
0
0.356164
0.861885
0.826711
1.08307
1.14687
0.905023
0.724495
0.653379
1.86319
0
0.531123
0.752005
0.533619
0.724213
0.968612
1.20216
0.591872
0
0
0.778051
0
0.688031
0
0.797987
0
0.577955
0.277111
1.26597
0.674818
0.400035
0.815123
0.825761
1.31617
0.728484
0.816469
0.57754
0
0
0.641933
0.630861
2.31867
0.278181
1.07642
0
0
1.29897
0
1.00078
0
0.50996
0
0.392914
0.564962
0
0
0.728418
0.96984
0.548544
0
0.407568
0
0.288574
0.637596
0.126053
0.61252
0
0.783472
0
0.881649
0.577761
0.768262
0.695727
0
0.344087
0.77034
0
0.612726
1.94697
0
0.37552
0.342117
1.05806
0.363027
0.601977
0.204698
0.588698
0
0.549298
0.41422
0.685297
0
0.750395
1.01235
0.557297
0.991598
0.529564
0.702875
0.405104
0
0.799496
0.587033
0
0.497377
0
0.719793
0.140683
0
0
0.801194
1.58105
0.555711
0
0.561941
1.00428
0
0.929199
0.883681
0.395937
0.448207
0.16484
0.231122
1.24413
1.36072
0
0.654823
1.14187
1.80535
1.78429
1.0756
0.758286
0.666542
0.384588
0.855832
0
0
0.948795
0.771435
1.07535
0.908372
0.838305
0.691914
0.400058
0.28611
0.56601
0.0309873
0.19725
0.610206
0.476143
0.50466
0.132345
0.436603
0
0
0.56923
0.252127
0.659168
0
0
0
0.478217
0.511795
0.343323
0.694608
0.464524
1.42166
2.81229
1.11449
0
0.810264
0
0.749245
0
0.715667
0
0
0
0
0.49159
0
0.730878
0.448294
0.747878
0
0.974312
0.617392
0
0
1.33376
0
0.622966
0
0
0.463699
1.15169
0.854991
0.920264
0.391669
0.613714
1.23882
0
0.587698
0.682012
0.647845
0
0.293007
0
0
0.29185
0.406222
0.790947
0.554501
1.02477
0.524233
0.721594
1.05444
0.712635
0.465876
0.502992
0.158246
0.695094
0
0.59885
0.828103
0.552822
1.60233
2.0871
0.698524
0.928037
0
1.12317
1.51569
1.18842
1.14441
0.890604
0.569786
0.49076
0.420561
0
0.577798
0
0
1.53052
0
0.503404
0.137885
0
0.436343
0
0.106738
0.447752
0
0.336934
0.543839
0.341654
0
0.546096
1.47616
0.963633
0.554717
0
0.357901
0
1.83474
0.712812
0.65282
0.768046
1.40283
0.641934
0.219246
0
2.0863
0.648654
0.662276
0
0
0
0.809993
0
0.254723
0.317166
0.922799
0
0.526187
0.42858
0.679709
0.471796
1.01328
0
0.70002
0.976782
0.925879
0.707905
0.664307
0
0.620773
1.02446
0.694332
0.769815
0.928792
0
0.239123
0.24837
1.3388
1.15786
0.47908
0.903909
0.760373
0.486749
1.1065
0.841177
1.05475
1.00365
0
0.574729
0.878627
0.516262
0.189669
0.430805
0
0.424444
0
0.437334
0.431165
1.3403
2.19546
0.438861
0
0.79636
0.795851
0.730057
0.754763
0
0.666982
0.0865644
0.640208
0.368863
0.693044
1.01274
0.72046
0
0.561027
0.464526
0.364342
0.694952
0.736255
0.322621
0
0.557705
2.01494
1.15679
0.716192
0.529867
2.31665
0.591244
0.461179
0
0.316021
0
0.614929
0
0.651107
0.990207
0.900328
0.282699
0.586995
0.536236
0
0.478735
0.920184
1.89377
0.578809
0.350254
0.655074
0
0.224237
0
1.23107
0
0.376061
0.274607
0.140141
0
0.728529
0
0.339985
1.33839
0
1.0892
0.545217
0
1.46827
1.90464
0.722544
0
0.546355
0
0.699544
0.816988
0.97202
0.657185
0.830651
0.940705
1.13465
0
0.184821
0
0.762598
0.414815
0
0.263799
0
0
0.494246
0
0.518193
0
0.875463
0
0.697939
1.36914
0.567528
1.26541
0.437806
0
0.446411
0.527661
0
0.558172
1.00987
0
0.405534
0.576114
0.518209
0.283745
0.675994
0
0.501126
0
0.549207
0
0.514742
0.53357
0.65053
0.868383
0.480486
0.294412
1.0258
0.31093
1.01261
1.89975
0.668975
0
0.629498
0.813897
1.05705
0
1.70032
0.567821
0.574372
0.501031
0.575675
0.217934
0.548358
0
0.721142
0.740113
0.711004
0.975813
1.09893
0.831647
0
0.321875
0
0.575585
0.379785
0
0.67366
0
0.373269
0
0.87438
0.918965
0
0.991395
0
0.623933
0.542415
0.733161
0.77326
0
0.494504
0.430004
1.21313
0
0.314934
0.421143
0.926467
0.909698
0.512831
0.514022
1.53019
0.731185
1.15655
0
0.624421
0.537476
0
0
0.60021
0.577757
0.863331
0
0.698159
0.919358
0.704047
0.789481
0.55016
0
0.859362
0.698346
0.47858
0.833773
0
0.51288
0
0.611434
0
0.433723
0
0
0
0.700508
0
0
0.940971
0.542221
0.759713
0.533613
0
0.662944
0.276142
0.384536
0.0889116
1.15642
0.624595
0.821521
1.67431
0
1.01989
0.604433
0.535359
0
0.342801
0.273251
1.10181
0
0.679406
0.484239
0.493959
0.70574
0.664021
0.460903
0.8935
0.606513
0
0
0.312688
0.288587
0.53152
0.488115
0
0.824854
0.777311
0.403664
0.95808
0.510897
1.10333
0.607396
0.757731
0.0543764
0.38981
0.725492
0
0
0
0.392169
0.668332
0.60785
0.468268
1.76627
0
0.214542
0.270454
0.232485
0.40897
0.966469
0.884425
0
0.680729
0.521783
0.60153
0
0.554833
0.396978
0
1.44709
0.646541
0
0.50143
0.645604
0.882443
0.303634
0.433833
0.593993
0.64435
0.7518
0
0.215636
0.301471
0
0.518321
0
0.613403
0
0.470208
0.583486
0
0.486973
0.377899
0.561219
0.398417
0
0.502301
0.164925
0.202101
0.344383
0.70319
0.314597
0.741184
1.12987
1.03888
0.686367
0.175594
0
0.512929
0
0
0.973349
1.07929
0.470162
0.282836
0.478074
0.563814
0.383011
0.556708
0
1.28192
1.00438
0.294816
0.378562
0.141754
0.49184
0.507844
0
0.302976
0.471667
0.167459
0.803269
0
0.796945
1.19379
0
0
0.408695
0
0.731239
0.348217
0
0
0
0.513354
0
0.443724
0
0.509671
0.17838
0
0
0.657103
0.736191
0.790317
0
0.603239
0
0
0.363512
2.0172
0.60628
0.689315
0.421461
1.71695
0
0.322235
0.0619918
0.3741
0.563185
1.71748
0.498039
0.486344
0.502672
0
0.666131
0.214883
0.588615
0
0.762442
0.513071
0.909167
0.72306
1.01449
0.646433
0.407747
0.140574
0
0.443655
0
0.89672
0.406307
0.422759
0.229048
0
0.365668
0.647615
0.711914
0.719176
0.565948
0.313778
0.370328
0.688561
0.518457
0.36661
0.692948
0.813715
0
0
0.272547
0.537989
0.334526
0.464287
0
0
0.681818
0.443061
0.723583
0.611773
0.400725
0.879845
0.881796
0.443118
0.583789
0
0.894535
0.430663
1.28025
0.315696
0.243864
0.85877
0.728642
0.664541
0.728371
0.580318
0.604329
0.436837
0
0
0
0
0
0
0
0
0
0
0
0
0
0
0
0
0
0
0
0
0
0
0
0
0
0
0
0
0
0
0
0
0
0
0
0
0
0
0
0
0
0
0
0
0
0
0
0
0
0
0
0
0
0
0
0
0
0
0
0
0
0
0
0
0
0.441863
0.558543
1.15635
0.50061
0.654704
0.889052
0.537227
1.22312
0.568168
0.424312
0.978724
0.712156
0.398746
1.34612
0.754791
0.712793
0.378205
0.375695
1.86913
0.512577
0.446199
0
0.540829
1.50282
0.516223
0.308312
1.08362
0.991473
0.445274
0.806068
0.558351
1.73644
0.706925
0.334358
3.30743
1.95068
0.983295
1.09239
0.544815
1.00586
0.249902
0.837066
0
0.654234
1.19457
0
0.343668
0.432416
0
0.487212
0
0.946492
0.543266
0.855653
1.55577
0.738161
0.228082
0.654656
0
0.299011
0.457877
0
0.154249
1.06705
0
0
0.729905
1.0341
1.13873
0.606272
0.427162
0
0.379428
1.85483
2.71286
1.28894
0.470942
0.657329
0.293047
0.448629
0.462677
0.26479
0.8717
0.891177
0
1.01039
1.0082
0.576503
0.628647
0.646098
1.21099
0
0.659995
0.584878
0.694437
1.84348
0.525807
0.861662
0.760115
1.16039
2.08017
0.403766
0
0
0
1.64447
1.93769
1.08648
0.182574
0
0.619122
0.940131
0.81236
0.651208
0
0.777411
0.717292
0.519114
0
0.282041
0.680765
0.605848
0.547703
0
0.496236
0
0
0.871227
0.694825