<?xml version="1.0"?>
<VTKFile type="RectilinearGrid">
<RectilinearGrid WholeExtent="0 32 0 32 0 32" Origin="0 0 0" Spacing="1 1 1">
<Piece Extent="0 32 0 32 0 32">
<PointData>
</PointData>
<Coordinates>
<DataArray type="Float32" format="ascii">
0 0.524874 1.04975 1.57462 2.0995 2.62437 3.14924 3.67412 4.19899 4.72386 5.24874 5.77361 6.29849 6.82336 7.34823 7.87311 8.39798 8.92285 9.44773 9.9726 10.4975 11.0224 11.5472 12.0721 12.597 13.1218 13.6467 14.1716 14.6965 15.2213 15.7462 16.2711 16.796 
</DataArray>
<DataArray type="Float32" format="ascii">
-5.03879 -3.62163 -2.20447 -0.787311 0.629849 2.04701 3.46417 4.88133 6.29849 7.71565 9.1328 10.55 11.9671 13.3843 14.8014 16.2186 17.6358 19.0529 20.4701 21.8872 23.3044 24.7216 26.1387 27.5559 28.973 30.3902 31.8074 33.2245 34.6417 36.0588 37.476 38.8931 40.3103 
</DataArray>
<DataArray type="Float32" format="ascii">
0 0.524874 1.04975 1.57462 2.0995 2.62437 3.14924 3.67412 4.19899 4.72386 5.24874 5.77361 6.29849 6.82336 7.34823 7.87311 8.39798 8.92285 9.44773 9.9726 10.4975 11.0224 11.5472 12.0721 12.597 13.1218 13.6467 14.1716 14.6965 15.2213 15.7462 16.2711 16.796 
</DataArray>
</Coordinates>
<CellData>
<DataArray type="Float32" Name="Scalar" format="ascii">
0
0
0
0
0
0
0
0
0
0
0
0
0
0
0
0
0
0
0
0
0
0
0
0
0
0
0
0
0
0
0
0
0
0
0
0
0
0
0
0
0
0
0
0
0
0
0
0
0
0
0
0
0
0
0
0
0
0
0
0
0
0
0
0
0.0726353
0.300199
0
0.522615
0.246461
0
0.561029
0.502157
0.208763
0.333711
0
0.31068
0.211493
0
0.2073
1.0125
0.225921
0.207617
0
0.117875
0.17564
0
0.407173
0.575147
0.264237
0.254722
0
0.34283
0.314829
0
0.356589
0.799966
0.413421
0.810397
0
0.094013
0.534224
0
0.419242
0
0.802271
0.511635
0
0.292737
0.115784
0
0.543634
0.776694
0.120627
2.29146
0
0.47418
1.00391
0
0.452538
0.669901
0.396193
0.114836
0
0.781489
0.265386
0.432542
1.73394
2.29468
0.240032
0.491826
0
0
0.901907
0.457947
0.862766
0.355933
0.953359
0
1.22228
1.59235
0
0.441183
0.537184
0.565929
1.07552
0.890349
1.37888
0.881394
3.22057
1.09759
0.787047
0.992881
0.991641
0
0.639592
1.01083
1.40285
0
1.1949
0.328437
0
0.397008
0.426788
0
0
0.661784
1.03879
0.417176
0
0.688694
1.01815
0
0.764763
0.726119
0
0.803427
0.797778
0
0
1.21216
0.666131
0.82319
0.52404
0.724504
0.696957
1.07927
0.823063
1.05792
1.53106
0.958937
0.982352
0
0
1.44829
0.851817
0
0.729733
0.823123
0.560783
0.398777
0
0
0.436437
0
0.699241
0
0.322264
0.0815786
0.882431
1.09566
0.868561
0
0
1.67277
0.620879
0
1.37015
0.857191
1.02215
0.886382
1.22683
0.691764
0
0.56009
0
0.331391
0
1.0413
0.598426
1.08167
2.41765
0.756103
0.825915
0
0
0.910863
1.01497
0.940469
1.24675
0.482307
0
0.696058
0
0.720617
1.04296
1.14645
0.878319
1.06236
0
0.360437
0
0.952467
0.618037
0.602211
0.427381
1.53013
1.05468
0.799505
0
1.01241
1.9066
1.58529
0.773163
0.69818
0.832856
2.06804
2.2588
1.45243
0
0.818094
0.186118
1.20607
0.3054
0
0.419896
0.825889
1.03278
0.706239
0.383012
0.698418
0
0.424222
0.787525
0.544172
0.668373
0
0.525404
0.593841
2.78653
0.510491
0.539685
0.205148
0.241578
0
0.678964
0.457768
0
0.634157
0.341416
0.2786
0.974426
0.310222
0
0
0
0.978169
0.542489
0.558554
0
0.354316
0
0.591028
0
0.469612
0.552172
0.968523
0.740428
0
0.653036
0.545547
0
1.13863
1.0338
0.42853
0.888469
0.383458
0.720761
0.50575
0.340885
0
0.180636
0.597596
0.410634
1.09152
0.55789
0.757171
0.660877
0.216382
0.509957
0
0.547399
0.690029
0.301097
1.16481
0.938842
0.709314
0
0.99922
0
0.875591
1.90486
0
0.706666
0.446827
0.700868
1.45873
0.563852
0.543117
0.839874
0.430473
0.870947
0
0
0.416045
0.472791
2.34919
0
0
0.732767
0
0.816166
1.42048
2.20159
0
1.04498
1.00014
0.639558
0.933105
0
0.480989
0
0.889229
1.00339
0.259143
0
0.677991
0.459734
1.12686
0.156466
0.507732
0
0.433214
0.912633
1.0338
0
0.444988
0.484539
0.612257
1.26134
0.247261
0.50079
0.383795
0.947461
1.00572
0.832386
0.814394
0.697194
0.848465
0.987736
0
0
0.638781
0
0.443621
1.09197
0.577615
1.3632
0.645273
0.680978
1.41371
0
0
1.00084
0
0.991403
1.74686
0.274072
0.785316
0
0.579188
0
0.615632
2.33345
0.738609
0.837166
0.398966
0
3.30547
0.594449
0.310323
1.28676
1.11295
0
0.088936
0.617315
0
0.61941
0
0.59551
0.445837
0
0
0
0.888691
0.443283
0.598614
0.827687
0.698365
0.549337
0.82523
1.25991
0.487557
0.57325
0.644988
0.493311
0.41994
0.802403
0.805396
0.878749
0
0.318979
0.716173
0.49123
0.837693
0.50995
0.584272
0.231131
0.538794
0.472226
0.590958
0.44421
0
0.443549
0
0.47784
0
0.446898
0
0.490388
0
0
0
0
0
0.519081
0.856803
0
0
0.561889
0.38769
0
0.778312
0.488916
0
0.86867
0.796603
0
0.406501
0
0.443974
0
0.601333
1.15187
0.664517
0.734345
0.272003
1.0847
0.314244
0
0.22229
0.671407
0.544082
1.48921
0.93358
0.659535
0.400039
0
1.29524
0.60071
0
0.573137
0.71817
0.976678
0.618337
0.717355
0.805942
0
0.872173
0.373232
0.22804
0
2.62682
0
0.247399
0.871531
1.08469
0.7465
0.703981
1.1361
0
0.599882
0
0.781305
0.4966
0
0
0.347978
0.458176
0.457121
0.76554
0.699297
0.762885
0.987896
1.27435
0
0.581799
1.12539
0.517821
0.946426
0.775807
0.527228
0.383334
0
0.696742
0.467333
1.65003
0.737026
0.95559
0
0.770757
1.11909
0.586849
0.993639
1.85993
0.495688
0.521191
0.283591
0
0
0.984511
0.347447
0.569511
0.725377
1.05465
0.51651
1.26929
0
0.501094
0.485774
0.247744
0.592584
0
0.584871
0.525528
0.335504
0.682319
0.894448
0.805912
0.96886
0.973067
0.459498
0.256364
0
0
0.683977
1.08684
0.434122
0
0.314326
0.43959
0
0
0.758759
0.299293
0
0
0.380933
0
0.461999
0
0
0.536036
0
0.323791
0.4394
0
1.02807
0.853844
1.06491
1.65855
0.216856
0.630687
0.51154
0.52261
0.890542
0.853733
0.359991
0.450682
0.317991
0.372742
0.59757
0.530661
0.457512
0.726061
0.311371
0
0.537719
0.47434
1.10711
0
0.606812
0.593955
0
0.527094
0.586481
0.258873
0.47536
0.444933
0.531888
0
0.739846
0.315432
0
0.513268
0.911776
0.968297
0
0.770975
0.567271
0.684282
0.61852
0.475713
0.64265
0.744801
0.557754
0
0.720024
0.259037
0
0.641421
0
0.61039
0.446271
0.704191
0.504635
0.589846
0
0.519553
0.269353
0.398803
0.454027
0.322844
0
0.553401
0
0.734453
0.555117
0.431043
0
0.721584
1.10395
0.672032
0
0.380759
1.08864
0.94612
0.529963
0.383677
0.466935
1.1144
0.717402
0.320619
0
0.231793
0
0.156614
0.633051
0
0
0.541959
0.29819
1.00191
0.789682
0.84429
0.584974
0.471236
0.761313
0.435591
0.753761
1.41222
0.698244
0
0.524673
0
0.511518
0.603232
0.319017
0.230123
0.631624
0.984106
1.0818
0.683386
0
0
0
1.21925
1.20464
0.753426
2.23844
0.602201
0
0.581102
0
0.692179
0
0
0.423584
0.591934
0.101192
0.609563
0
0
0
0.68933
0.601753
0.811413
0.548523
0
0
1.01746
0
0.29828
0.95747
0
0
0
0.813493
0.821462
0
0.625512
0.090935
0.853873
0.828627
1.06881
0.512888
0.65451
0.699448
0.410908
0
0
0.532964
0
0
0.381271
0
0.613431
0
0.646145
0
0.41038
0
0.704179
0
0.716219
0.491171
0
0.392421
0
0.265684
0.387069
0.558203
0.773442
0.849109
0.440665
0.564032
0.780082
0.812452
0.699409
0.599125
0
0.417231
0
0.527768
1.37114
0
0.622804
0.317448
0.895971
0
0.659567
0.51618
0.523484
0.2789
0.205059
0
0.781221
0
1.15374
0.307678
0.608143
0.536402
0.844767
0
0
0.577318
0.378324
0
0.289772
0.722288
0
1.04943
0
0.531611
0
0.371989
1.27233
1.3681
0
0
0.93612
0
0
0
0.454904
0.39317
0.492821
1.10679
0.77691
0
0.193591
0.463189
0
0
0.456723
1.03838
0
0
0.70553
0.445347
0.254605
0
0
0.334331
0.630906
0.74442
0.766793
0
0.313314
0
0
0.385281
0.482908
0.606461
1.75988
0.192148
0
0
0.650358
0.493747
0.691696
0.405437
0.403227
0.741845
0.340341
1.00095
0.462192
0.470275
0.710713
0.392486
1.05851
1.37274
0.299608
0
0.483343
0
0
0.452893
0.66219
0
0
0.493084
0
0.37435
0
0.298727
0
0.828173
0
0.542207
0
0
0.536586
0.982839
1.05018
0.278281
0
0.234287
0
0.687428
0
0.700009
0
0.751341
0
0.295134
0.886873
0.513987
0
0
0.458934
0.481566
0.18198
0.701592
0
0.573137
0
0.549903
0
0
0.343446
0.478084
1.287
0.815043
0
0
0.180544
0.771003
0
0.97774
0.357087
0.617027
1.16069
0.24552
0.415956
0.431652
0.551765
0.645866
0.305184
0
0.238283
1.82373
0.547445
0.37464
0
0.243184
0.526092
1.91462
0.407837
0.957731
0.835887
0
0
0.466342
0.386569
0.547036
0
0.402667
0
0.411751
0.48096
0.329329
0.280388
0.534511
0.888989
0.196822
0.389075
0.380706
0.257976
0.520384
0.411528
0.326772
0
0.916854
0.966337
0
0
0
0
0
0
0
0
0
0
0
0
0
0
0
0
0
0
0
0
0
0
0
0
0
0
0
0
0
0
0
0
0
0
0
0
0
0
0
0
0
0
0
0
0
0
0
0
0
0
0
0
0
0
0
0
0
0
0
0
0
0
0
0
0.311562
0.651591
0
0.504331
0.576132
2.2605
0.42202
1.07344
0.444665
0.60263
0
0.564648
0.431238
0.251806
0.551897
0.516875
0.268887
0.611024
0
0.394369
0.508878
0.965059
0.537498
0.910334
0.24906
0.545802
1.8635
0.68559
0.455141
0
0.622591
0.840185
0.415275
0.17068
0
0.694511
0.402404
0
1.56671
0.46393
0.166131
1.07173
0
0.349743
0.741246
0
0.348666
0
0.481332
0.585434
0
0.736317
1.17772
1.57277
1.61127
1.52915
0.56511
1.46914
0
0.235331
1.29258
0
0.411623
1.09734
0.576499
0.302534
0.276009
0.729361
0.731977
0.99519
1.70639
0.474974
0.779815
0.458132
1.63405
1.59007
0.46386
0.304924
0.403062
0.983991
1.65355
1.50576
1.61971
2.03548
0.77269
0.776527
0.639558
0
0.687425
1.02734
1.20971
0.537797
1.37473
0.565231
0.616473
1.16045
0.937506
0.639712
0.38938
0.737552
0
1.10277
0.332277
0.671432
0
0
0.545418
0
0.59958
0.353631
0.474514
1.37235
0.497414
0.65766
0.858954
1.33965
0.730165
0.516115
1.03754
1.03718
0.754992
0
0.711449
0.169706
1.39139
0.4586
1.9797
0.597385
0.594417
0.859493
0
0.97819
0
0.911072
0.653812
0
0.436382
0
0.750406
0
0.982705
0.619801
0.852765
0
0.569865
0.373197
2.55001
0.39999
0
0.750489
0.628414
0.620517
0
0.522796
1.27489
1.06828
0
1.11543
0.898597
0
1.22922
1.23703
1.17053
0.841442
0
1.13522
1.03574
0.751157
0.947699
1.30411
0.731903
0.863078
0.612828
0.634155
0.879057
0.855647
0.401632
0.537616
0.586588
0.475216
0
0.702648
0
1.28497
1.19386
0.641308
0.42752
0.575646
0.285792
0
0.839934
0.650553
0.957788
0.685629
0.866189
1.22701
2.55729
0.679899
0
0.400528
0.465991
0.791276
0.395846
1.37135
0.510963
1.75929
0.772318
0
1.01093
0
0.240106
0.556917
0.755301
0
0.538351
0.590706
0.603108
0.788603
0.480611
0
0.848998
0
0.810756
0
0.853728
0
1.29438
0.437863
0.852422
1.21195
0.863821
0.586483
0.805878
1.10098
0.644446
0.457003
0.818344
0.811175
1.19957
1.24333
0.647448
0
0
0.761769
0.552955
1.02428
1.20243
1.19165
0
0.84232
0.841277
0
0.650962
0.820566
1.09145
0
0.678638
0
0
0.856167
0.290675
1.07454
1.16183
0
0.713381
0.577963
0.604559
0.792907
2.21631
0.979643
0
0
0.597863
2.02808
0
0.669957
1.84494
1.72451
0.815412
0.696024
1.20394
0.722528
0.849498
0.929864
0.284262
0.953953
0
0.653143
0.15797
0.728495
0
1.13536
0.197582
0.897011
0
0.404552
0
0.631368
0.406279
0
1.03636
0.945481
0.582175
0
0.631539
0.534179
1.01155
0
0.963989
0.783421
0.49489
1.56351
0
0
0.748405
1.19056
1.06983
1.59496
0
0.520816
0
0.368018
0
0.284396
0.26342
0.410278
0
1.13624
0
0.96592
0.320954
0.48135
0.5639
0.563141
0.86753
0
0.237636
1.00096
0.743993
0.631302
0.841604
0
0.448777
0.361298
0
0.603558
0.754962
1.31582
0
0.282257
0.541405
1.30005
1.15785
0.454073
1.23769
0.549133
0.90611
0.776538
0.509208
0
0.411452
0
0.171698
0
0
0
0
0.366349
0
0.914542
0.701237
0.53024
0.70922
1.05956
0
0
0.829353
0
1.19035
0.310271
0
0.462092
1.23935
1.41981
2.08096
0.181088
0
0.389401
0.255263
0.509513
0.544835
0
0
0.783862
1.60652
0.93393
0.84761
0
0
0.621279
0.498491
0.83429
0
0.434738
0
0.520216
0
0.691596
0
0.668831
1.54749
0.292011
0.689709
0
0.684142
1.17583
0.29365
0
0.230236
0
0.708675
0
0.562423
0
0.604528
0
0.39976
0
0.612995
0.759084
0.340553
0.5158
0.730856
0
0
0.869197
0
0
0.715686
0.568767
0
0
1.1817
0
1.19002
0.312445
0.473627
0.738019
0
0.812161
0.402717
0
0.579886
0
0.439512
0
0.123301
0.532439
0
0.325621
0.785582
0.298708
0.761728
0
0.408761
0.572696
0.960834
0.413235
0.876107
0.708133
0
0.744364
0.566537
0
0
0
0.681078
0.628418
0.254913
0.432449
0
0.437052
0
0.775808
0
0.812518
0.428362
0.64868
0.459848
0.227628
0.367977
0.655857
0.676877
0.228566
0
1.09964
0.79966
0
0.394594
0.516073
0
0
0.947706
0
0.642838
0
0.653952
1.87232
1.27369
0
0
0.371492
0
0.427454
0.592264
0
0.525413
0
0.432192
0.762905
0.593683
0.783298
1.03479
0.667671
1.06126
0.458325
0
0
0.587991
0.50788
1.15018
0
0.320172
0
0.432292
0.411389
0
0
0.679604
0
1.2538
0
1.23219
0.655693
0
0.736914
0
0.276963
0.435344
0.618075
0.620156
0.292333
0.549237
0.906835
0
0.665015
0.697481
1.73312
0
0
0.339894
0
0.430623
0
0.597747
0.593892
0
0.666586
0.452836
0.372343
0
0
0.291183
0.767184
0.793472
0.599902
0.209921
0.496724
0.481065
0.155888
0.904691
0.564045
0
0.205895
0.361542
0
0.8024
1.36615
0.738502
0
0.728064
0.463645
0.486785
0.181608
0.259832
0.549005
0.419764
0
0.678649
0.94727
0.624023
0.31681
0.941465
0
0.72204
0.210297
0
0.71994
0.872177
1.02419
0
0.560568
0
0.475052
0
0.171406
0
1.56072
1.38087
0
0.496476
0.746765
1.25719
0.334868
0.659876
0.435821
0.825421
0.283143
0.424355
0.621142
0.737425
0
0.441878
0
0
0.312223
0
0.783212
0.221718
0
0.761831
1.0561
0.392069
0.489787
0.595085
0.281466
0
0.660804
0.539469
0
0.716265
0.295944
0.620647
0.808104
0.881285
0.246367
0.689235
0
0.398955
0.833795
0.739801
0.782054
0.475504
0.260051
0.409471
0
0
1.32292
0.891895
0.490725
1.6139
1.43172
0.132675
0.587446
0.756284
0
0.440304
0
0
0.605944
0
1.02388
0
0.57433
0
0.704155
0.681679
0.526136
0.858613
0.553837
0.892938
0.788976
0.837835
0
0.53577
0.552617
0.676415
0
1.09619
0
0.470732
0.513939
0.355345
0.699414
0.416615
0.788257
0.367881
0
0.668265
0.570357
0.95721
0
0
0.604921
0.570269
0.981565
0.564431
0.503865
0.560428
0
0.660807
0.926327
0
0.646053
0.54621
1.09682
0.599006
0.684714
0.465482
0
0.464546
0.219967
0
0
0.414823
0
1.054
0.762369
0.351326
0.326174
0
0.495333
0
0.282308
0
0.321205
0.642174
0
0.702493
0
0.296523
0.511049
0.63802
0.830063
0
0
0.393671
0
0
0.415339
0.3488
0.585268
0.623589
0.495155
0.802722
0.37861
0.648374
0.717866
0.657693
0.656692
0.724445
1.01519
0
0.542131
0
0.274388
0
0
0
0.415279
0
0.454224
0
0.566066
0
0.701862
0.625964
0.742403
0.315617
0.300166
0.612691
0.753258
0.565095
0.492959
0.312978
0.0654561
0.368717
0.889989
0
0.27239
0.887417
0.705831
0.82493
0.814208
0
0.445572
0
0.583896
1.32659
0.311066
0
0.694415
0
0.316646
0.539867
0.789705
1.04555
1.22846
0.720662
0
0.635891
0.532858
0.793387
0.66251
0
0.438873
0.451209
0.273568
0.421693
0
0
0.786415
0.765578
0
0.873476
0.664214
0.69577
0.7836
0
0.404189
0.937731
0.596881
0.538988
0.627481
0.354736
0.431324
0.808514
0.447177
1.70478
0
0.598009
0.21426
1.13947
0.33961
0.453539
0.651465
0.36546
0
0
0.357894
0
0.482441
0
0.760736
1.20194
0.495263
0
0.426912
0.845577
0.52965
0.468846
0
0.719197
1.87262
0.789011
0.536414
0
0.744144
0.550913
1.23826
0
0.984948
0.421544
1.11752
0.459076
0.931828
0.987012
0.755895
0.282526
0
0.95244
0.889426
0.249916
0
0.602531
0.541949
0
0.5616
0.485495
0.57277
0.403307
0.544829
0.728202
0
0.36822
0.306097
0.373426
0.750403
0
0.489872
0.47031
0.540793
1.74088
0.670313
0.617389
0.853344
0.858436
0.748968
0.572701
0.354316
0.347856
0.562622
0.233133
0
0.395437
0.500832
0.405563
0.53644
0.280952
0
0.555705
1.04065
0.534787
0.93694
0.734209
0.389529
0.398342
0.310209
0.261084
0.172316
1.49149
0.811529
0
0.450979
0
0.391202
0.390227
0.515005
0.397402
0.51266
0
0.987234
1.01002
0.497935
0.714997
0.221217
0
0.344165
0.979416
0.378955
0
0
0
0
0
0
0
0
0
0
0
0
0
0
0
0
0
0
0
0
0
0
0
0
0
0
0
0
0
0
0
0
0
0
0
0
0
0
0
0
0
0
0
0
0
0
0
0
0
0
0
0
0
0
0
0
0
0
0
0
0
0
0
0
0.329034
0.524865
0
0
0
0
0
0
0
0
0
0
0.429879
0
0
0
0
1.51855
0
0.445662
1.24073
0
0.685725
0
0
0
0
0
0
0
0
0
0
0
0
0.437993
0
0
0
0
0
0
0.160105
0.553146
0
0
0
0
0
0
0
0
0
0
0
0
0
0
0
0
0
0
0
0.405796
0.694934
0.981589
0
0.560565
1.37425
0.836908
0.840545
1.3581
0
0
2.02072
0.885022
0.327599
0.555638
0.505186
0
0
0
1.65697
1.16198
0.586894
0
0.802044
0.506964
1.44872
0.686253
0
0
0.572881
0
0.383922
0
0
0.401516
2.79001
0.800826
0.923537
0.561581
1.10905
0.848078
0.934283
0
0.724903
0.249358
0.516411
1.04283
0.479356
0.517007
0.574526
0
0.416722
0
0.343298
0.267305
0.832451
0.791566
0.615134
1.29157
0.872271
0.663334
2.19478
0.485523
0.495301
0.502237
0.627274
0.732539
0
1.06967
0
0
0.49836
0.56559
0.576298
0
0.540229
0.766296
0.820461
0.672789
0
0.433131
0.663384
0.833101
0
0.709486
0.633958
0.903881
0
0
0
0.46336
0
0.517876
0.577618
0.988324
1.5327
0.333723
2.27409
0.710852
0.41124
0
0.452597
1.15963
0.624635
0.839721
1.38401
1.12055
0.567333
0.670859
0.271933
0
0
1.25915
0.36746
0.76679
0
0.617733
0.350073
0.715576
0.89834
0.878001
0.645127
0.541152
0
0
1.1274
0.920209
0.422477
0.621479
0.574269
0
0.687634
0.630854
0.526988
0.820937
0.56024
0.978159
0
1.10774
0
1.26744
1.51977
0
1.22862
0.884596
0.846277
0.63881
0.870838
1.0292
0.435645
0.899968
0
2.10308
0.65761
0
0.763393
0
2.03335
1.2456
1.39134
0
1.15563
0.527799
0
0.337031
0
0.531943
0.732877
0
0
0.739872
1.41257
0
0
0.930674
0.835845
1.31253
1.09401
0
0.69596
1.52471
0
0.853496
0
1.00565
0.509938
0
0.287309
0.425075
0.794883
0
1.56586
1.43552
0
0.689193
0
0.523164
0
0.599648
0.431161
0.399104
0.522576
0.195989
0
0
0.860359
0.925645
0.867891
0.739463
0
0.754248
0
1.38104
1.4885
0.65244
0.745072
0.534891
0.610183
0.228834
0.393054
0.817548
0.645149
1.28576
0
1.26881
0
0.70504
0
0.663773
1.54642
0.606457
0
0.983948
0.274143
0.571365
0
0.341257
0.334294
0
0.657469
0
1.0083
0.555859
0.513079
0.82925
0.175163
0
0.729362
1.11271
0.450293
0.296707
0
0.69329
0.596913
2.0003
0.595152
0
0.602443
1.30144
0
1.05157
0
0.558879
0.442989
0.703641
0.586121
0.751252
0.354401
0.531247
0.539748
0.571965
0.610202
0
0.532828
0.711105
0.825985
0.134202
0.813857
0.816522
0.436931
1.87783
0.578422
0
1.13872
0.64685
0.678165
0.693374
0.807051
1.24443
0
0.763601
0.347317
1.38253
1.77484
0.997656
0.720248
0.409362
0.720985
0.681065
0.894223
0.444989
0.549029
0.453338
0.812272
0
0.463833
0
0.272519
0
0
0.67068
0.679213
0
0.551696
0.336821
0
1.19821
1.10267
0.942721
0.748078
0.639581
1.32792
0.207693
0
0
0
0.644479
0
0.269249
0
0.997864
1.31327
0
0.645673
0.478114
0.745338
0
0.629861
0
0
0.471552
0
0.841258
1.56853
1.07156
0.82756
0.903418
0.585629
0
0.433948
0.110821
0.0867069
0.86016
0.568513
0.528987
0
0.448674
1.2096
0
0.292488
0.517406
0.912395
0.359793
0
0
0
0.892995
0.431629
0
0.457256
0
0
0
0
0.827168
0
0.832163
0.57633
1.32969
0.700881
0.676801
0.442465
0
0
0.471796
1.37255
0
0.294891
0
0.866505
0.213934
0
0.420892
0
0
0.722807
0.876603
0.563024
0.840152
0.624506
0.53385
0.536745
0
0.664855
0.532636
0
0.264628
0.633854
0.630967
0.278968
0.794313
1.33708
0.452083
0
0.278313
0.122035
0.480526
0.974217
0.433479
0.36214
0.346282
0.782046
0.916085
0.728776
0.447411
2.26535
1.17607
0.832191
0
0.496203
0
0.757493
0.363332
0
0.30666
0
0.514982
0.583895
0.958305
0.316258
0.404533
0
0.575872
0.0330509
0
1.0153
0
0.954495
0.373611
0.276816
0.966659
0.923917
0
0.444177
0
0.330317
0.945739
0.627664
0.669966
0.817619
0
0.716041
1.06608
1.56041
0.457247
0.396112
0.916931
0.404595
0
0.855494
0.458024
0.51109
0.577495
0.667774
0.213926
0.444049
0.713917
0.677112
0.345888
0
1.12505
0.396634
0
0.48176
0.52872
0.232768
0
0
1.05276
0
1.08014
0.769332
0.48208
1.38695
0.26371
0.756683
0.932815
0
0.819025
0.845559
0.790492
0
0
0.730153
0.427241
0
0.357395
0
0.491778
0
0
0.420711
0.785926
0
0.70104
0.421119
0.479258
0.445798
0.022778
0.598713
0.215137
0
0.805519
1.92115
0.487776
0
0.581202
0.995017
1.05622
0.300213
0.797955
0.354171
0.650073
0
0.267023
0.7789
0
1.23674
0
0.15124
0.184577
0
0.639309
0
0
0
0.633034
0.266703
0.468538
0.44183
0.399302
0.290022
0.662865
0.573172
1.20018
0.61469
0.280194
1.0075
0.31707
0.944654
0.675931
0.48161
0
0.628033
0.974188
0.761674
0
0.46744
0.530789
0.350065
0
0.488019
0
1.0281
0.164371
0.60067
0.414812
0
0.531048
0.455699
0.303457
1.01331
0.394925
0.56466
0
0.96592
0.609778
0.851025
1.29005
0.505005
0.877168
0.978
0.454091
0.638706
0.433301
0
0.400177
0.602611
0
0
0.413779
0.693366
0.455098
0
0.496749
0
0.350495
0
0.340113
0
0
0
0.377828
0
0.125497
0.402637
0.212559
0.260464
0.632403
0
0.792945
0
0.658895
1.26366
0.557254
0.797005
0.13871
0.505205
0.713969
0
0
0.486792
0.575494
0.738692
0.939245
0.672866
0
0.422166
0.300268
1.14706
0.419391
0.2643
0.390795
0
0
0.97871
0.44646
0.566769
0.518047
0.553594
0.459813
0
0
1.1315
0.51426
1.0236
0.471886
0
0
0.844159
0.429853
0
0
0.433758
0
0.336782
0.374597
0
0.631805
0.699536
0
0
0.389499
0
0.805321
0.720696
0.684379
1.57298
0.752599
0.415444
1.69012
0.519824
2.43819
0.910563
0
0.835021
0
0.823851
0
1.53104
1.20461
0.824472
1.98564
0
0.67786
0.428901
0.47213
0.219457
0.362974
0
0.189037
0
0
0.596406
0.56738
0
0
0
0.526967
0
0.622459
0
0.449086
0
0.227436
0
0.205278
0
0.650706
0
0
0.541887
0.48783
0.50577
0
0
0.404738
0.88342
0
0
0.651026
0.482694
0.807322
0.730408
0.971105
0.792554
0.655133
0.452729
0.786081
0
0.661051
0
0.177458
0.646412
0.571845
0.503081
0
0.509457
0.0276654
0.654768
0
0.519676
0.801749
0
0
0.357391
0
0.578286
1.71367
0
0.532407
0.557987
0.711172
0
0.568661
0.528756
0.80439
0.800198
0
1.48483
0.469702
0.747862
0
0.672755
0.616983
0
0
0.533559
0
1.20895
0
0.695702
0.157535
0.49401
0.540758
0.46231
0.888907
0.290843
0.526643
0.687509
0.4782
0.255202
0.341838
0
0.406635
0.154724
0.884923
0
0.554323
1.17119
0.771981
0.79792
0.336583
0
0.391013
0
0.462547
0
0.534272
0
0.52123
0.56441
0.813834
0.40216
0.810419
0
0.527741
0.522195
0.984043
0
0.6781
0.405661
0.58582
0
0.840783
0
0.6659
0.731164
0.73075
0.307557
0.409468
0.290906
0.150986
0.278907
0.380497
0
0.302926
0.626497
0.304195
0.900464
0.254427
0
0.608929
0.277923
0
0.6196
1.37068
0
0
0.236415
0
0
0.508331
0
1.05981
0.366838
0
0
0.941851
0.609923
0.553319
0
0.346087
0.323924
0.382251
0.259471
0.328527
0.381202
0.534577
0.824935
1.54735
0.705464
0
0
0
0.448025
0.39942
0.571362
0
0
0.621272
0
0.845121
0.328873
0.239436
0.357249
0.274038
0.614876
0.544528
0.6862
1.83399
0.719993
0.97228
0.289793
0.327204
0.879585
0.29695
0
0
0
0
0
0
0
0
0
0
0
0
0
0
0
0
0
0
0
0
0
0
0
0
0
0
0
0
0
0
0
0
0
0
0
0
0
0
0
0
0
0
0
0
0
0
0
0
0
0
0
0
0
0
0
0
0
0
0
0
0
0
0
0
0.425536
0.352757
0.367797
0.752848
0.409775
0
0.597748
1.00972
0.531699
0.534731
0.989493
0.600235
0.553198
1.28693
0.483043
1.01177
0.389493
0.401972
0.202953
0.494684
0.485588
1.31379
0.377469
1.3832
0.351558
0.487427
0
0.438337
0.488737
0
0.37954
0.932563
0.34944
0.855188
2.18442
0.558666
1.05005
0
0.198198
0.5446
0.926942
0.308634
0
0.802078
0.293226
0
0.921598
0.496738
0.252042
0.721913
0
0.281074
2.13021
0
0.440711
1.40963
1.40436
0.114208
0
0.833513
0.580458
1.13355
0.869032
1.14685
1.34962
0.969909
1.36389
1.02079
1.23501
0.792194
0.645911
0.748084
0.100001
0.453972
0.776707
1.18717
0
0
0.432457
0
0.658445
0.636287
0
0.502558
1.02816
0.503821
0.763998
0.599599
1.00785
0
1.32495
0.65696
1.03036
1.06432
0.732491
0.793722
0.69081
0.38933
0.803619
1.56562
0.770712
2.68407
1.29947
0.447324
0.684546
0.408606
0.538741
0
0.434007
0.879173
0.86929
0.724246
0.383523
0.460825
1.62897
0
0.698059
0
0.688621
0.389304
0.8925
0.670575
0.332613
0.717571
0.570626
0.265996
0.63762
0.879801
1.1226
0.528023
0.631431
0
0.557137
0
0.913181
2.07309
0.804825
0.82101
1.13037
1.11669
0
0
0
1.55001
0
0.859546
0.84979
0.487339
0
1.12832
0
0.610177
0
0.397183
1.01056
0
1.04037
0.429935
0.771755
0.99859
0.721644
0.86213
1.09791
0.748446
0.697712
0
0.683155
0.892735
0
0.582822
1.04254
1.08498
0.585305
0.190846
0.42091
0
0.595384
0.595803
0.566206
0.186152
1.50098
0.70727
0.928724
0.44324
0.523803
0.156344
1.16967
0.801052
0.309852
0
0
0.442994
0.589885
0.572491
1.12628
0.81378
0.45872
0.498222
0
2.00641
1.5384
0.722066
0.725382
0
0.615387
0.553872
2.16235
0
0.559754
0.809901
0.587486
1.6496
0.613762
0.3834
0
0
0
0.575952
2.81261
1.00542
0.945213
0.542721
0
0.543821
0
0.642663
0
0.851694
0
0.291598
1.02276
0.449254
0.453895
0
0
0.488378
0.837055
0.692521
0.442
0.414537
2.76111
2.03166
0.584069
0.846402
0.549537
0.83556
0.454577
0.550179
0.487683
0.824498
0.678471
0.345802
1.0429
1.88932
0.770089
1.53387
0
0
0
1.20281
0.712944
0.793019
0.547676
0
0
0.55102
1.41741
0.535049
0
0.504774
0.924266
1.06681
0.62144
0.766178
1.01541
1.10021
0
0
0
0.719358
0
0.127184
0.369803
0.383885
1.37704
0
0.642973
1.08634
0.986989
0
0.886491
0.428643
1.04351
0.668901
0
0.603262
0
0.869278
0.821721
0
0
0.610629
0
0.357399
0
0.801229
0
0.564619
0
0.392008
0.543827
0
0
0.49552
0.352641
0
1.05347
0
0.901279
0.783574
0
0
0.556035
1.06446
0.585053
0.657146
0
1.18916
1.74297
1.01042
0.510816
0.54802
0.964538
0.458036
0.451298
0
0.95585
0
0
0.480082
0.555873
0.465127
0
0.393584
0.582257
0.175511
0.630659
0
0
0.810556
0.643888
0.40819
0.741927
0.591698
0.361032
0.906329
1.46612
0.612062
0.674177
0.740271
0.624389
0.416055
0.3407
0
0.467881
0
0.678405
0
0.442664
0.417055
0.788813
0.671359
0.7328
0.734876
0.61938
1.0812
0.967261
0.412737
0.439723
1.26661
0.568044
0.540001
0.816178
0.772792
0.758613
0.511031
0.524724
0.270065
0.103186
0.650156
0
0
0
1.18808
0.942171
1.04994
0.454045
0
0.307068
0.586968
0.772924
0
0.510751
0.637256
0.3489
0.357326
0.632176
0
0.726653
0
0.584546
0.659766
0
1.00396
0.516602
0.793867
0.724684
0
0.33964
0
0.344036
0.549731
0.615808
0.803511
0.548259
0.753344
1.23259
0.466279
0
0.25012
0.419106
0.3903
0.678903
0.54926
0.561
0.413489
0
0
0.306328
0.244834
1.09939
0.985074
0.909908
1.30491
0
0.625184
0.404341
0.465337
0
0.705395
0
0.550346
0.281177
0.930572
1.04915
1.19571
0
0.451138
0
0
0.114489
0.738916
0.876759
0.879657
0.833569
0.498151
0.85481
0.259265
0.618596
0.340622
0.367672
0.359549
0.579755
0
1.8317
1.21576
0.404353
0.580404
0.539979
0
0.938827
1.51442
0
0
1.11757
0.451604
0.693297
0.263612
0.501243
1.39876
0.748393
0
0
0.396392
0.569136
0
0
0.817431
0
0
0.20734
0
0.700383
0.141051
0.667358
0.335198
0.936356
0.69957
0.170797
0.861199
0
0.575701
0.721261
0.912199
0.750295
1.02181
0.39999
0.760638
0
0.477224
0
0
0
0.688218
1.51625
0.833112
0
0.494921
0
0.494655
0
0.870355
0
0.50185
0
0.503759
0
0
0
0.774984
0.710908
0
0.570554
0.406062
0.255807
0.338134
0.674362
2.47415
0.666467
0.587591
0
0.637861
0.696134
0.55207
1.00233
0
0.7308
0.477369
2.57163
0
0.374451
0.232133
0
0.571652
0.345245
0.540726
0
0.101523
0.306437
0.522743
1.33206
1.86544
0.380509
0.700202
0.587863
0.394351
0.528416
0.268697
0.476165
1.55954
0
0
0
0.618646
1.0379
0
0.860784
0.563989
0.640917
0
0
1.01744
0.835574
0.590356
0.781981
0.599432
0.747807
0
0.540325
0.578708
1.13772
0.372749
0.292731
0.470142
0
0
2.33337
0.395904
0.550395
0
0.488185
0.624549
0.716435
0.488156
0
0
0
0
0.601239
0.960264
0.777669
1.0183
0.49118
0.430489
0.343777
0.455441
0.62432
0
0.919353
0
1.33014
1.52074
0.429918
0
1.051
1.06898
1.31653
0
0.627788
0
0.976984
0
0
0
0.580318
0
1.25881
0
0.302966
0.689552
0.794051
0.73181
0.59154
1.10412
1.17736
0.311263
0
0.788803
0
0
0
0.588609
0.0981432
0.268073
0.891842
2.02914
0.513868
0.4992
0
0.507755
0.601856
0
0.533723
0.450748
0.236728
0.249843
0
0.321802
0.479754
0.561114
0.508402
0.460326
0.474784
0
1.01386
0.84576
0.775871
0.732551
0.754843
1.14356
0.565641
0.600511
0.625176
0.869587
0.479075
0.945944
0.46462
0.364544
0
0.718726
0
0.68288
0
0.348903
0
0.356113
0.415307
0.608836
0
0.740094
0
0
0
0.289216
0.781069
0.740549
0.549366
0.423693
0
0.970618
0.664591
0
0.484631
0
0.296198
0
0.449824
0
0.477841
1.03473
0.574138
0
0
0.711039
1.11373
0.505493
0.949613
0
0.205879
0.762851
0.740877
0.54398
0
0.380087
0.382682
0.714236
0.545997
0.738349
0.769227
0.803166
0.790802
0.237023
0.735212
0
0
0.936766
0.548641
0.615789
0.56554
0.381913
0
0.706309
0
0.328509
0
0.375717
1.22936
0.720199
0.228114
0.334562
0
0.46823
0.857184
1.00988
0.718469
0
0
0.421902
0.367048
0.584096
0.577019
0.457546
0
1.02924
0
0.882742
0.539854
0.605069
0.554152
0.433608
0
0.492038
0
0.578638
1.21442
0
0.54685
0
0.724437
0.674632
0.78916
0.842845
1.08699
0.716383
0.987533
0.392657
0.745551
0.341234
0.355968
0.557754
0.493434
0
0
0.386257
0.520351
0.394792
0.476018
0.487408
0.493368
0.462898
0.548964
1.04691
0.263314
0.402025
0.541605
0
0.873245
0
0.792865
0.703584
0.40837
0.888209
0.452931
0.577781
1.40649
0.331087
0.510651
0.648016
0.596296
0.830363
0.362401
1.08627
0.291675
0.851282
0.542988
0.696441
0.58364
0
0
0
0.540609
0
0.963994
0.0796866
0.591843
0.303618
0.467421
0
0.734308
0.511887
0.315043
0.503966
1.00792
0
0.485929
0
0.518384
1.02896
0.30815
0.973878
0.208644
0.703602
0.570963
1.18575
0
0.500694
0.146685
0.305464
0
0.446504
0
0.30281
0.485705
0.304306
0.501971
0.575692
0.438383
0.355229
0.501262
0
0.273267
0
0.91853
0.839832
0.474979
0.509731
0.666596
0
0.518583
0
0.565837
0
0
0.328264
0.132312
0.627165
0
0.800181
0.656287
0
0.668806
0
0.687592
1.02448
0.803338
0.768338
0.476816
0.603181
0.804948
0.41706
0.746131
0.607997
0
0
0.742173
0.287961
0.595909
0.322197
2.25063
0.595552
0.71082
0
0
0.689742
0
1.93794
0.291339
0.157367
0.791744
0
0.43747
0.451114
0
0.590556
0.584274
0.871109
0.82035
0.6503
0.408095
0.319786
0.151306
0.851103
0.657191
0.717755
0.333536
0.278824
0.3723
0
0.40533
2.10493
0
0
0
0
0
0
0
0
0
0
0
0
0
0
0
0
0
0
0
0
0
0
0
0
0
0
0
0
0
0
0
0
0
0
0
0
0
0
0
0
0
0
0
0
0
0
0
0
0
0
0
0
0
0
0
0
0
0
0
0
0
0
0
0
0.251167
0.493787
0.113355
0.417691
0.645399
1.25303
0.426554
1.16196
0.381771
0.589053
0.468062
0.505737
0.446983
1.10762
0.437212
0.94431
0.161114
0.475918
1.61074
0.449197
0.298143
0
0.37774
1.49132
0.506552
0.682956
0
0.424301
0.458737
1.58114
0.694826
0.90979
0.674948
0.307405
0
0
0.419562
0
0.943752
0.516963
0.204778
1.36645
0
0.580035
0.81162
0
0.682238
1.40039
1.70875
0.552696
0
0.465012
0.341861
0
0.553017
1.04345
0.308682
0.762971
0
0.108715
0.657589
0
0.239128
0.923682
0.812391
0.38216
1.01359
0.758858
1.74608
0.632602
1.05326
0
0.759837
0
1.5237
1.26106
0.447485
0.230329
0.459497
0.535966
0.462141
0
0.946974
0.917643
0.696743
0.856874
1.66876
0
0.42275
0.771216
0
1.28243
0.994974
1.13516
1.33953
0.816099
0.891892
0.412981
0.379389
0
0.668255
1.9446
0.469689
1.13568
0.501439
0.81311
0
0.91633
0.953494
0.844701
1.01422
0.684754
0
0.428748
0.349365
1.30083
0.674244
0.557753
0.625199
0
0.823913
0
0.323866
0.784013
0
2.17724
0.711853
0
0.674813
0
0.674672
0
1.87053
1.13609
0.749914
1.78362
0
0.672434
0.928101
1.87732
0.414943
0.622801
0.679232
0
0.395754
0
0.833131
0
0.403926
0.993801
0.781848
0.37322
0
0.334415
0.501273
0
1.65205
0.546549
0.544006
0.605353
0
0.56024
0.415844
0
0.794163
1.83349
1.25495
0
0.635684
0.582403
0.443777
0
0.527208
0.540321
0.608655
0.854749
0.457462
0
0.595919
0.651502
0.757
0.504529
0.933767
0
0.64408
0
0