<?xml version="1.0"?>
<VTKFile type="RectilinearGrid">
<RectilinearGrid WholeExtent="0 32 0 32 0 32" Origin="0 0 0" Spacing="1 1 1">
<Piece Extent="0 32 0 32 0 32">
<PointData>
</PointData>
<Coordinates>
<DataArray type="Float32" format="ascii">
0 0.524874 1.04975 1.57462 2.0995 2.62437 3.14924 3.67412 4.19899 4.72386 5.24874 5.77361 6.29849 6.82336 7.34823 7.87311 8.39798 8.92285 9.44773 9.9726 10.4975 11.0224 11.5472 12.0721 12.597 13.1218 13.6467 14.1716 14.6965 15.2213 15.7462 16.2711 16.796 
</DataArray>
<DataArray type="Float32" format="ascii">
-5.03879 -3.62163 -2.20447 -0.787311 0.629849 2.04701 3.46417 4.88133 6.29849 7.71565 9.1328 10.55 11.9671 13.3843 14.8014 16.2186 17.6358 19.0529 20.4701 21.8872 23.3044 24.7216 26.1387 27.5559 28.973 30.3902 31.8074 33.2245 34.6417 36.0588 37.476 38.8931 40.3103 
</DataArray>
<DataArray type="Float32" format="ascii">
0 0.524874 1.04975 1.57462 2.0995 2.62437 3.14924 3.67412 4.19899 4.72386 5.24874 5.77361 6.29849 6.82336 7.34823 7.87311 8.39798 8.92285 9.44773 9.9726 10.4975 11.0224 11.5472 12.0721 12.597 13.1218 13.6467 14.1716 14.6965 15.2213 15.7462 16.2711 16.796 
</DataArray>
</Coordinates>
<CellData>
<DataArray type="Float32" Name="Scalar" format="ascii">
0
0
0
0
0
0
0
0
0
0
0
0
0
0
0
0
0
0
0
0
0
0
0
0
0
0
0
0
0
0
0
0
0
0
0
0
0
0
0
0
0
0
0
0
0
0
0
0
0
0
0
0
0
0
0
0
0
0
0
0
0
0
0
0
0.0825254
0.174383
0
0.387287
0.300007
0
0.304192
1.08952
0.264004
0.364204
0
0.155245
0.90009
0
0.328833
0.735988
0.267773
0.352594
0
0.220899
0.41063
0
0.459798
0.850133
0.22486
0.322118
0
0.292547
0.296921
0
0.27348
0.50188
0.155185
0
0
0.440183
0.691688
0
0.144322
0
0
0.143903
0
1.27743
0.380163
0.338532
1.9764
0.20456
0.0617581
0.386588
0
0.233849
4.39518
0
0.128822
1.30227
1.36738
0.471863
0
2.82463
0.492243
1.72901
1.55182
0.989257
0
0.827728
0.491609
0.320435
1.79499
0.457077
0.482278
0.570548
0.639879
0.519522
0.608376
0.761079
1.0713
0.794953
1.0617
0
1.14012
0.530379
0
0
0.216977
0.376036
1.35595
0.587281
0.632097
0.795881
0.900087
1.05942
0
0
0.616652
0.565091
1.06168
0.699421
0.854483
0.182317
0
1.12785
0
0.812023
1.03306
0.22016
0.620054
0.187154
0.603004
0
0.44723
1.04534
0.768208
0
0.832653
1.03324
0.830182
1.26646
0.604502
0.936238
0.53202
0
0.246532
0.316844
0.783498
0.278391
0
0
0.204023
1.17202
0.66471
1.55303
0.557349
0
0.518177
0
0
1.44211
0.248339
0.244322
0
0.609067
0
0.643266
0
0.574108
0
0.673706
0
0.570565
0.622819
0.46999
0
0.508716
0.419555
0.330926
0
0.610488
0.376669
0
0
0
0.701723
0
0.9753
1.03847
0.715125
0.261862
0
1.13557
0.86853
0.884191
1.18202
0.697566
1.08739
0
0.695411
0.347375
0.606664
0.485493
0
0.327544
0.429
0.455789
0
0.489691
0.309268
1.03205
0.451173
0
1.35202
0
0.417212
0.326711
0.170122
0.1525
0
0.409358
0
0.605867
0
0.304853
0.61236
0.653802
0.96768
0.758821
0.628509
0.378674
0.566197
0.684807
0.715761
0.617638
0
0.614293
0.932887
0.877339
0.671282
1.66566
0
0.550949
0
0.1247
0
0.823361
0.212775
0.591581
0
0.237915
0.523978
0
0
0
0.550085
0.819002
0
0
0.177156
0
0.901462
0.650611
0.699603
0.894291
0.717882
0.455476
0.530613
0.587715
0.598245
0.310626
0
0.241098
0
0.715605
0
0
0.697404
0.783873
1.20622
0
2.71188
0.987008
0.525775
0.413727
0.642481
0.443841
0
0.639577
0.783949
0
0.586527
0.809497
0
1.16451
0.427148
0.913802
0
0.296709
0.354203
0
0
0.9305
0.460052
0.617884
0
0
0.40604
0.891244
0.698479
2.34058
1.93806
0
0.572758
0.564937
0.636681
0.875575
0.767273
0.938925
0.818751
0.194853
0.734403
0.611347
0
0
0.533019
0.83255
0.701785
0.673717
0
0.47801
0.39065
0.542842
0
0
0
0
0
0.496991
0
0
0.506565
0.433181
0
0.363339
0
0.659357
0
0.796573
0.997217
0.810617
0.568629
1.38336
0
0.986706
0
1.44823
2.19123
0.829912
0.406105
0.202704
0.313354
0.92238
0.618034
0.457185
0.541587
0
0.942033
1.76289
0.622742
0
0.525246
0
0.666967
0.594506
0.590183
0.918572
0.559802
0
0
0
0
0
0
0.573509
0.325121
0.181038
0.446522
1.48139
1.39833
1.24601
1.39435
1.42571
1.50426
0.925473
0.342532
0
0
0.527628
0.369079
0
0.288097
0
0.382916
1.14032
0
0.543707
0.696243
0.212333
0.997495
0.964823
0.770468
0
0.253577
0
0
0.687522
0.342388
0
0
0.56122
0
0.151329
0.983422
0
0
1.08269
0.189152
0.222666
0.386985
0
0.723549
0.566509
0
0.313089
0.879223
1.45666
0.800925
0.328545
1.00903
0.453741
0.252913
0
0.885787
0.389391
0.599015
0.340525
0.481839
0.215177
0
1.17783
1.17209
0
0.568638
0.517593
1.04786
0.706118
0.391077
0
0
0.33097
0.366529
0.567784
0
0.449276
0
0
0.512552
0
0.453198
0
0.686827
0
1.6987
0.528998
0.793669
0.904794
1.08383
0.655626
1.04854
0.549706
0.340476
0.489776
0.238043
0.96743
0.869679
0.0929512
0.708162
0
0.534037
0.83377
0
0.799102
0.901584
0.184144
0.576052
0.84651
1.06186
0.549576
0.292807
0.688444
0.433828
0.385217
0
0.689132
0.722113
0.513659
0.999494
0.547174
0
0
1.41617
0.639622
0.796027
0.643931
0
0.314033
0
0.298537
0.267622
0.352641
0.56291
0.437772
0
2.05268
0.736827
0.674346
0
0
0.590098
0.555812
0.831842
0.748227
0
0.257247
0.580573
0.56018
1.02888
0
1.17387
0.69508
1.25457
0
0.64134
0.658604
0.561958
0
0.339121
0
0.261041
0.27001
0
0.675704
0.557005
0.712147
0.976401
0.769246
0.696282
0
0.541513
0.229929
0.425196
0.559041
0.634202
0.348441
0.786127
0.37037
0
0
0.522905
0
0
0
0
1.05596
1.24403
0.0770135
0.506248
0
0
0.752361
0.993113
0.68752
0.556067
0.836118
0.24494
0.584434
0
0.447822
0
0.811795
1.02589
0
0.781938
0.775079
0.882434
0.697076
0
0.577656
1.32253
0.156701
0.48526
0
0.866684
1.62196
0.434817
0
0.513188
0.67375
0.657231
0.762709
1.03042
0.814465
0.378486
0.324306
1.09336
0.290671
0
0.855461
0.679845
0.128978
0.820811
0.837422
0.364004
0.53532
0
0
0.553189
0.727891
0.359091
0.541867
1.18534
0.603527
0.846799
0.922453
0
0.800849
1.38167
0.908329
1.11142
0
0.673618
0.733996
0
0.768119
0.915342
0.448481
0.633047
0
0.761446
0.304773
0.976727
0.654722
0.698559
0.477641
0
0
0.336358
0.499672
0.434334
0.612778
0.829555
0.758998
1.0251
2.17241
0
1.32542
0.572292
0.737545
0
0.354304
0.431027
0.297533
0.695192
0.236508
0.937703
0.41166
0.271653
0
0.313233
0
0.287954
0.547487
0
0.592458
0.697918
1.11146
0.453033
0.545934
0
0.448472
0.645747
0.945154
0.662476
0
0.715026
0
0.494488
0.990569
0.86095
0
0.232067
0
0.384108
0.544601
0.272119
1.62013
0.403103
0
1.61956
0.812196
0.78459
0.876893
0
0.800261
0
0.863854
0
0.44417
0.622568
0.391384
0.851006
0.854989
0.511553
0
1.83984
0.37191
0.562725
1.36107
0.473387
0.562348
1.07507
0.703663
0.286753
0.834548
0
2.0079
0
0.299701
0.0415167
0
0.625126
0.874687
0.29083
0.578708
0.760501
0.721306
0
0.507092
2.30494
0.599785
0.407201
0
0
0.549233
0
0.547809
1.48434
0.835613
0
0.620006
0.747842
0.451952
0.29235
0.592019
0.801122
1.0596
0
1.05681
0
0.598081
0.447226
0.617083
0.999478
0.840698
0.658341
0.515011
0
0.326106
0.666691
0.935344
0
1.09607
0.603999
0.34461
0.859508
0.658434
0.71157
0.207693
0
0.696322
0
0.673787
0.609577
0
0.845296
0
0.335078
0
0
1.52295
0.647118
0.401851
0.189799
0.791655
0.898332
0
0.501416
0
0.418537
0.491252
0.350175
0.896235
0.637645
0.453257
0
1.35016
1.04972
0.272786
0.7068
0.467621
0.58994
0.590321
0.80413
1.24583
0.57085
0.288096
0
0.788625
0.608429
0.808144
0.56239
0.942721
0.574258
0
0
0.664663
0
0
0.255412
1.88204
1.25707
0
0
1.06754
0.934789
0
0
0
0.982505
0
0.726728
0
1.22671
0
0.749669
0.689738
0.517661
0.386227
0.529457
0.783949
1.36779
1.52017
0.7574
0.418923
0.887487
0.539894
0.859171
0.376037
0
0.807807
0
0.554295
0.806101
0.429319
0.88331
0
0
0.668781
0
0.77464
0.579832
0
0
0.986269
0.773041
0.420522
0
0.596291
0
0.324152
0.37628
0.323578
0.305253
0.744283
1.15953
0.745287
0.868352
0
0.683112
1.03134
0
0
1.09468
0.827832
0.428111
0.449418
1.35732
0.91614
0.96485
0.645358
0.489319
0.960475
0.651387
1.04224
1.14083
0.501184
0.367178
0
0.697741
0
0
0.738834
1.06258
0.283484
1.0738
0
1.22633
0.322672
0
0.593752
0.311941
0.590632
0.333598
0
0.571681
0
0.609041
0.77122
0.569802
0.84486
0.616565
0.674763
0
0
0.798737
0
0
1.20274
0.803775
0
0.688437
1.46175
0.801248
0
0.684563
1.30204
0.686912
0.731209
0.620387
0.680131
0.869841
0
0.730297
0.569588
0.643936
1.49805
0.902026
1.63066
0
0
1.3608
0.452
0.640626
1.19214
1.05502
0.459271
1.01932
0.666476
0.400375
0.510985
0.591859
0
0
0
0
0
0
0
0
0
0
0
0
0
0
0
0
0
0
0
0
0
0
0
0
0
0
0
0
0
0
0
0
0
0
0
0
0
0
0
0
0
0
0
0
0
0
0
0
0
0
0
0
0
0
0
0
0
0
0
0
0
0
0
0
0
0.433853
0.586913
0.886837
0.588492
0.466444
0
0.350003
1.06834
0.188777
0.873562
2.011
0.762554
0.36337
0.158284
0.580102
1.04539
0.380987
0.388069
0.789073
0.371881
0.343736
0.423326
0.607787
1.60885
0.499666
0.588396
0
0.487423
0.531792
0
0.664795
1.21717
1.18406
0.418728
0
0.701838
0.278418
0.267418
0.960943
1.18106
0.368568
1.98182
0
0.188769
0.910882
0
0.307139
0.951355
1.33971
0.49084
0
0.65211
0.357964
0
1.19365
0.627324
0.221523
1.64931
2.58876
0.660508
1.42657
0
0.278085
0.619964
0.588533
0.621731
0.88816
0.721615
0
0.717794
1.97074
0.428132
0
0.712206
0.779926
0
0.0867071
0
1.06448
0.674094
0
0.532966
0.683037
0.733476
0.133483
0
0.497175
0.489112
0.40959
0.631717
0.479298
0
0.805501
0.440554
0
0.501852
0.601166
0
0
0.913096
0
0.760518
0
0
0
1.08034
0
0.934827
0.646295
0
0.881738
0.983473
0.766358
0.913635
1.64756
0.530158
0.633023
0.366851
0.185321
0.533543
0.0240915
0.185302
0.760529
0
0
0
0.515165
0.477245
0
1.3913
0.450683
0.324066
0.509828
0
0
0.842969
0.474152
0.711032
0.811574
0.92652
0.74168
0.708822
0.56965
0.494593
1.1194
0
0
0.615762
0
0.835821
1.10144
0.576365
0.320435
0.394375
0.481537
0.270287
0
0.739725
0.859878
0.359873
1.18758
0.465693
0.43948
0.130125
0.832162
0
0.574068
0.583814
1.2669
0.360274
0.687205
0
0.686856
0.912051
0.405648
0
0
2.4001
0.929946
0
0
0.52485
0
0.35784
0.196337
0.165045
0.133769
0
0
0.472599
0.39008
0.377244
0
0.652761
0.315781
0.333257
0.750947
1.02843
0
0.680582
0
0.390113
0
0
0.849269
0
0.470324
0.148762
0
0.803366
0
1.30331
1.0548
0.568507
0
0.784997
0
0.846836
0.348316
0.234018
1.27442
0
0.349079
0
0
0.273478
0
0.620468
0
0.495029
0.691904
0.476392
1.07018
0.945627
0.697734
0.991882
0
0.64508
0.824437
0
0
0.626665
0
0
0
0.538242
0
0
0
0.568024
0.579754
1.71787
1.27321
0.683929
0.225565
0.735606
0.387956
0
0.340111
0
1.15118
0.637413
0.874153
0.565189
0
0.464833
1.03609
0.497037
0.627183
1.16672
0.627158
0.431008
0
1.06396
0.903858
0.368159
0
0.719919
0.715698
0.622017
0
0
0.477547
0.822458
1.10393
0.628495
0.44241
0.416946
0.423294
0.10689
1.02604
0
0.448082
0
0
1.20391
0
0.582722
0.326509
0.50147
1.06936
0.9373
0
0.280369
0
1.08437
0.506905
0.673563
0.325564
0.517083
1.01839
1.38589
0.206921
0.414006
1.08328
0.745188
0.611891
0.830341
0.470608
0.278984
1.94607
0.452711
0.553328
0
0.528699
0.324633
0.518755
0.42549
0
0.343906
0.609296
0
0.849161
0.82482
0
1.10082
0.207615
0.394748
0
0.895659
0.48421
0.763684
0.233351
0.214119
0.645597
0
0
0
0.469067
0.400697
0.374312
0.652431
0.605763
0.638931
0.786805
0.867934
0.731683
1.14284
0.759414
0
0.479761
0
0.40203
0
0
0.566808
0.291833
0.658766
0
1.32238
1.03442
1.32229
0.873307
0.504933
0.347793
0.507716
0.650783
0.84243
0
0.588604
1.37527
0.676144
0.282014
0.651094
0.660954
0
0.223421
0.400973
0
0.379036
0
0.367079
0.638182
0.658212
0.495624
0.896594
0.597546
0.82872
0.741625
0.593228
1.18695
0.567366
0.571055
0
0.940734
0
0
0.27719
0
0
0.206599
0.301702
0.347157
0.654312
0
0
0.833511
0.662124
1.13378
0
0.280408
1.40363
0.564747
0.317344
0
0.369633
0.566587
0.63573
1.16496
1.10967
1.11451
0
0
0.980825
0
0.719365
0
0.488166
0
0.675537
1.02985
0.564744
0.664682
0.488143
0
0.274183
0.693974
0
0
0.394984
0.70159
0.585326
0.984639
0.780014
0.59868
0
0.358191
0
0.108626
0.93659
0
0.52466
0.555886
0
0.289861
0.800624
0.24054
0.299208
0.747453
0.450106
0
0
0.211956
0.815581
0.744927
0
0.924918
0
0
0
0
0.335572
0.411897
0.6056
0.404078
1.01595
0.645996
0.441772
0
0.609637
0
0.392018
0.42807
0.218067
0.425107
0.518847
0.567451
0.798248
1.36772
1.21675
0
1.1025
0
0.51554
0.958504
0.563661
0
0
0.655208
0
0.384929
0
1.15206
0
0
0
0.359339
0.92657
0.597727
0.920565
0.361938
0.814222
0.557479
0
0
0.2984
0.446437
0.555376
0.274766
0.777616
0.426618
0.339465
0.582637
0.669229
0.346274
0.336294
0.283236
0.259876
0.748704
0
0.942168
0.280273
0
1.63045
0.535978
0
0.56302
0
0.51808
0.341378
0.45901
0.673784
0.742355
0
0.405372
0
0.265874
0
0.345618
0
0
0.488512
0.78267
0.591378
0
0
0.281203
0.576764
0
0.314544
0.183023
0.466817
1.69152
0.422404
0.52033
0
0
0
0.59421
0
0.621851
0.919944
1.09544
0.240467
0.63828
0
0.649251
0
0.198371
0.748298
0
0.587949
1.56179
0.487979
0.598979
1.60682
0
0.433356
0.771625
0.326568
0
0.863949
0.630106
0.640054
1.19333
0
0
1.12659
0.598742
0.82982
0.912189
0
1.82151
0.792352
1.02713
0.242806
0
0.656328
0.532525
0.4592
0.66998
0.42687
0
0
0.952911
0
0.718703
1.13966
0.561393
0.571338
0
0.867071
0.631688
1.63932
0
0.397298
0.403951
0.821876
0.389385
0.694464
0.951975
0.980914
0.788132
0
0.447432
0
0.560011
0
0
0.48245
0
0.598881
0.460166
0.290752
0
1.11697
0
0
0
0.794
0.696788
0.382962
0.487697
0.882667
0.369512
0
0.676126
0
0.503545
0.250284
0.61941
1.43099
0.24896
0.591323
0
0.601407
0.315817
0.547465
0.34574
0.841701
0
0
0.753905
1.10847
0.568056
0.471196
0
0.510088
0.832576
0.538673
0.454282
2.11698
0
0
0.168273
0.670262
0.531563
0
0.589982
0
1.05982
0.699814
0.888791
0
1.9879
1.17972
1.21151
0.430909
0.629871
0
0.399675
0
0.34729
0.500599
0.720042
0
0.503973
0.631816
0.526131
0
0.680885
0.5882
0.336951
0
0.862611
0.652192
0.220381
0.384069
0.762254
0.57595
0.468389
2.12363
0.617109
0.782078
0.975773
1.13333
0.939939
0.896444
0.325887
1.38743
0.834489
0.707153
0.52153
1.05778
0
0
0.556508
1.02953
0.675311
0.607351
1.94381
0.692632
1.38436
0.571279
0.620467
0.354779
0.190185
0.776711
0.737975
0.799362
0.717551
0
0.604801
0.926573
0.992425
0
0.48031
0.705833
0.438658
0.649471
0.57331
0.47137
0
0.682421
0.587737
0.875989
0.93709
0.782529
0.584175
0.48043
0.644413
0.674506
0.419781
0
0.541325
0.780028
0.496508
0.438516
1.58823
0.981874
0.967588
0
1.67147
0.457408
1.161
0.56939
0.822694
1.59996
0.789408
0.641598
0
1.53175
0
0.726894
0
0
0
0.632413
0.252709
0
0.888361
0.922408
0.766459
0
0.534047
0.564126
0.689739
0.549831
0.735693
1.35184
0.712754
0.865308
1.18231
1.06508
0.937031
0.76226
0.734834
1.3869
0.732892
0.55863
0.818094
0.500773
0.768261
0
0.750506
0
0.461497
0.495992
0.828272
0.461778
0
0.676201
0.5709
0.558352
0
0.709313
0.61647
0.798152
0
0
0.645404
0
0.259638
0.620858
0.385953
0.77899
0
0.500956
1.37596
0.996472
1.08754
0.349475
0
0
0.848921
1.50537
0.57345
1.35223
0
0.594816
0.63726
0.764933
0
0.342222
0.609318
0.558704
0.429556
0.59619
0.445837
0.617355
0.584161
0.780699
0
0
0.885682
0.627446
0
0.997336
0.940418
0.766709
0
1.47837
0.507588
0.25777
0.684041
0.644502
0.933142
0.541557
0.749368
0.844912
0.717852
1.02759
0.691833
1.26471
1.64939
0
0.688605
0
0.354091
0.58003
0.442189
0.144738
0.620989
1.07276
1.01069
1.95303
1.15622
0
0.718223
0.734955
1.39686
0.615409
1.59306
2.97638
0.383017
1.37086
1.65723
0.803145
0.941768
0
1.22794
0.859871
0.65539
1.00523
0.612374
1.94241
0.595001
0.613895
0.887746
0.724942
0.380889
0.892875
0.253005
0.472644
0.586568
1.0033
0.826805
0.726387
0.418786
0
1.09339
1.87848
0
0.410122
0.884099
0.99642
0.396195
0.389277
0
0.443698
0
0
0
0
0
0
0
0
0
0
0
0
0
0
0
0
0
0
0
0
0
0
0
0
0
0
0
0
0
0
0
0
0
0
0
0
0
0
0
0
0
0
0
0
0
0
0
0
0
0
0
0
0
0
0
0
0
0
0
0
0
0
0
0
0.569579
0
0
0
0
0
0
1.52867
0
0
0
1.10231
0
0
0
0
0
0
0
0
0
0
1.54714
0
0
0
0
0
1.00095
0
0
1.80633
0
0
0
0
0
0
0
1.76368
0
0
0
0
0
0
0
0
0
0
0
0
0
0
0
0
0
0
0
0
0
0
0
0
0.881939
0.737666
0.280279
0.607131
0.587303
0.788973
0.55471
1.85398
0.64495
0.809945
0.514923
1.22995
0.59537
0.798677
0.915728
0.28854
0.464732
0.817615
0.513183
0
0.521339
0.37723
0.665873
1.25877
0.589191
0.747462
0.76471
0
0
1.19848
0.936143
0
0.588047
0.584464
0.911585
0.800145
0
0
1.80435
0.661256
0.326293
1.08283
0.499039
0.528028
0.64496
0.774046
1.26045
0.487143
1.34351
0.704112
1.08109
0.845128
0
0.494637
0.298041
0.374813
0.546524
0
0.220963
0.330649
0.50483
0
0.511959
0.496622
1.0457
0.745547
0.672769
1.05444
1.472
0.870436
0.773026
0.982689
1.18389
0.723338
0.995713
0
0
0.376265
0.307356
0.474757
0.740687
0
0.688214
1.6328
1.82684
0.349713
0.719357
0.35664
0.290068
0.750089
0
0.489941
0.430939
0.461931
0
0.867161
0.365285
0
0.854672
0.659548
0.251913
0
0.624601
0.535018
0
1.3002
0.534194
0
0.822846
0.50297
0.456337
0.377922
0.71531
0
0.668838
0.714872
0.740673
1.20501
0
0
0.282321
0.408382
0
0.49966
0.505333
0.423761
0
1.12127
0.562024
1.15726
0
0
0.225128
0
0.473193
0.851719
1.50996
0
0.560146
0.723177
1.22488
0.492149
1.04317
0.989277
0.594427
1.31616
0.876878
1.24296
0.775249
0.71111
0.807882
0.470309
0.525696
0.408241
0
0
0.652475
0
0.78587
0.395741
0.539029
0.663051
0
0.2993
0.493377
0.621247
0
0.649341
0.732187
0
0
0
0.917001
0.468776
0.799365
0
0.37684
1.39003
0.0679711
0.400089
0.63075
0
0.212806
0.486597
0
0
0.645007
0.531258
0.348201
0.733421
0.497916
0.72676
1.37357
1.25286
0.811331
0.50996
0.507318
0.693133
0.14555
0
0.569009
0
1.28622
0
1.57117
0.461552
0.262251
1.24949
0.401353
0.491363
0
0.512638
0.447734
0
0
0.627123
0
0.61221
0.406848
1.30164
0.666457
0.716287
0.552341
1.16484
0
0.569305
0.502262
0.916817
0.916983
1.86157
0.6334
0.872367
0.540486
1.45808
0
0
1.45732
1.79148
0.772769
0.647465
0.707574
0.260725
0.459506
0
0.51099
0
0.633259
0
0
0.515339
0
0.463174
0.957701
0
0.370256
0.846124
0.724294
0
0.296615
0.587216
0
0.376038
0.56966
0
0.693211
0
0.376637
1.02626
0.624913
0.650738
0.323525
0
1.09669
0.532579
0.827868
0.734914
0
0.288606
0.391126
0.667532
0.831364
0.552005
0.876356
0.553835
0.310798
0.370703
0.29619
1.71432
0.432448
0.572202
0.445777
0.483778
0.437769
0.644454
0
0
0.293698
0
0.412456
0.723393
0.469432
0.463052
0
0.390202
0.138525
0.500528
0
0.592066
0
0
0
0
1.45292
0
0
0.557287
0.531315
0
0.430053
0
0.870504
0.386812
2.65012
0
1.33532
0.330049
0
0.810329
0.545197
0.407378
0.420181
0
0
1.12584
0.987823
0
0
0.870749
0.899152
0
0.25779
0
0
0.59391
0.455751
0.7901
1.55422
0.950846
0
0
0.457993
0
0.897167
0.320737
0.630785
0
0.33728
0.346061
1.19384
0.893174
0
0
0
0.792229
0.507838
1.07936
0
0.546685
0.355668
2.1023
0
0.799136
0
0.637522
0.285856
0.756222
0.605968
0.847589
0.425717
0.445882
0.641066
0.242736
0.649669
0.519119
1.29393
0.858717
0
0.0648003
0.677138
0.373249
0.683373
0.796618
0.608265
0.265473
0.629645
0.661007
1.08501
0.737354
0
0.762894
0.494727
0
0.307856
0.390481
0.733151
0.606774
0
0.448616
0.548427
0.693635
0.417974
0
0.496109
0
0.702818
1.02954
0.56204
0.633441
0
0
0.538485
0.291907
0
0.848101
0
0.770056
0
0.731401
0
0.476951
0
0
0.853213
0.456732
0.392586
0
0.666741
1.66587
0.531399
2.11658
0.436621
0
0.521332
0.258234
0.441161
1.55968
0
0.279922
0.690529
0.12874
0.55574
0
0.526882
0
0
0.642228
0
0.46946
0.395966
0.491225
0.133379
0.537424
0
0
0.754809
0.256069
0.783559
0
0.566314
0.253197
0.571308
0
0.476633
0.378349
0.335357
0.365643
0.311029
0
0.777513
0
0
0.615971
0.252621
0
0
0.39905
0.970576
0.637297
1.06078
1.29064
0.641582
0.163089
0
0.320764
0.376799
0.390588
0.547328
0.677007
0.60379
0.513904
0.602103
0.442691
0.377421
0.721334
1.36665
0
0
0.537245
0.74507
0.743119
0.828045
0.47573
0.845509
1.1074
0.500456
0.369989
0
0.290097
0
1.69339
0.392744
0.52559
0
0.840675
0
0.835858
0
0.499976
0.391136
0.121578
1.6015
1.11382
0
0.769635
0
0
0.723069
0
1.97538
0.725292
0.4179
2.33034
0.700167
0.346478
0.498514
0.556582
0.294705
0.662031
0.548432
1.51844
0.566898
0.746785
0.484551
0
0.562241
0
0.270255
0
0.236188
1.24064
0.920068
0.733868
0
0.584911
1.20783
0
0
0
0
0.631607
0.612899
0.353699
0.307147
1.15093
0.672702
0.30887
0.794379
0
0.795426
0.912119
0.68761
1.53459
0.492006
0.953159
0.825298
0.663571
0.107304
0.634942
0.583856
0.389817
1.36058
0.766105
0
0.566224
0.787734
0.72655
0.537739
2.1909
0.316488
0
0.65048
0.815383
1.23452
0
0.973416
0
0.393274
1.40276
0.451831
0
0
0.746152
0
0.803065
0
0.684323
0.914394
0.530187
0
0.536353
0.742264
0
0.251753
0
1.04317
0
0.382995
0
0.69721
0.607681
0.365305
0
0.799995
0.81572
0.24215
0.999743
0.395012
0.591605
0
0.621175
0.67789
0.471759
0
0.534062
0.270218
0.334193
0.640075
0.680984
0.89845
0.603837
0
1.26526
0.676269
0.403235
0
1.2256
0.561931
0.772079
0.523089
0.5056
1.21096
0.816904
0.406277
0.37693
0.514928
0
0.520734
0.25026
0
0.315303
0.691136
0.307265
1.72436
0.925255
0
0.418381
0
0.467505
0.833394
0.823756
0.363579
0.667907
0.431714
1.04353
0
0
0.83842
0.700224
1.26885
0.760797
1.25186
0.691113
0.431301
0
0.590171
0.519078
0.380787
0.860008
0
0.738369
0.239999
0.379388
0
1.04552
0
0.920216
0.422822
0.3793
0.556586
1.11593
0
0
0.604456
0.646547
0.605095
0.353773
2.37792
0.7332
0.562896
1.91681
0.470603
0.184924
0.444894
0.469881
1.06992
0.941335
1.29449
0.595683
1.05666
0.328191
1.39126
1.12757
0.491693
0.486588
0.779884
0
1.57802
1.16944
0
0
0.432598
1.22873
0.315157
0
1.11832
0.576618
0.559386
1.18565
0.832341
0
0.537632
0
1.16935
0.994711
0.976623
0.919695
0
1.42845
2.84104
1.36632
0.568388
0
0
0
0
0
0.142367
0.819245
0.568001
0.22775
0.520384
0.45309
0.639007
0
0.938527
0.618632
0.310745
0.465602
0
0
1.2464
1.3841
1.7191
1.15717
0.933923
1.00385
0.56386
0
0.468812
1.72949
0
0.522768
0.184498
0.4838
0.195418
0
1.04441
0.835807
0.547189
0.625133
0.647683
0
1.76897
0.538341
0.503676
1.01055
0.368637
0.450926
0
0.960651
1.16484
0.519228
0.792555
0.722416
0
0.869039
0.504542
0.509283
0.421104
0.23478
0
0.872424
0.241504
0.822616
1.72083
1.20068
0.412303
0.964441
0.49273
0.798453
1.25152
0.535988
0.921092
1.44523
0.737644
0.931631
0.583045
0.566687
0.660759
3.4768
0.973542
1.5198
0.785414
1.26994
0.592024
0
0.238645
0
0.504728
0
0.414508
0
0.471766
0.413099
0.683451
1.60729
1.66441
0.637173
0.626858
1.03792
0
1.18735
1.31235
0.560337
0
0.87764
0
1.10925
1.13885
2.36713
0.533467
1.16162
0
0.630354
0.382688
0.726267
0.765349
0.261894
0.1234
0.486046
1.14682
0.605075
1.09253
0.464475
1.04646
0.830827
1.0754
1.97415
0.377912
0.822719
0.874971
0.66838
0.694768
0.733977
0.681368
1.04357
0
0
0
0
0
0
0
0
0
0
0
0
0
0
0
0
0
0
0
0
0
0
0
0
0
0
0
0
0
0
0
0
0
0
0
0
0
0
0
0
0
0
0
0
0
0
0
0
0
0
0
0
0
0
0
0
0
0
0
0
0
0
0
0
0.276179
0.537385
1.09985
0.564645
0.631793
0.746633
0.65626
1.32575
0.340496
0.506936
0
0.395051
0.547835
0
0.334201
1.12704
0.319945
0.34662
0.779291
0.435384
0.390514
0.865443
0.439882
0.738378
0.191084
0.570525
1.39596
0.511463
0.619505
1.42439
0.486662
1.34553
0.166771
1.42924
1.48115
0.711049
1.162
0
0.223878
1.24638
1.0581
0.183064
0
0.663804
0.569264
0
1.34766
0.855701
0.268196
0.948026
0
0.29192
0.481801
0
0.321724
0.483996
0.304738
0.35967
1.02933
1.45427
0.373063
0
0.973843
0.699905
1.07583
0.929374
0
0.650746
0.67723
0
0.375262
0.572842
0
0.961351
0.307887
0.677651
0
0.966476
0.471604
0.283174
0.55336
0
0.683156
1.0894
0
1.00625
0.6279
0.612628
0
0
1.01182
1.30033
0.965878
0.782689
0.635937
0.773154
0.214761
1.04865
1.0175
2.14466
0.745113
0.756717
0
0
0
1.28941
0
0
0.229163
0.624976
0.767163
0.801254
0.680896
1.26971
1.6107
0.934507
0.716872
0.462005
0.766019
0.709084
0
0
0.664299
0
0
0.687858
0.888278
1.44632
0
0.0325736
2.12547
1.19428
0.598537
1.24311
0.860018
1.37101
0.73017
0.44318
0
0.372499
0
0.654834
1.82016
0
1.02701
0.609544
1.06053
0.614887
2.10743
1.20652
1.29834
0.0693971
0.788033
0.581791
0.919833
0.758586
0
0.476973
0.535769
0
0.59445
0.736263
0
0
0.979028
0.375053
0.20936
0.705793
0.692498
0.536292
0
0
0.634112
0.776565
0.224811
0.713415
0
0.496273
0.667526
0.854632
2.73308
0.941113
0.175669
1.35706
0.809199
0.142802
0.470836
0
0
0.510612
0.177421
0.542576
0
0.371846
0.552315
0
0.323739
0.883894
0.889786
0.706822
0.537265
0.127187
1.76375
0.889698
0.459281
0
0.899003
0
1.49397
0
0.732214
0.604071
0.255049
0
0.329963
0.356851
0.125199
0.229597
0.616491
0
0.664779
0
0.418722
0.495925
0.344886
0.312021
1.51766
0.781634
0.564885
0.282865
1.19767
1.88079
0.642136
0.661471
0.796097
4.20458
0.576395
1.05181
0.398773
0.658322
0.329589
0.83512
0.360058
0
0
0.302408
1.14023
0.589894
0.383332
0.926216
0.716549
0
0.595543
0
0.887096
0.661986
0.648837
0
0
0.354786
0.389194
1.01447
0.75342
0.703044
0
0
0.630393
0
0.594201
0.52409
0.160591
0.906933
0
0.522267
0.309399
0.561737
0.314451
0.919932
0.0916783
0.72576
1.2162
0
0.941061
0.225411
0.510412
0
0.949641
0.850816
0.961667
0
0.935906
0
0
0.657552
0.860844
0
0.442866
0.454858
0.721233
0.492302
0.831338
0.469885
0.752972
0.229575
0.518374
0
0.681103
0
0.420091
0
0.529259
0.47053
0.358249
0.889233
0.773425
0.645704
0.469235
0.532363
0.709791
0.356676
0.400922
0.362777
0
0.527056
0
1.48778
0.63536
0.81243
0.393828
0
0.853333
1.38846
0.623828
0
0
0.41973
0
0
0
0
0.534559
0.837786
0.49472
0
0.978707
0.716787
0.559294
0
0.241594
0.0888546
0.572973
0.951779
0.612072
0
1.15027
0
0
1.22553
0.687415
0.821793
0.726145
0
0.868317
0
0
0.752387
0.938758
0.497503
0.520951
0.476538
0.490386
0.626188
0.765425
0.46526
0.725475
0.992944
0.750877
0
0.594105
0
0.375339
0.277706
0.817559
0.378431
0
0.306871
0.781987
0.251761
0.335238
0
1.11081
0.938873
0.352521
0.129186
1.27154
0.749107
0.623455
0
0.952052
0.583311
1.20209
0.65239
0.239767
0.542636
0
0.802542
0.466658
0.397679
0.897181
0.887913
0.460787
0
0.52068
0
0.718179
0
1.37939
0
0.657644
0.230671
0.44228
0.701584
1.3515
0.78752
0
0.403045
0
0.404533
0.636182
0.542953
0
0
0
0.707724
0.445511
0.864327
0.755427
0.636699
0.322064
0.757753
0
0.503985
0
0
0.964761
0
0.856075
1.05988
1.32851
0.981093
0.551333
0
0.469235
0.732318
0.321612
0
0.807105
0.479754
0.604027
0.534695
0.969687
0.928566
0.311184
0
0.739231
0.524527
0.7069
0.363294
0
0.523086
0.482844
0.0558374
0.437991
0.614839
0.667036
0.584887
1.05381
1.01723
0.21489
0.851758
1.65448
0
0.291048
0.450188
0
0.565978
0.760584
0.728644
0.359297
0.338701
0
0.513185
0.220084
0.649619
0.982524
0.743907
0.58619
0.588121
0.467169
0.39062
1.43034
1.43402
0.495238
0
0.48613
0
0.419952
0.972211
1.09281
0
0.686868
0
0.470085
0
0
0.445142
0
0.507516
0.763761
0.816262
0.550796
0.971661
0.973384
0.904146
0.294003
0
0.277183
0.411322
0.424692
1.11775
0.283268
0.322452
0.238202
0.673348
0.440763
1.26847
0.221558
0.71892
1.02107
0
0.692335
0.418037
0.417034
0
0.450887
0.763852
0
0.393453
0
0.370574
0
0.488651
0.282167
0.610518
0.597314
0.648388
0.620459
0.272641
0.840894
0.63751
0
0.679201
0.706755
0.673161
0
0
0.667775
0
0.487867
0.584328
0.777271
0
0.581503
0.469018
0.18712
0.718124
0.816907
0
1.45189
0
0
0.420764
0.64078
0.690743
0
0.443227
0.795529
0.395241
0.572492
0
0.815532
0.294759
0.565313
0
0.598452
0
0.780089
0.989684
0.795472
0.674838
0
0
0.92545
0.520906
0.465477
0.899538
0
0.535606
0
1.24757
0
0
0
0.658593
1.84239
0.592011
0.387126
0
0.520737
0
0.959994
0.476373
0.0341316
1.37635
0
0.281077
1.34289
0.69661
0.875328
1.15563
0.711288
0.563423
0.582157
0.16396
1.03146
1.35592
0.190211
0.527732
0.628697
1.02537
0.795838
0.833886
0
0.759441
1.0687
2.35781
0
0.865999
0
0.641835
0.606722
0.363616
0.583482
0.9881
1.06901
0.630862
0.938838
0.688804
1.16503
0.419314
0.598606
0.325749
0.939483
0.697398
0.620782
0
0.753803
0.628119
0.688438
3.10628
0.990043
1.27702
0.693686
0.774349
0.555843
0.719506
0
0.561663
0
0.83154
0.763103
0.606419
0.810737
0.428727
0.382636
0.517326
0.454228
0
0.552218
0.403
1.36538
1.40761
0.47975
0.800127
0.718611
0.656833
0.559803
0
0.841499
0.771312
0.387614
0.937024
0
1.09284
0.681337
0.861758
0.537171
0.865975
0.805886
0.441432
0
0.683409
0.372657
0.755079
0
0.662502
1.17217
0.802469
1.22972
1.34319
1.07054
0.621899
0.838479
0.635084
0
0.575166
0.581791
0.705021
0.408218
0.7172
0.583463
0.746533
0.648873
0
0.640106
0.859601
0
0.575126
0
0.251972
1.63164
0
1.02127
0.629354
0.545535
0.581212
0.330898
0.544231
1.00903
0.932947
2.26348
0.542226
0.912994
0
0.450166
0.706618
0.20775
0.495849
0.443923
0
0
0.965795
0.574705
0.801671
0
0.671284
0
0.532709
0.694449
0.911257
0.372485
0.887558
3.09745
0
0.945457
0.789556
0.66489
1.13724
0.767126
0.355835
0.412442
0.718617
1.07497
0
0.438788
1.40922
0.78898
0.651909
1.22997
0.421904
0
0
0
0
0.78862
0.856181
0.592217
0.516726
0
0.55217
1.582
0.875753
0.607908
0
0.500656
1.61007
0
0.551306
0.819816
0
0
0.840344
0.72818
0.43076
0.404521
0.395492
0.611429
1.86271
0
0.377691
0
0.91334
1.43992
0.959237
0
0.63306
0.767661
0.300567
0.72653
0
0.746495
1.13543
0.925595
0.740446
0.615274
0.383665
0.527524
0.485523
0.871362
1.20001
0.882245
0
0.4807
0.901728
0.862868
0
1.49901
0.815472
0
0.513506
1.00853
1.2883
0.610602
0.774113
0
0.4953
0
0
0.462647
0.16816
1.3016
0.930344
1.45157
0
1.04241
0.879209
1.12292
0
0.660477
0.604917
0
0.600259
0
1.17367
0.355765
0.745134
0.258216
0
1.06139
0
0.315237
0.674118
0.632603
0.546006
0.479002
0.594771
0.526691
1.16751
0.996428
0.398113
0
0.454223
0.462073
0.508817
0
0.763381
0.437121
0.899283
0.887909
0
0.748373
0.740753
1.51832
2.80526
0.666121
0.769922
0
0.614666
0.81802
0.505679
0.339593
0
0.772229
0.591407
0.987338
0.50133
0.965851
0.413387
0.589822
0
0.606918
2.13725
0.707317
0.725847
0.483574
0.580413
0
0.401575
0
0.348975
0.494927
0.918301
0.609793
0.911974
0
2.11637
1.11819
1.44466
0
0.456881
0
0.48295
0.178559
0.268185
0.322232
0.799316
1.68164
1.03209
1.27173
1.66041
0.688402
1.41372
0.948273
0
0.685499
0
0
0
0
0.348908
0
0
0
0
0
0
0
0
0
0
0
0
0
0
0
0
0
0
0
0
0
0
0
0
0
0
0
0
0
0
0
0
0
0
0
0
0
0
0
0
0
0
0
0
0
0
0
0
0
0
0
0
0
0
0
0
0
0
0
0
0
0
0
0
0.145286
0.56761
0.728539
0.511084
0.55815
0
0.435829
0.696162
0.282248
0.347194
0.934646
0.573233
0.423451
0
0.455564
1.22944
0.343565
0.594225
0
0.460039
0.430707
1.57122
0.49598
1.43674
0.358446
0.823752
0
0.674528
0.655019
0.231951
0.507474
0.834962
1.06505
0.634478
0
0.404497
0.48685
0.373458
0.918529
0.850844
0.229698
0.75954
0
0.409276
0.665198
0
0.419559
0.305818
1.61536
0.264046
0
0
0.627097
1.36256
0.799845
0.476709
0.156181
2.04042
0
0.356271
0.970679
0
0.317612
1.14451
0.616515
0.328176
0
0.686191
1.05759
0.422908
1.09397
1.01677
0.695341
1.11055
0.240247
0.628671
0.94682
1.21779
0.546144
0.614225
0
0.463015
1.55597
0.977535
0.85533
0.590006
1.32409
0.376731
0.754346
0.72597
0.293902
0
0.621916
0
0
0.337735
0.842212
1.48061
2.2366
0
0.721996
0.376008
0.681073
0.711944
0.484677
0.524562
0.620093
0.769359
0.537747
0.859767
0
0
0.522923
0.599688
1.21585
0.0748706
0.850822
0.278814
0.458824
0.555464
0.347419
0.593616
0
0.743421
1.1503
2.06135
0.502149
0
0.678526
0.885539
1.77402