<?xml version="1.0"?>
<VTKFile type="RectilinearGrid">
<RectilinearGrid WholeExtent="0 32 0 32 0 32" Origin="0 0 0" Spacing="1 1 1">
<Piece Extent="0 32 0 32 0 32">
<PointData>
</PointData>
<Coordinates>
<DataArray type="Float32" format="ascii">
0 0.524874 1.04975 1.57462 2.0995 2.62437 3.14924 3.67412 4.19899 4.72386 5.24874 5.77361 6.29849 6.82336 7.34823 7.87311 8.39798 8.92285 9.44773 9.9726 10.4975 11.0224 11.5472 12.0721 12.597 13.1218 13.6467 14.1716 14.6965 15.2213 15.7462 16.2711 16.796 
</DataArray>
<DataArray type="Float32" format="ascii">
-5.03879 -3.62163 -2.20447 -0.787311 0.629849 2.04701 3.46417 4.88133 6.29849 7.71565 9.1328 10.55 11.9671 13.3843 14.8014 16.2186 17.6358 19.0529 20.4701 21.8872 23.3044 24.7216 26.1387 27.5559 28.973 30.3902 31.8074 33.2245 34.6417 36.0588 37.476 38.8931 40.3103 
</DataArray>
<DataArray type="Float32" format="ascii">
0 0.524874 1.04975 1.57462 2.0995 2.62437 3.14924 3.67412 4.19899 4.72386 5.24874 5.77361 6.29849 6.82336 7.34823 7.87311 8.39798 8.92285 9.44773 9.9726 10.4975 11.0224 11.5472 12.0721 12.597 13.1218 13.6467 14.1716 14.6965 15.2213 15.7462 16.2711 16.796 
</DataArray>
</Coordinates>
<CellData>
<DataArray type="Float32" Name="Scalar" format="ascii">
0
0
0
0
0
0
0
0
0
0
0
0
0
0
0
0
0
0
0
0
0
0
0
0
0
0
0
0
0
0
0
0
0
0
0
0
0
0
0
0
0
0
0
0
0
0
0
0
0
0
0
0
0
0
0
0
0
0
0
0
0
0
0
0
0.177585
0.324056
0
0.345486
0.390204
0
0.360325
1.094
0.170589
0.680438
0
0.239084
0.445771
0
0.264899
1.05674
0.302919
0.299484
0
0.33283
0.230479
0
0.211017
0.858064
0.230939
0.298582
0
0.224709
0.277869
0.456148
0.577324
2.30417
0.124974
0.257077
2.07672
0.684231
1.5636
0
0.099786
0
1.6177
0.0895406
0
1.4766
0.198133
0
1.13041
0.722955
0.111967
0.588171
0
0.177486
0.677014
0
0.230597
0
0.197171
0.252378
1.30735
1.83096
0.275061
0
0.469985
0.596862
2.16128
1.37683
0.685514
0
1.90989
0.440733
1.03607
0.849116
0.437234
0.677612
0.456232
1.27585
1.68159
0.71447
0.608274
0.8016
0.096012
0.4349
0
0
0.421191
1.49339
1.05397
0.323688
0
0.748674
1.3132
0.908576
0.57915
0.288351
0.638429
0
0.688917
0.842554
0.94252
0
0.959015
0.748175
1.68184
0.513511
0
0
0.749303
0
0
1.33255
0.677772
0
0.301009
0.272782
0.620603
0
0.693741
0.414935
1.08636
0.728874
0.871758
0.63297
0.711736
1.45922
0.197656
0.450034
0.303296
0
0.349833
0.888668
0.558889
0
0
0.669391
1.84561
1.22308
1.33912
1.06644
0
1.98633
0.807736
0.529132
0.774472
0.750275
0
0.748099
0.855265
0.737388
0.506871
0.390071
0
0
0
0.406153
0.864777
0
0.537112
1.14207
1.26849
0
0
0.821955
1.19112
0.993262
1.0657
1.13236
1.30128
0.789244
0.866346
0.402422
1.04826
0
0.404781
0
0.592767
0.719023
0.486855
1.08203
0
0.583956
0
0.766393
1.52108
0
0.823476
0.654667
0.548061
0.363481
0.601809
0.726504
0.456819
0.494713
0.730326
0
2.40187
0.825777
0.468782
0.149544
0.678498
0.777387
1.05916
1.44264
0.590653
0.700273
0.430385
0.753249
2.01054
0.947138
0
0
0.582866
0
0.451205
0.53186
0.817518
0.453066
0.780146
0.265081
0.49979
1.04414
0
0.67906
1.03365
0.519783
0.491318
0.576543
0.657398
1.34829
0.899908
0
0
0.758993
0.669322
0.418956
0
0.626634
0
0.283301
0
0.370737
0
0.920601
0
0.623689
0.462067
0.0906728
0.813116
0.521721
0
0.936444
1.03558
0.814873
1.35948
0.738882
0.686763
0
0.918336
1.03318
0.381639
0.666798
0.601393
0.255377
0.48954
0.690772
0.853334
0.762308
0.626459
0.88923
0
0.575342
0.512641
1.48343
0.582503
0
1.087
0.47233
1.17384
0.972303
0.285265
0.386795
0.542181
0.701105
0
0.716935
0
0.770099
0.122837
1.61377
0
0.443457
1.66872
0
1.30455
0.253748
0.562271
0.674286
0
0.394312
0
1.30392
0
0.927942
1.51633
0.932774
0
1.1351
1.13169
0.114523
0.386023
0.800224
0
0.651358
0.645643
0
0
0.866275
0.712619
0
0.596599
1.54526
0
0.784133
0.392712
0.578951
0.851701
0.458532
0
0.864097
0
0.482068
0
0.515391
0
0.639592
0.0565611
0.62955
0
0
0.371346
0.241759
0
2.1988
1.03341
0.970968
0.721606
0.858193
0
0.672553
0.435148
0.612134
0.222768
0
0
0
0.696174
0.228482
0.440064
0.242712
0.681116
0.819937
0.454544
0.900643
0.706954
2.07297
1.01281
0
1.59425
0
0.464552
0
0.563207
0
0.602201
0
0.345601
0.406171
0
0.573351
0
0
0.447424
0.569218
0
0.46271
0.971566
0.644972
0.528348
0
0.329714
1.01322
0
0.560889
0
0.442678
0
0.765053
0.527142
0
0.640574
0.603056
0.441186
0
0
0
0.583683
1.01318
0
0
0.467325
0.634714
0.851136
1.06795
0.795436
0.433174
0
0.640037
0.2469
1.23838
0.664092
1.41045
0.90425
1.23243
0.023023
0.260113
0.191149
0.719169
0.507017
0.836534
0.607081
0.483
0.963066
0.466004
0.600966
0.445157
0
0.60714
0
0.491586
0.233179
0.556427
0.729259
0.539153
0.654854
0.453088
0.535878
0
0.997385
0.365541
0.71042
0.964346
0.497722
0.547113
0.396993
0.62288
0.603041
0.207401
2.20622
0.71058
0.682122
0.269235
1.09021
1.32124
1.20182
0.552621
0.748397
0.0787383
0.802601
0
0
0
0.621199
0.736941
0
1.04433
0.782254
0
0.855175
0.618793
1.43313
0.754346
1.05529
0.730604
0.650291
0
0
0
0
0.299249
0.376879
1.09904
0.512845
0
0.535856
0.296721
0.708083
0
0.414225
0
0.49869
0.470275
0.785155
0
0.496243
0.859486
1.0385
0
0.508027
0.510809
0.953826
0.934456
1.33982
0.992081
0.743968
0
0.438706
0.258763
0.132291
0
0
0.517395
0.697031
0.96894
0.714001
0
0.629792
0.484332
0.512185
0.403719
0.740401
0
0.551578
0.669669
0.697107
0.848229
1.73961
0.865107
0.554801
1.01754
0.313588
0.619573
0
0.320435
1.32339
0
0.6346
0.493254
0
0
0.647007
0.111197
0.959414
0.353019
0.640999
0.479621
0.251402
0
0
0.588197
0.687295
0
0.75937
0.442618
1.03078
0.168855
0.460574
0.852454
0.487577
0.657067
0.962743
0.844861
0
0
0.196545
0
0.59333
0
0.436496
0
0.410168
0
0.626397
0.58611
0.71588
0.771384
0.881344
0.62937
1.58034
0.734786
0
0.773162
0
0.361279
0.881345
0.42734
0.767302
0.709622
0.560775
0.0726807
0.502469
0.46037
0
1.2669
0.953506
0
0.879818
0.4935
0.450304
0.738403
0.274493
0
0
0.928331
0.472591
0.97657
0.40491
0.653912
0.787477
0
0
0.246709
0.993547
1.04443
0.410883
0.501277
0.363702
0
0
0
0.485116
0
0.829395
0
0.544951
0
0.928681
0
0.469568
0.496718
0
0.83381
1.5965
0.56688
0.516556
0
0.30537
0
0.857136
1.06493
0
0.532455
0.364793
0.595676
0.709072
1.2334
0
0.526651
0
0.831871
0.838581
0.794748
0
0
0.567787
0
0.444469
0
1.13454
0.347544
0.982051
0
0.570152
0.776269
0.873611
0.742377
0
0.286904
0.985461
0.552462
0
0
0.622397
0.719513
0.440494
0.367589
0
0.507476
0.511794
0.733287
0
0.944237
0.754023
0.564644
0
0
0.511562
0
0.567074
0
0.63165
0.440133
0.588934
0.439683
0.440309
1.14621
0.88362
0.497975
0.26578
0.6295
0.771652
0.652254
0
0.25534
0.793213
0.519947
0.0426467
0
0
0
0
0
0.493985
0.928414
0.415182
0.876959
0.544532
0.669883
0
0
0.275559
0.466649
0
0.625932
0
0.630721
0
1.04502
0.659614
0.476092
0.125477
0.698736
0.281539
1.03882
0.393556
0.422376
0
0.751048
0.643983
0.561966
0.54607
0.385595
0.690769
0.57584
0.533474
0.569172
0.381253
0
0.827754
0.928617
0.700603
0.378789
0.73384
0
0.804614
0.607891
0
0.407413
0.68869
0
0.8644
0.495449
0.864316
0.895691
1.54359
1.19979
0
0
0.898805
0.795818
1.12226
0.643076
0
1.24829
0.945216
0
1.6971
0.554442
0.546899
1.05038
0
0.579841
0.494193
0.998438
0.629066
1.00447
0.243132
1.45291
0
0
0.614355
0.62499
0.356003
0.628965
0.457289
0.420834
0.904717
1.21197
0
0.37928
0.279132
0.873901
0.485276
0.835765
1.01008
1.35854
0
0.466267
0.392182
0
0
0.571735
0.18084
0.553244
0
0.502596
0
0.477267
0
0.580473
0.71738
0.449028
0
0
0.773028
0.517618
1.04372
0
0.826715
0.477693
0.45659
0.605438
0.575802
0.3677
0.265877
0.436564
0.361438
0.431446
0.712361
0
0.562958
0
0
0.606002
0
1.33281
0
0.583286
0.482068
0.152223
0.63239
0
1.57489
0.525502
0
0
0.505372
0.635923
0.859926
0
0.160157
0.662169
0.472943
0.869605
0.801625
0.491554
0.452772
0.374199
0.942299
1.2871
0.543239
0
0.0690267
0.223799
0.180573
0.977842
0.115994
0
0.507623
0.592706
0.637662
0.402736
0.88792
0.888624
0.317054
0.903125
0.803653
0
0.464471
0
0.339587
0.590097
0
0.539637
0.663472
1.11363
1.11247
0
0
0
0.109005
0
0.563959
0.447663
0.361667
0
0.358103
0.643915
0
0
0
0.983038
0.222147
0.421389
0.625666
0.967233
0.39554
0
0.33448
0
0.320616
0.4066
0.903142
0.896662
0.694699
0.782019
0.690685
0.222127
0
0.923734
0.370183
0.496934
0
0.51301
0.876036
0.636269
0
0.451521
0
0.380426
0.797127
0.627179
0.55162
1.20507
0.924054
0.492407
0.683878
0
0.245196
0.485888
0
0.307762
0
0
0
0
0
0
0
0
0
0
0
0
0
0
0
0
0
0
0
0
0
0
0
0
0
0
0
0
0
0
0
0
0
0
0
0
0
0
0
0
0
0
0
0
0
0
0
0
0
0
0
0
0
0
0
0
0
0
0
0
0
0
0
0
0.251348
0.641888
0
0.521958
0.484693
0
0.443808
1.33982
0.147623
0.386172
0
0.516086
0.543346
0
0.578745
0.874764
0.201037
0.42291
0
0.381498
0.743038
0.227213
0.590185
1.25088
0.338354
0.59539
0
0.396099
0.448404
1.13915
0.542509
0.685326
1.19148
0.848655
0
1.03062
0.338377
0
0.704675
0.706435
0.264999
0.97307
0
0.139862
0.865504
0.1587
0.496541
0.556312
0.708056
0.26184
0
1.01113
0.378175
0
0.669522
0.36993
0.0834726
1.27994
1.06063
0.885775
1.60897
0
0.277428
0.331216
1.37677
0.847835
0.759696
0.343505
0
0.444449
0.494297
0
0
1.14482
0.490317
0.77859
0.678277
0.854802
0
0.684977
0.773871
0
0.705631
0.911329
0.860868
0.853987
0.496783
1.26617
0.543226
1.03979
1.78533
0
0.573507
0
0
0.857695
0.918744
0.33766
0.645453
0
0.964558
0
0.63296
0
0.429108
0
0.626684
0.382185
0.962522
0.4177
0
0.48238
0.845469
1.75498
0
0.780531
0.974379
0.835377
0.650774
1.33515
0.492133
0.575509
1.27322
1.33037
0.371659
0
0.761246
0
0.953274
0
0.681883
0.936006
0.410456
0
0.780058
0.723307
0
0.943116
0.710109
0.649226
0.77701
0.866686
0.67125
1.44023
0.348112
1.2179
0.837103
0
1.02943
2.35566
0.556155
0.455112
0.825032
0.715373
0
0
0.72474
0
0.867731
0
0.804133
0.997892
0.918802
0.792893
0.983446
1.23671
1.63611
0.478084
0.496208
0
0.773395
0
0.835583
1.1002
0.925434
1.22691
0.823874
1.03744
0
0.550308
0
0
0.661714
1.07413
0.395105
0
0.610476
0.218666
0.838957
0.927939
1.19972
0.413634
1.27077
0.918899
1.10266
0.763448
0.669483
0.485908
0.423689
1.72689
0.413415
0
0.709238
0.714051
1.00441
0.154314
0
0.36276
0.706026
0
0.934631
0.647348
1.00408
0.686853
0.58466
0
0.761596
0
0.659154
0
0.565168
0.629588
0.393061
0
0.327612
1.09324
0.502429
0.802831
0
0.691481
0.542698
0.948882
0
0.917951
0.632993
0.566855
0.46091
0.292494
0.3245
0.274771
0.974054
1.06585
0.753227
1.73249
0.390699
0.498274
1.23039
1.18812
0.874518
0
0.443171
0.707197
0.677334
0.560591
1.20606
0.872335
0.802523
0.620246
0.413218
0
0
0.398898
0.87904
0.817356
0.407468
0.745887
0
0
0.273089
0.692756
0.682632
0
0.500721
0.263509
0.418175
0.927697
0
0
0.30159
0.626824
1.06849
0.768306
0.481729
0.669417
0.557943
0
0
1.38964
0.964201
0
0.926013
0.482619
0.847292
0
0.278972
0
0.511669
0.967647
0.615282
0.800497
0.728549
1.1634
0.437629
1.51929
0.478776
0.933045
0
0.579731
0.644891
0.962631
0.944985
0.331012
0.436129
0.630829
0.772527
0
0.510918
0
0
0
1.03289
0.711159
2.0604
0
0.826848
1.28179
0.579014
0
0.861611
0.749954
0.7862
1.13443
1.23908
0.487282
0.362138
0.837392
0.539187
0.504291
0.156639
0.850129
2.35331
0
1.02959
0.945643
0.764371
1.24509
0.413316
0.927195
0.45548
0
0.536651
0
0.481037
0.361634
0
0.751433
0.425184
0.353618
1.09337
0.887008
1.34204
0.811123
1.01482
0.775263
1.86331
0.830572
0
0.792634
0.477144
0
0.747368
0.235122
0.25809
0
0.509059
0.670357
0.539343
0
0
1.16017
0.927099
0
0.475913
0.163423
0
0.697006
1.47003
0.404779
0.165659
0
0.918953
0.728507
1.07821
1.4869
1.01932
1.02911
0.310094
0.466908
0
0
0
0.325576
0
0.405343
0
0.34655
0
0.467203
0.799547
0.870642
2.16784
0.49154
0.841534
0.504255
0.969956
0.55763
0.585867
0.661893
0.681528
0.430967
0
0
0.49988
0.517806
2.01318
0.917363
0.535493
1.09414
0
0.775051
0.692063
0.808879
1.30556
0.565014
0
0.266532
0
0.33582
0
0.451131
0
0.420279
1.19538
1.19394
0
0
0.562641
0.885234
0
0.794809
0.476129
0.572661
0
0.600131
0
0.457955
1.59565
0.605806
0
0.450786
0.940826
1.26475
0.554065
0
0.657478
0.0664456
0.740115
0
0.865638
1.48442
0.58154
0
0.0965104
0.647623
0
0.587675
0
0.71029
0.532418
0.49364
0.209285
0.727282
0.690691
0.729382
0.480987
0.553513
0
0.472805
0.605135
0.54346
0
0.471922
0
0
1.03621
0
0.338021
0.315355
1.5774
1.36598
0.73605
0.468083
0.749124
0
0.519571
0.867735
0
0.62355
0
0.692097
0.691665
0.617459
0
0.456075
0.531111
0.46432
0.574903
0.435059
0.556509
0
0.744275
0.507927
0.246014
0.468708
0.776145
0
0.565908
0
0.58004
0.878174
0
0
0.792973
0
0.822692
0
1.04399
0
0
0.415725
0
0
0.457689
0
0.615439
0.780601
0.628803
0.494885
1.13725
0.694003
2.253
0.937239
0.684652
0.342031
0
0.538361
0.521333
0
0.44275
0.904225
0
0.290306
0.494126
0.917692
1.025
2.11034
0
0
0.577552
0.414358
0.756323
0.270201
0.642251
0.638507
1.20499
0.21742
0.331166
0
0
0
0
0.94211
0
0
0.8002
0.601905
0.353589
0
0.524358
0.435331
0.70454
0.496627
0.728035
0.88066
0.656265
1.38977
0.950598
0.524798
0
0
0.569189
0.920532
0.472067
0.45548
0.487211
0.705532
0.552354
0.258387
0
0.696868
0.863751
1.0874
0.521687
0.688623
0.444129
0
0
1.26381
1.04538
0.433429
0.689827
1.03752
0.736091
0
0.66747
0.538547
1.03162
0.952495
0
0
0
0.864974
0.952081
0.804099
1.06712
0
0.551006
0.404071
0.580732
0.254495
0.72061
0.381623
0.422899
0.28694
0.638972
0.545024
0.826149
0.221952
1.07392
0.539981
1.07671
0.319698
0
0.574826
0
0.699282
0
0
0.645554
0
0.593101
0.553979
0.887345
0
0.514821
0
0.999998
0.36954
0.624087
0
0
0.454232
0
0.6755
0.673089
0.880914
3.01788
0
0.440777
0.394393
0.533982
0.360112
0.916138
0.46818
0.437237
0.267442
0
0.800914
0.517998
0
0.572863
0.233607
0.411464
0.808316
0.10914
0
0.759495
0.181759
0.788066
0.706857
0.861589
0.333877
0.404236
0
0.851337
0.505739
0.50802
0
1.00665
0.644095
0
0.794775
2.02831
0
0.65473
0.624907
0.684498
1.41772
0.455353
0.437672
0.8757
0.723705
0.551333
0.26284
0.207816
0
1.11074
0.479825
0.595748
0.5399
0.877245
0.480022
0
0
0
0.914726
0.41926
0.706467
0.718244
0.546361
0.909861
1.51186
0.847595
0.742423
0.602128
0
0.506087
0.456845
0
0.337077
0
0
0
0.295992
0
0.678856
0.699514
0.642819
0
0.565074
0
0.824673
0
1.42348
0.279365
0.752047
0
0.662769
0
0
0
0.295787
0
0.338344
0.462417
0
0.874537
0
0
0.42566
1.18755
0.770794
0.66261
0.603659
0
0.786562
0
0.99436
0
0.989902
0
0.437239
0.596739
0.583248
0
1.12993
0.847969
0.635162
0
1.28368
0.424276
0.513941
0
0
0.641024
0.77074
0.816678
0.84537
0.441333
0
0.289333
0
0.512232
0.851368
1.28439
0.547362
0
0.857448
0
0.540256
0
0
0.43456
0
0.928017
0
0.4877
0
0.782597
0.562224
0.923642
0.443111
0.530034
0
0.473113
0.800537
0.664438
0
0.523543
0
0.375934
0
0.341212
0
0
0
0.433916
0.29311
0
0.457321
0.741876
0
0.386635
0.54094
1.04704
0.737788
0.323426
0.460013
0
0.5917
0.865351
0
0.242059
0.573172
0.0910744
0.617514
0.5231
1.07735
0.584854
0
0.490892
0.819426
0.716624
0.590629
0
0.168829
0
0.673518
0.393375
0.49927
0.404102
0.756644
0.697391
0
0
0.386877
0.463268
0.60342
0
0
0.636971
0
0.708171
0
1.54021
0.680326
0.90292
0.545988
0
0.487367
0
0
0
0.713152
0
0
0.46251
0
0.416498
0
0
0.617063
1.01044
0.790876
0.354619
1.38375
0.554957
0.546772
0.776957
0.384061
0
0.391708
0
0.412895
0
0.571232
0.436216
0.746617
0.9705
0
0.912561
0
1.71239
0.502312
0.610131
0
0.290673
0.62169
0.797061
0.218678
0
0.335188
1.0034
2.27316
1.69946
0.279971
0.342082
0
0
0.638223
1.30895
0.531867
0
0
0.283331
0.545634
0.989292
0.842998
0.718062
0.291582
0
0
0
0
0
0
0
0
0
0
0
0
0
0
0
0
0
0
0
0
0
0
0
0
0
0
0
0
0
0
0
0
0
0
0
0
0
0
0
0
0
0
0
0
0
0
0
0
0
0
0
0
0
0
0
0
0
0
0
0
0
0
0
0
1.87958
0
0
0.234985
0
0
0.562577
0
1.62705
0
0
1.59762
0
0
0
1.49966
0.605676
0
0
0
0.756756
1.38271
0
0
0.62568
2.59368
0
0.554621
0
0
1.63935
0.986327
0
0
0
0
0
0
0
0.636113
0.856385
1.43129
0
0.822529
0
0
0
0
0
0
0
0
0
0
0
0
0
0
0
0
0
0
0
0
0
1.02901
0.59286
0.367015
0
0.597734
0
1.22853
0.490018
0.236565
0.621929
0.420466
1.08294
0.731721
1.01403
0.352468
0.61219
0.589602
0.0966727
0.202628
0.879
0.317927
0.134087
0.969121
0.719266
0.752587
1.85439
0.845957
0.746854
0
0
0
0.938171
1.12408
0
1.41446
0.735487
0
0
0
0
0.793491
1.38621
0
0
0.838293
0
0.483778
0
0.610286
0.335965
0
0
0.747594
1.07317
0.932338
0.454006
0.987804
1.15246
0
0.303185
0
1.08612
1.40543
1.02223
0
0.890802
0
0
0
0.684526
1.05907
0.873092
3.51272
1.77456
0.506484
0.760036
0
0.822852
1.33785
1.07988
0.883091
0.724227
0
0.732468
0
0.72794
0
1.26644
0.867506
0.902947
0
0.667932
0.500445
0.951947
0
0.361447
0.612235
0
0.346237
0.819941
0.454567
0
0
0.345169
0
0.667518
0
0.618101
0
0.709298
2.6182
0.749699
0.82775
0.713993
0.127253
0.527443
1.89608
1.613
0.3542
0.626395
0
0.989799
0
0.888652
0.402231
0.767535
0
1.20443
1.702
1.58779
0.61083
0.665201
0.446598
0.516085
0.247967
0
0.749656
0
0.485315
0.59557
0
0.569851
0
0
0.983623
0.723338
0.445887
0.282113
0.723367
0.44841
1.0601
0.510726
1.67844
0.828682
1.54867
0.592285
1.65436
0.515076
0.94158
1.29392
0.704621
1.02226
0.316609
1.10467
0.830532
0
0
0.6703
0.474394
0.743476
0.590207
0.559287
0
0
0.500987
0
0.474912
0.745521
0.770476
0
1.69053
0.757521
0.729132
0.913735
0.586715
0.710433
0.490357
0
0.780867
1.24714
0.710717
0
0.664519
0.29437
0.604154
0.395927
0
0.800475
0.598096
0.231952
1.16668
0
0.67126
0.570104
0.599046
0.713274
0.629995
0
0.547795
0
1.32038
0.368657
0.751791
0.70416
0.501035
0.944153
0.768978
0.781416
0
0.509185
0
0
0
1.51408
0
0.430532
0
0.944403
1.19489
0.461677
0.555401
0
0.713432
0.89027
0.592339
0
0
0.689227
0.0474795
1.01599
0.528091
0.422544
0
0.322731
0
0
0.724053
1.1163
0.827512
1.17677
0
0.637419
0
0.56023
1.21037
0.444167
0
0.635194
0.37967
0
0.716389
0.654413
0.342316
0.447963
0
0.746892
0.482132
0.358751
0.699988
0
0.799927
0.355561
0.271972
0.428775
0
0.942372
0.65897
0.251843
0.498328
0.622049
0.754118
0.598226
0.800619
0
0.538394
0
1.2458
1.03744
0.708314
0
0.493645
0.985133
0
0.998488
0.775651
0.776598
1.09605
1.01769
0.758871
0.567762
0
0.150491
0.35433
0
0.403923
0
0.334344
0.236325
0.592132
0
0.329112
1.07248
0.214644
0.847791
0.138258
0.58086
0.488363
0.352533
0
1.02674
1.07244
0.899718
0
0.601249
0.478995
0.875509
0
1.32761
1.08488
0
0.349999
0.795082
0.725814
0.409238
0.913994
0.241553
0
0.344686
1.19009
0.541799
0.457173
0.492746
0
0.611821
0.84138
0
0.34637
0.793186
1.07318
0.826044
0
0
0
0.644488
0.722038
0.871959
0.382284
0.62672
0
0.366531
0
1.22026
0.726334
1.02902
0.722309
1.24703
0.413604
0.409848
0.326632
0.561702
0.662084
0.283447
0
0
0.453581
0
1.33049
0.340219
0.84424
0.605406
0.62956
0.804734
0.402496
0.447837
0.537662
0.855353
0.559356
0
0.57042
0.227638
0.4403
0
0.509188
0
0.727379
0.837912
0.754414
0
0.582607
0
0.401149
0
0
0.570315
1.77706
0.370384
0.430001
0.573477
0.748102
1.99412
1.1236
0.712365
0.742764
0.145799
0
0.78235
0.561881
0
0.713233
0.853898
0
0.692024
0.407637
0
0.489887
0.0591859
0.614789
0.759229
0.900685
0.671801
2.03594
1.96555
1.49329
0.543541
0.948474
0.353745
0.289221
0
0.886416
0
0.35399
0
0.611493
1.20508
0.39604
0.29865
0.830071
0.533204
0
0
0
0.0542264
0.685902
0
0.671097
0.627874
1.00709
0.864922
0
0
0.670067
0
0.266484
0
0.273516
0
0.35726
0.560019
0.585216
0.468308
0
0.25277
0.220343
0.466223
0
0.696877
0.895788
0
0.353209
0.771031
0
0
0.519462
0
0.621914
0
0.435531
0
0
0.625928
0
0
0.726014
0
0.439738
0.873238
0.78946
1.4184
1.02404
0.587194
1.04895
0.205691
0.392628
0.786535
0.430282
1.36461
0
0.437329
0
0.229696
0.860281
0.336226
0.416639
0
0.519178
0.662993
0.874954
0.0809295
0.720035
0.261792
0.385652
0.536061
0
0.62582
0
0
0
0.94201
1.22206
0.74038
1.03908
1.04462
0
0.36452
1.27223
0.474302
0
0.394688
0.202873
0.519275
0.390127
0.477152
0.418579
0.195195
0
0
0.490843
0.352779
0.500329
0.169189
0.393455
0.312835
0
0.567302
0.461423
1.04568
0.563426
0.612583
0.521248
1.38617
0
0.648131
0.73141
0
0.574308
0
0.143668
0.4286
0.311873
0.924124
0.963076
0.511461
0.525877
0.595174
0.498019
0.423538
0
0.880313
0.542381
0
0.621898
0
0
0
0.568094
0
0.4358
0.185551
1.09144
0.347213
0
0.553248
1.04564
0.925882
0.643514
1.29121
0
0.396426
0.321952
0.522995
1.4491
0.642755
0.340141
0.839619
0.500869
1.25101
0
0.305476
0
0.706565
0.529937
1.75495
0
0.371925
1.37321
0.877521
0.338884
1.33072
0.667895
0.450883
0.615418
0.21194
0.987741
0
0
0.389871
0
0
0.682293
0.389006
0
0.536928
0.602703
0.361503
0.634803
0.316588
0.232749
0.518105
0.235578
0.65714
0.989478
1.26995
0.376959
0.989987
0
0
0
1.0751
0
0.374777
0.367002
0
0
0.243017
0
0.56763
0
0.668916
0.443508
0.600401
0.674776
0
0
0.211108
0.285847
0.984326
0.454944
0.342396
0.105393
0.425173
0.377184
0.704293
0
0.487184
0.690589
1.06388
0
1.01888
0.814233
0.730066
0
0.276095
0
0.65073
0
0.610262
0
0.511677
0
0.643821
0.669077
0.621962
0.742383
0
0.371925
0
0.848423
0
0.857793
0.834027
0.899701
0.796994
0.810251
0.913502
0.444348
0.310277
0.804831
0.356588
0.635299
1.06875
1.03659
0.773749
0.782987
0.577284
0.398234
0.783849
1.40251
1.48936
0
0.668168
0.461496
0.288119
0
0
0.563368
0.627727
0.514244
0.36081
0
0.615213
0
0
0
0
0.58377
0
0.631144
0
0.474525
0.338076
0.89261
0
0.674716
0
0.793429
2.19406
0.580937
0
0
0.52207
0.426279
0
0.580568
1.37067
1.12504
0.595816
1.27663
0.730858
0
0.488597
0
0.421523
0
0.435874
0.230357
0
0
0.910507
0.494325
0.65263
0.114536
0
0.571308
0.82543
0.96997
0.704465
0
0.234274
0
0.6986
0.814078
0.561764
0.169993
0.500658
1.42965
0
0.80787
0.787294
0
0.476548
0.645984
0
0.538004
0
0.313018
0.271143
0.531917
0.736924
0
0.797277
0.597102
0.491782
0.410062
0.659254
1.13133
0.818112
0
0.288616
0
0.781191
0.502355
0
0
0.546119
0.48758
0.470049
0
0.632714
0
0.578847
0
0.636021
0.232546
0.535346
1.61836
1.74967
0
0.505514
0
1.34709
0
1.69169
0.207884
0.508351
0
0.504641
0.489948
0.76362
0.598332
0.421338
0.312047
0
0
0.23675
0.417851
0.450736
0.560733
1.14939
0
0.870051
0.783624
0.855776
0
0
1.6311
0.620282
1.21146
0
0.46024
0.552068
0.275476
0
0.650498
0.619636
0
2.74945
0.787988
0.976812
1.02076
0.81347
0
0
0
0.3525
0.579524
0.585176
1.14795
0.919974
0
0.331508
0
0.385991
1.18016
0.534233
0
1.39547
0.736266
0.506212
1.16865
0
0.716443
0.751266
0
0.353251
1.08416
0
0
0
0
0
0
0
0
0
0
0
0
0
0
0
0
0
0
0
0
0
0
0
0
0
0
0
0
0
0
0
0
0
0
0
0
0
0
0
0
0
0
0
0
0
0
0
0
0
0
0
0
0
0
0
0
0
0
0
0
0
0
0
0
0.428091
0.497825
0.572119
0.499073
0.448597
0.881059
0.618274
1.7229
0.438388
0.403824
1.05443
0.518057
0.565823
0
0.370876
1.27945
0.300946
0.672269
0
0.444802
0.681858
1.13136
0.381017
1.27546
0.608138
0.5637
0
0.575883
0.596348
0
0.486775
1.29931
0.223375
0.35733
0
0.38248
1.87142
0
0.470598
1.79687
1.65486
0.466767
0
1.00892
0.306269
0.22165
0
0.722971
0.237831
1.17878
0
0.199053
0.991893
0
0.40851
1.47991
0
0.70368
0
0.346573
0.213753
0
0.581168
0.470993
0.951125
0.754892
0
0.956168
0.93692
1.43294
0
0.25795
0.797602
0.70462
0.561432
0.699115
0.582678
0.770822
0.828922
0.568977
0.308055
0.760347
0.569952
1.86868
0.843771
0.934461
0.839242
0.237365
0.598399
0.858068
0.182165
0.470004
0
0.515645
0.475636
0.684078
0
1.05364
0
0.510722
0
0.528145
0.668255
0.283844
0.980136
1.03304
0.461743
0.509415
0.46116
0.39255
0
0
0.543946
0
0
0
0.498529
0.461931
1.94778
0.803157
0.46198
0.450239
0.235643
1.10542
0.58905
1.05204
0.917692
0.602148
2.49189
0.599667
0
0
0.54591
0.410303
0.785747
0.58812
0.643717
0
0
0.517139
1.23379
0.878369
0.707428
0
0.705341
0
0
1.48708
0
1.03196
0.655085
0
0.605667
0
1.28461
0.714078
0
1.09937
0.959451
1.52101
0.246148
1.18399
0
0.678736
0
1.44919
0.589827
0
0.562134
0.215165
0.386062
0
0.763212
0
0.670693
0
0
0.799803
1.08803
1.13052
0
0
0.427025
0.659281
0.723871
0
0.687695
0.698212
0.765611
0
0
0.582128
0.60456
0.536924
0.538144
1.49181
0.765214
0.460502
1.34563
0.503627
0.329232
1.59543
0.379894
0
0.478953
0.844768
0
0.388562
0.636708
0.739198
0
0.788336
0
0
0
0.685098
0.702746
1.32877
0
0.505501
0
0
0.692172
0
0.516089
0
0.998193
0
0.582216
0
1.03714
0.812665
0.281988
1.85794
1.44811
0.711341
0.440149
0.478202
0.187776
0.751659
0.26885
0.814507
0
0.666693
0.499412
1.26951
0.411286
0.190787
0.56638
0.302403
0
0.567363
0.301597
0
0.468975
0
0
0
0.447829
0
0.638296
1.05618
0
0.391129
0.422502
0.369551
0.535162
0
1.07022
0.692013
0.56706
0.194325
0
0.529546
0.95823
1.22921
0.886434
0.778852
0
0.37419
0
0.560482
1.78803
0
0.445344
1.09024
0.536557
0.768031
0.739929
0.650145
0.58614
0
0.627574
1.8208
0.544151
0
0.689789
0.466186
0
0.900104
0.7454
0.995315
0.454086
0
0.426808
0
0.643614
0
0.149441
0
0.71469
0.925162
1.39634
1.15189
0.684264
1.94986
0.455322
0.981497
1.64126
0
0.350399
0.344335
1.43969
1.42855
0.839273
1.39856
1.82215
0.72785
0.344482
0.632383
0.485747
0.665005
0.794555
0.610486
0
0.74284
0.295105
0.366342
0.679987
0.800225
0.537134
0
0
0.482376
0.540271
0.297669
0
0.578525
0.078857
0
0.843209
0.780247
0.312052
0.444636
0.441861
0
0.652731
0
0.673127
0
0
0
0.856085
0.386658
0.762751
1.7904
0.560721
0.471943
0
0
0
0
0
0
0.450878
0.568645
1.31256
0.719456
0
0.360496
0.480632
0
0
1.27639
0.943265
0.846789
0.284067
0.426326
1.10927
0.274861
0.626004
0.464541
1.04497
0
0.254512
0.724087
0.284811
0.388249
0
0.255561
0.278509
0.671418
0.548372
0.660592
0.711994
0
0.334909
0
0.655192
0
1.05454
1.17993
0.469906
0.759218
1.00062
1.49063
1.04166
0.742504
0.290114
0.751131
0
0
0.55569
0
0.226481
0.281009
0.500154
0.372294
0.667757
0
1.23369
1.57641
0.556595
0.160166
0.574957
0
0.712238
0.517286
0.493136
1.02526
0.623368
2.01829
0.520411
0
0.71213
1.28863
0.735756
0.862751
0.679739
0.728882
0
0
1.61461
0.741211
1.42352
0.319331
0.671385
0.0930448
0.597194
0
0.826685
0.438283
0.43468
0
0.852645
0.913136
0.761305
0.574601
0.261227
0.358292
0.518162
0
0.546952
0.675977
0.97271
0.666823
0.676977
0.704843
1.16206
0.584184
0.698256
0
0.648166
0.936527
0.65741
0.898337
1.23522
0.397692
0
0.143752
0.317898
0.579728
0.496432
0
0.121019
0.917469
1.22763
0
0.354078
1.37854
0.892023
1.08833
0.510451
1.17664
0
0.46459
0
0
0.697013
0
0.27626
0.441475
1.23787
0
0.388602
0.574263
0.229985
0.709005
0
0.675232
0.336854
0.633667
0.352167
0.324411
0.292968
0
0
0.175192
0
0.499472
0
0
0.362598
1.12011
0.910675
0.901228
0.494122
0
0.800264
0.425042
0.39976
0.414071
0.551602
0
2.10613
0.430105
0
0.366179
0
1.12235
0.613954
0.532193
0.618365
0.592452
0
0
0.679804
0.396337
0.464249
0
0.945519
0.825397
0.139266
0.898004
0.107676
0.929522
0
0.481333
0.282304
0.558603
0.851759
0.434382
1.65192
0.613217
0.392292
1.845
0.119777
0.520157
0.355327
0.203668
0
0.717907
0.400341
0.493306
0
0
0.845199
0
0.691816
0
0.643742
0.911477
0.559174
0
0.788044
0
0.740753
0
0.290415
0
1.05742
0.39179
0.590126
0.407956
0.443884
0.826298
1.08566
1.37078
0
0.588879
0
0.37471
0.776089
0.571054
0
0
1.00354
0.51654
0.665742
0
0
0.137615
1.15214
1.50994
0.637972
0.526093
0.4538
1.42257
0.378991
0
0
0.899775
0
0.577171
0.855988
0.881983
0.49807
0.387931
0.383291
0
0
0.555224
0
0.820346
0.797477
1.41885
0.394507
0.815727
0.32842
0.32582
0.596422
0
0
0.483461
0.661796
0.834727
0.68163
0
0.542187
1.55416
0.994808
0.511192
1.34968
0.592356
0.936024
0.590314
0.866196
0.631651
0.403738
0.796035
0
0.496404
0
1.25328
0.461041
0
0.519278
0.784708
0.772647
0.479881
0.775591
0.414166
0.540771
0
0.509946
0
0.607971
0.144846
0.724185
0.436942
0
0.68415
0.599702
0.724422
0.837156
0.620868
0.62933
0
1.38149
0.472955
0.511085
0.231431
0
0.853623
0.419117
0
0
0
0.868443
0.789501
0.865102
0.574914
0.896593
0.726064
0
0.669502
0
0.732292
0.430083
0.640109
0.58372
1.14856
0.808016
0.531239
0.769664
0
0.750411
0
0
0.242011
0.398593
0.487383
0.714353
0
0.109429
0
0.429413
0.855996
0.529816
0
0.526936
0.706255
0.32252
1.08279
0.521918
0.61757
0
0
0
0.74736
0.390952
0
0
0
0.354106
0.55337
0.999994
0.97258
0.591447
0
1.21851
0.683355
0.667791
0.905583
0.312889
1.65661
0.454421
0
0.690353
0.750807
0
0
1.05571
0.945235
2.58277
1.42664
0.916287
0.218656
0.777505
0.360725
0.560748
0
0.701325
0
0.814114
0.754855
0.338983
0.459255
0.389691
0.613054
0.575116
0.301775
0.478277
2.22658
0.772591
0
0.837754
0.445691
1.01572
0.683725
0.58109
0.795104
0.722941
0.195945
0
0.717012
0.646574
0.598049
1.23759
0
0
0.191949
0
0.730653
0.516854
0.746414
0
0.272944
1.01531
1.20239
0.954787
1.56324
0.467308
0.899248
0
0.264607
0.398898
0.660074
1.48928
1.78406
0.607803
0.674856
0.847389
0
0.431546
0.251584
0.536444
1.3669
0.458824
0.589854
0.923929
0.80176
0
1.43586
0
0
0.400163
0.189979
0
0.513742
0.78437
0.479586
0.899351
1.0263
1.28489
0
1.06661
0.353541
0.56587
0.264076
0.601501
1.21865
0
0.402907
0
0.0456929
0.680687
0.943947
0.556062
0.480386
0.667141
0.441556
0.502561
0.339718
0.222195
0
0
0.835501
0.377466
0.613998
0.461069
0.396219
0.469461
0
1.13912
0.650996
0.385237
0
0
0.784942
0.497215
0.934292
1.88404
0.291938
0.979637
0
0.621052
0
0.813185
0.863159
0.601825
0.521866
0.421635
0
0.418222
0.372672
0.869169
0.529593
0
0.544776
0
0.432601
0
0.914214
0.203911
0.781814
0
1.17031
0.85332
0.934133
0.923515
0
0.268674
0
0.913852
0
0.3744
0.429169
1.36266
0.443021
1.731
1.41399
1.25518
0.201075
1.15532
0.347248
0.590368
0.548294
0.49438
1.02521
0.304586
0
0.684114
0.563056
0.344003
0.940039
0.557983
0.99423
0.713945
1.11157
0.696695
0.572648
0.643775
0
0.73196
0.506651
0.305434
0.674965
0.586593
0
0
0
0
0
0
0
0
0
0
0
0
0
0
0
0
0
0
0
0
0
0
0
0
0
0
0
0
0
0
0
0
0
0
0
0
0
0
0
0
0
0
0
0
0
0
0
0
0
0
0
0
0
0
0
0
0
0
0
0
0
0
0
0
0
0.373094
0.563747
2.77764
0.472879
0.368326
0
0.63643
1.44035
0.482749
0.554172
0.186541
0.524572
0.561391
0
0.513343
0.931451
0.21348
0.367806
0
0.473672
0.562358
0.88215
0.440968
1.15262
0.276966
0.407752
0
0.566019
0.42445
1.49581
0.689961
0.899549
1.98559
0.445887
2.21225
1.22976
0.551374
0
1.17142
0.641209
0.217542
1.92189
0
0.600037
0.847818
0
0.313493
0.640572
0.860644
0.56271
2.26887
1.16178
0.569279
0
1.63376
0.21443
0.0803382
1.06703
0
0.473529
1.53995
0
0.267192
1.39935
0.548885
0.729879
0.841242
1.24202
2.02011
0.804874
0.805422
1.28262
0
0.753675
1.00124
0.835662
0.339822
0.604844
1.17206
0.993727
0.622118
1.14987
1.04873
0.959399
1.40849
0
0.370162
0.820118
0.672352
1.90528
1.09268
0
1.44003
2.13874
0
0
0.350989
0.389986
0.563462
0
0.503723
0
1.5657
0.610562
0.522287
0.984215
0
0
0.544605
0.636505
0.411722
0
0.565714
0
0.401355
0
0
1.75273
0
0.599418
0
2.80471
1.34473
0.947426
1.26054
0.416103
0.379361
0.46258
2.23531
0.917619
0.92056
0.719574
0
0
0.902412
0
0.253297
0
0.980118
0
0
0.718508
0.749208
0.459155
0.499265
0.836972
0.822076
0.725552
0.417691
0.691188
0
0.76167
0
1.72089
1.27052
1.24631
0
2.73766
0.776278
0.382677
0
0.821249
0.775328
1.33908
0.606972
0.553247
0.967574
0
0.369959
0
0.554575
0.078269
0.775095
0.745232
0
0.642303
0.66578
0.460191
0
0.407815
0