<?xml version="1.0"?>
<VTKFile type="RectilinearGrid">
<RectilinearGrid WholeExtent="0 32 0 32 0 32" Origin="0 0 0" Spacing="1 1 1">
<Piece Extent="0 32 0 32 0 32">
<PointData>
</PointData>
<Coordinates>
<DataArray type="Float32" format="ascii">
0 0.524874 1.04975 1.57462 2.0995 2.62437 3.14924 3.67412 4.19899 4.72386 5.24874 5.77361 6.29849 6.82336 7.34823 7.87311 8.39798 8.92285 9.44773 9.9726 10.4975 11.0224 11.5472 12.0721 12.597 13.1218 13.6467 14.1716 14.6965 15.2213 15.7462 16.2711 16.796 
</DataArray>
<DataArray type="Float32" format="ascii">
-5.03879 -3.62163 -2.20447 -0.787311 0.629849 2.04701 3.46417 4.88133 6.29849 7.71565 9.1328 10.55 11.9671 13.3843 14.8014 16.2186 17.6358 19.0529 20.4701 21.8872 23.3044 24.7216 26.1387 27.5559 28.973 30.3902 31.8074 33.2245 34.6417 36.0588 37.476 38.8931 40.3103 
</DataArray>
<DataArray type="Float32" format="ascii">
0 0.524874 1.04975 1.57462 2.0995 2.62437 3.14924 3.67412 4.19899 4.72386 5.24874 5.77361 6.29849 6.82336 7.34823 7.87311 8.39798 8.92285 9.44773 9.9726 10.4975 11.0224 11.5472 12.0721 12.597 13.1218 13.6467 14.1716 14.6965 15.2213 15.7462 16.2711 16.796 
</DataArray>
</Coordinates>
<CellData>
<DataArray type="Float32" Name="Scalar" format="ascii">
0
0
0
0
0
0
0
0
0
0
0
0
0
0
0
0
0
0
0
0
0
0
0
0
0
0
0
0
0
0
0
0
0
0
0
0
0
0
0
0
0
0
0
0
0
0
0
0
0
0
0
0
0
0
0
0
0
0
0
0
0
0
0
0
0.232058
0.361249
1.23501
0.413274
0.0899449
0
0.227409
2.23862
0.385754
0.407047
0.715833
0.267014
0.342201
0
0.35768
0.635495
0.188864
0.374835
0
0.276623
0.371972
0
0.373421
0.652642
0.14438
0.447012
0
0.367918
0.37635
0
0.400017
0.947464
0.139194
0
0
0.3094
0.975459
0
0.219872
0.754444
1.33377
0.0809166
0
1.09768
0.137265
0
1.17819
0.889842
0.104728
0.429949
2.47683
0.511506
0.640767
1.45691
0.0814858
0.0695565
0.570758
0.274013
0.669982
1.66547
0.294235
0
1.82241
0.591427
1.02553
0.608556
0
0.710217
0.807124
0.616466
0.997573
0
0.538961
0.835619
0.412662
0.572206
1.89304
0.401549
0.563653
1.18048
0
1.29432
0.369399
0.654576
1.36778
2.23289
0.95948
0
0.160918
0
0.49535
0
0.583265
0
1.51084
2.23194
0.495886
0
0.76669
0
0
1.19291
1.27411
0.755536
0
1.51681
0.506286
1.25168
0
0.437294
0
0.983222
0.646433
1.38216
0
0
1.4553
0.657781
0.527117
0.877287
0.750389
0.641721
0.676889
0.136226
1.13329
0.91242
1.65693
0.695041
0.583542
0
1.20997
0.706747
2.00766
0
0.4251
0.664496
0.544593
0.903475
0
0
0.697744
0.976316
0.481446
1.10526
0.778981
0.994651
0.523955
0.448301
0.318685
0.892719
0.743374
0.77833
0
0
0.316866
0.692451
0.296811
0
0.674432
0.234843
0.296135
0.61061
0.642275
0
0.95553
0.586287
0
0.919309
0.973356
1.01675
1.13448
0.622327
0.227921
0
0.786771
1.46537
1.39717
0.798316
0
0.427534
0
0.527359
0.596458
0.625812
0.806618
0.440234
1.31252
0.630111
0.537062
0.335151
0.446177
0
0.615132
1.42386
0.885523
0
0.551617
0
0
0.610449
0.802033
0.952457
0.745967
0.933912
0.805791
0.918652
0.699176
0
0.291829
1.06031
0.264588
0.661636
0
0.936145
0.378068
0.331515
0.258022
0.35832
0.993412
0
0.513596
0
0.714392
0.803131
0
0.454292
0
0.952283
0.676517
0.671483
1.17751
0
0
0.519005
0.931801
0.71573
0
0.478183
1.28758
1.41895
1.16
0.678002
0
0
0
0
0
0.602011
0.860243
0
0.368999
0.442698
0.876386
0.452615
0.664857
0.522606
0.285085
0.612521
0.824825
0.571807
0
0
0.472429
0.486587
0.122607
0.504381
0.924263
0.770349
1.73561
0.8961
1.07882
0.540283
0
0.675274
0
0.469394
0.654838
1.51062
0.385025
0.332903
0.406166
0.582937
0.720921
0.696756
0
1.0951
0.919037
0.564902
2.10191
0.579254
1.07149
0.945242
2.79001
0.632165
0.337025
0.4956
0
0.701253
1.31068
0.722212
0
0
0.507217
0.347191
0.327617
0.337351
0.501183
0
0.790721
1.39543
0.565715
1.22197
0.9802
0
0
0
0.479032
0.361217
0.707721
0.284237
0
0.799333
0
0.654181
0
0.619809
0
0.703725
0.120507
0
0.633953
0
0
0.50188
0.648379
0.724053
0
0.938352
0.671553
0
0.720515
0.265851
0.970991
1.59136
0
1.67275
0.967964
0
0
0.545833
0
0.800256
1.57924
2.02163
0.89101
0
1.20346
0.7805
0.992477
0.802604
0.900137
0.313018
0
0.808545
0.456299
0.407683
0.979808
0.582944
0.452206
1.18716
0.303765
0
0.691285
0
0.600037
0
0.497972
0.914069
0
0
0.627489
0.629743
1.07704
1.39996
0.440559
0.389305
0.803366
0
0.229598
0.196544
0
1.12942
0
0.391234
0.331816
0.239151
0
0
0.552958
0.819122
0.341155
0.755258
1.43275
0
0.546588
0
0.18549
0.357724
0.535954
0
0.155258
0.633058
0.68545
0.859424
0.379438
0.772176
0.888227
0.754227
0.614419
0.608714
0
0.426034
0.544634
0.285088
0.564169
0.900333
0.637517
1.17262
0.585963
0.643475
0.65647
0.347667
0.412886
1.2049
1.07379
0.30339
0
0.45762
0
0.443577
0
0.461593
0.206968
0.833734
0.560012
0
0.796858
0
0.270735
0
0.705585
0.783768
0.378223
0
0.280201
0.228712
0.913096
0
0.577826
0
0.713819
0.537234
0.298011
0
0.437676
1.36938
0.349028
0.197069
0.384618
0
0.643761
0.740796
1.39393
1.23693
0
0.365863
0
0.226245
0.815258
0
1.67706
0.999682
0
0.54498
0
0
0.671809
0.517328
0.637727
0
0.489252
0
0
0
0.364353
0
0.523129
0.440802
0.315572
0.83344
0.749448
0
1.11465
0
0.545456
0.758608
0.554926
0.798733
0.847622
0.465932
0
0
0.970258
0.298634
0.623194
0
0
0.502036
0
0.516583
1.31593
1.03878
0.985385
0.981
1.23102
0.60882
0.891955
0.321033
0.444397
0
0.610269
0.687311
0.97054
1.92172
0.908055
1.01814
0.556933
0.928534
0.35792
0.77355
0.669255
0.470336
0.461898
0.519883
0.732895
0.875494
0.612752
0
0.226049
0.369659
0.93539
1.23956
1.73292
0
0.80237
0
0.833198
0
0.324556
0.670353
0.142241
0.458554
0.388278
0.934073
0.918011
0
0.590069
0.754277
0.675153
0
0.543938
0
0.421701
0.246436
0.355899
0.748818
0.554967
0.255683
0.388464
0.369859
0.805275
0
0.801813
0.97342
1.15273
0
1.74595
0.739871
0.454262
0
0
0.541489
0.240168
0.522959
0.604184
0.389315
0.208826
0.465284
0
0.51941
0
1.17008
0.835007
1.22377
0.569973
0
0
0.797295
0.275223
0.892017
0.325082
1.24401
0.363285
0.935877
0
0.564263
0
1.14436
0
1.10043
0.48746
0.351667
0.122264
0.228747
0
0
0
1.24299
0
1.07795
0.444806
0.492772
0.283784
0
0.443378
0.445315
0.523367
0.698164
0.181452
0.466492
0.801698
0.799782
0.880421
0.760808
0.326821
0.239202
0
1.01044
0
0
0
0.483554
0.518807
0
0
0.160956
0
0.326012
0
0.683012
1.06693
0
0.383709
0
0.777252
0
0.795798
0
0
0.785503
0.80798
0.74006
0.426039
0.352581
1.31634
0.948768
0.366121
1.1965
0
0
0
0
0.394881
0.231338
0
0.642406
0.213023
0.478196
0
1.19878
0.939827
0.706439
0
0.614564
0.914275
0.541632
0.67256
0.906421
0.203878
0.580931
0.237134
0.581014
0.617261
0.779548
0.80182
0.762946
1.77257
0.925213
0.937613
0.666135
0
0.485697
0.358239
0.684345
0
0
0.269069
0.183067
0.103483
0
0.51785
0
0.260448
0.0185725
2.01281
1.22657
1.95591
0
0.455218
0.809097
0
0.54035
0.66498
0.623935
1.83576
0.993655
0.708764
1.69776
0.650697
0.432752
0.3396
0.13324
0.633644
0.881118
0.495528
0.736406
0.527771
0.886101
0.422342
0
0
0.489974
0.379007
0.796613
0
0.575111
0.459836
0.841125
0.450504
0
0.421791
0.75846
0.841119
0
0.542939
0.510072
0.783948
0
0.349225
1.05212
0.467681
1.10168
0.350549
0.867452
0
0.581594
0.556838
0.62397
0.699106
0
0.700466
1.64908
0.995638
0
0
0.366163
0
0
0
2.84007
0.408864
0
0.659173
0.650779
0.33107
0.448424
0.360651
0
0.434733
0.582192
0.199114
0.319339
0.418102
0
0
0.859355
1.71396
0
0.269654
0.323431
0.157627
0.785118
0.28325
0.504426
0
0.764886
1.89287
0.42267
0.276973
0.492976
0.392679
0.679774
0
0.380676
0
0.488284
0
0.311147
0
0.358635
0.717987
1.0254
0
0.826263
0.497855
0
0.619571
0.364549
0.460103
0.918512
0.380951
0.656668
0.631151
0.399863
0.25215
0.670951
0
0
0.455482
0
0.366223
0.543499
0.761419
0.702244
0
0.242608
0.520104
0
1.11604
0.499693
0
0.677377
0
1.01704
1.27718
0.600506
0.433141
0.442784
0.118264
0.448331
0
0.238246
0.0288914
0.619674
0.925268
1.1126
0.301125
0.695885
1.05188
0
0.839968
1.6391
0
0.393641
0.968125
0.819789
0.614818
0.737678
0.74288
0.467162
0.56524
0
0.511905
0.855218
0.549007
0.0691577
0.686325
1.63102
1.03559
0.710776
0.668788
0.389223
0.177224
0.502144
0.211153
0.40961
0
0.573113
0.764964
0.271721
0.576683
0.0796927
0.638194
0.647293
1.03586
1.17517
0.947674
0.816688
1.5552
0.729167
1.17888
0.383688
0.177716
0.274058
0.670105
0
0.294557
0
0.590194
0.576245
0.984058
0.794191
0.83932
0.757948
0.431022
0.633782
1.40904
0.491522
0
0.483306
0.846757
0.822009
0.891338
0.431288
0.529008
0.667483
0.359444
0.665092
0.477153
0.746489
0.585
1.07081
0.518093
0.616367
0.204877
0.445278
0.165198
0.252479
0
0
0
0
0
0
0
0
0
0
0
0
0
0
0
0
0
0
0
0
0
0
0
0
0
0
0
0
0
0
0
0
0
0
0
0
0
0
0
0
0
0
0
0
0
0
0
0
0
0
0
0
0
0
0
0
0
0
0
0
0
0
0
0
0
0
0.145586
0.726675
0
0.545095
0.682324
0
0.538481
0.64126
0.270956
0.753268
0
0.456888
0.304499
0
0.735561
1.2897
0.347579
0.548343
2.04315
0.652952
0.497294
0
0.568391
0.929448
0.340411
0.530315
1.18358
0.83546
0.286279
0
0.427658
0.843338
1.20402
0.614492
0
1.43444
0.222376
0
0.862919
0.281504
0.0714788
0.942684
0
0.26248
0.826168
0.997922
0.295938
0.609464
0
0.415823
0.552886
1.44407
0.372067
0.667302
0.536372
0.634211
0.250384
1.14126
0
0.943791
1.08684
0
0.359615
0.690663
0.918458
0.453532
0.942747
0.776457
0.652454
0
0.590722
0.365996
0.339463
0.599212
0.861934
0
0.544447
1.08797
0.387514
0.567022
0.522822
0.767867
1.25622
0.608133
0.79044
0
0.65079
0.263972
0.403839
0.913105
1.18334
0
0.534887
0
2.38446
1.03019
0.219914
0.277345
0.646265
0
0.672669
0.451023
0.740107
1.1732
0.359026
0.278626
0
0.756365
1.07607
0
0
1.04041
0
0
0.491769
0.392453
0.56289
0.461297
0.608336
1.68902
0.857618
0.424786
0.208112
0.601469
0
0.792152
0.441107
0.565079
0.511481
0.301219
1.61622
2.13596
0.836887
0.821524
1.27393
0.607744
0.75502
0.617952
1.36621
0.511585
0.465168
0.602726
0
0.766043
0
0
0
0
0.635105
0.44172
0.161364
0.802395
1.08529
0.841579
0.375526
0.279457
0.535778
0.911524
0.678446
0
1.00892
0
0.783099
1.07931
1.23923
0.690932
0.968095
0
1.08353
1.65655
0.520312
0
0.6051
0.471329
0
0
0
0
0
0.765696
0.313615
0
0.353027
0
0.108444
0.224826
0.832007
0
0
0.614885
0.395535
0.665457
0.901821
0
0.373131
0.298372
0.654231
0.633468
0.782799
0
0
0.598174
0.639561
1.33793
0.531611
1.64941
0.648804
0.290014
0.752407
0.866967
0.713755
0.788046
1.00776
0.689144
0.339653
0.801438
0
0.749966
0.692436
0.637451
0.509789
0.250925
0.747715
0.658519
0
0.724117
0
0.810264
2.00035
0.595186
0
0.568454
0
0.405592
0.502911
0.407286
1.34383
1.3744
0
0.794404
1.01044
0
0.968106
0.987287
1.06198
0.429931
1.57939
0.826975
0
0
0
0
0
0.883138
0
0.885112
0.280125
0.592553
1.06801
0.615491
0
0.271163
0
0.970856
1.01111
0.611653
1.64493
0
0
0.621072
0.67122
2.03066
0.292177
0.247715
0.458171
0.848598
0
0
0.422887
0
0.676288
0.358565
0
0.4589
0
0.489884
0
0.472743
1.21323
0.566685
1.07582
1.19036
0.116316
0.0574538
0
0.353267
0.728861
0.416956
0
0.432013
0.784334
0.650196
0
0
0.120093
0.697684
0.846918
0.42064
0
1.15718
0.620641
0.320169
0.305712
1.36523
0.509374
0.289695
0.650003
0.831246
0.878223
0.750018
1.36962
1.02537
1.09289
0.345362
0.184256
0.607429
0.700764
0.445886
1.41055
0.277605
0.548044
0.302851
0.753657
0
0
0
0.535937
0.560183
0.442763
0.648503
0.647695
0
0
0.671709
1.55169
0.853735
0
0.941221
0.576732
0.582372
0.993946
0.617372
0.957183
1.79632
1.76571
0.84389
0.403977
0
0
0.78026
1.94638
0.387136
1.05862
1.18269
1.58546
0.82859
0.518886
0.697799
0.927061
0
0.686976
0.419408
1.0738
0.482606
0.581933
0.409779
0
0.669644
0.544039
1.07417
0
0
0.626895
0
0.0453195
0.460852
0
0.295628
0.346069
0.564792
0.354781
0
0.324113
0
1.12538
0.515223
0.469107
0.950657
1.06922
0.876114
0
1.06148
0
0.711065
0.961645
0.464447
0.749061
0.680513
0.373907
0.288213
0
0.304201
0.331061
0.659162
0.955398
0.694419
0
0.992798
0
1.10781
0.151948
0.876061
0.316885
0
0.38852
0.305938
0.69176
0
0.545457
0.934202
0.985148
0.871097
0
1.47101
0
0.519493
0.507135
0.740785
0
0.682862
0.831869
0.604645
0
0.334674
0.904129
0.57618
0.23381
0.61429
0
0.30911
0.493043
0
0.744086
0.722521
0.431683
0
0.424195
0
0
0.797822
0.863818
1.63536
0.770332
0.912126
0
1.42468
0.716225
0.160989
0.375983
0.665771
0.311446
0
1.45796
0.957915
0.255893
0.357752
0.387193
0
0
0.307818
0.879101
0
0.640841
0.678955
0.24054
0.379939
0
1.05357
0.481433
0
0.76755
0.649967
0.306769
0.517113
0.462959
0.448651
1.3527
0.653492
0.337967
0.618531
0
0
0.504092
1.56426
0.737039
0.94024
0.759215
0
0
0.414524
0.495641
0.487722
0.17497
0.485081
0
0.470618
0.466944
0.587291
0.495048
0.588993
1.34202
0.262886
0.977715
0.873951
0.307954
0
1.8092
0.327214
0.306726
0.514596
0.651343
0
0.597318
0
0.994393
0.486249
0.763704
0.807617
0
1.00822
0
0
0.637299
0.645531
0.43078
0.384456
0.640594
1.20971
1.00592
0.433703
1.06091
0.505554
0.682509
0.550788
0.989407
0
0.620143
0.524964
0
0.876856
0.794143
0
0.452549
0
0.675049
0
0.334786
0
0.674857
0
0.89538
0.398038
0.697192
0.514025
0.438287
1.16359
0
0.674173
0.484942
0.560367
0.990413
0.561241
0.580507
0
1.26948
0.465805
0.543023
0.887969
0.405746
0.338537
0.572192
0.671453
0.395019
1.71904
0.19156
0
0.703229
0.541745
0
0.314236
1.28819
0.726723
0.50769
0.828785
0.725595
0.391464
0.398686
0.479104
0
0.607874
0
0.714712
0.19627
0.584463
0
0.859544
0
0.808716
1.87903
0.988661
0.763097
0.973057
0
0.732649
0.19262
0.149131
0.85542
0.690392
0.934956
0.687212
1.02031
0.818687
0
0.589905
0
1.84316
0.896305
0.424156
1.20937
0.474155
0
0.388984
1.032
0.743381
0.421793
0.696543
0.592759
0.980438
0.860164
0.777731
0.476301
0.256348
0
0.498059
0.25767
0.58057
0
1.15537
0.528239
0.543474
0.39408
0
0.146406
0
0.896676
0
0.552468
0.541124
0.678899
0.757522
0
0.604529
0
0.848457
0.920298
0.583523
0.639134
1.19195
0.977375
0.785991
0.531675
0.998973
0.799878
0
0.595075
0
0
0
0.546149
0.497477
0
0
0.931413
0
0.932224
0
0
1.3375
0.82441
0.501616
0
0.485279
0
0
0
0
0.698825
0.508397
0.44531
1.29103
1.47057
0.927499
0.703253
0
0.520829
0
0.288818
0.153683
0.38414
0
0.820421
2.30992
1.47224
0.591468
0.978568
0.257643
1.56672
1.02466
0.755762
1.02818
0.788641
1.35403
0.453515
0.689426
1.31937
0
0
0
0.162527
0.53129
0.604597
0.860922
0.556123
0.817935
1.1238
0.424453
0.373145
0.93296
0.795054
0.612679
0.317425
0.272329
0
0.889441
0.816679
1.47152
0.384343
0.58708
0.384747
0
0
0.474917
0.623427
0.454779
0
0
1.06733
1.5223
0.645125
0
0.651982
0.830227
0.343274
0
0.68493
0
0.810902
0
0.492813
0
0.952077
0
0.722185
0.909915
0.759915
0.615378
0
0.430434
0
0.549029
2.06894
0.507904
0
0.458772
0
1.97093
0.557477
0.619778
0.489754
0.575534
0.935508
0
0.333681
0
0.467001
1.16084
1.57586
1.03888
0.825799
0
0
0
0
0.526513
0
1.32602
2.03376
0.55926
0
0
0.399754
0
1.86127
0
0.747287
1.27046
0.383863
0.154905
0.321014
0.453679
0.346711
1.09055
0.568774
0
0.671007
0
0.317743
0
0.57462
0.675031
0.136696
1.36589
1.2468
0.121359
1.0577
0
0.792753
0.459675
0.46887
1.04889
0.87843
0
0.637975
0.630943
0.760975
0.395457
0.981449
0.727944
0.596738
0.592931
0
1.01195
0
0.610208
0.875155
0
0
0.646178
0.429909
0.725206
0.206505
0.817407
0
0.205594
0
0.986014
0.354827
0
0.133858
0.339666
0.299522
0.838541
0.888182
0.633252
0.813479
0.120014
1.52738
0.510751
0
0.605191
0.773009
0
0.783
0.581378
0
0.516244
0
1.23146
0
0.683236
0.730526
1.21168
0
0.716681
0.66779
0.1874
0.613775
0.839713
3.02415
2.69788
0
0
1.17762
0
0.930278
1.39607
1.12039
0.730501
1.138
0.787009
0.764139
0.317635
1.74574
0.837033
0.629598
0.485042
0.381183
0.513676
0
0.412183
0.618744
0.621726
0.2656
0.783464
0.516479
0.10033
0.826404
0.584881
0.767238
0
1.08957
0
0.901202
0.754285
1.34184
0.628905
0.481936
0
0.61675
1.08256
1.35372
0.623365
0
0.0681508
0.804168
0.663073
0
0
0.432859
0.259009
0
0
0
0
0
0
0
0
0
0
0
0
0
0
0
0
0
0
0
0
0
0
0
0
0
0
0
0
0
0
0
0
0
0
0
0
0
0
0
0
0
0
0
0
0
0
0
0
0
0
0
0
0
0
0
0
0
0
0
0
0
0
0
0
0
0
0
0
1.37199
0
0.567296
1.05479
0.730116
0
0.162981
0
0
0
0
0
0
0
0
0
0
0
0
0
0
0.910714
0
0
1.6995
0
1.19607
0
0
0
0
0
0.929208
0
0
1.3449
1.11835
0.935656
0
0
0
0
0
0
0
0
0
0
0
0
0
0.374411
0
0
0
0
0
0
0
0
0.418574
0.85023
0
0.675979
1.1908
0.366
0.602606
0.401385
0
1.14627
0.692399
0.360029
0.985644
1.07924
0.302762
0
0.446349
0.824614
1.41317
1.33444
1.76477
0
0.420179
0.920668
0.695225
0.545273
0
0.911106
0.810146
1.01125
1.28907
0
1.26314
0.820933
1.63475
0.782569
0
0.490878
0.472319
0
0
0.983862
0.991657
0
0.630464
1.09581
0
0.349919
1.95376
0.754534
0.537231
0.410978
0.19
0
1.21523
0.389519
0
0.494312
0.996741
0
0.696353
0
1.34063
0.562937
1.1091
0
1.3389
0.816346
0
1.14587
0.634285
0.65473
1.3934
1.05792
0.979318
0
0.271372
0.185809
1.79113
0.478279
0.835739
0.511184
0.507093
0.776189
0.757265
0.707166
1.18238
0
0.675043
0.592046
0.325793
0
0.644757
0.683299
0.801719
1.05914
0.256685
0.827483
0
1.39009
1.17663
0
0
0.607089
1.35513
0.589165
0.856286
0.388302
0
0
0.621177
0.359617
0.971935
0.324996
0.496017
0.870032
0.547691
1.91311
0.619663
0
0.67144
0
0.615842
0
0.791398
0.483636
1.58511
0
0.707396
0.945135
0.540507
0
0.443221
0.722482
0.350171
0.520042
0.0809538
1.00355
0
0.893198
0.744608
0
1.10864
0.66594
0.632455
0.402777
0.161958
1.01962
0.460363
0.345476
0.523148
0.93452
0.452401
0.435408
0.53485
0.398567
0
1.00887
0.982337
0.588143
0.671558
1.13184
0
0.832651
0
0.906164
1.28656
0.613875
0.806656
1.33064
0.49076
0.41344
0.223273
0
0
0.7855
0
0.89519
1.22834
1.04893
0.369389
0.336064
0
0.749275
0.83737
0
0.585164
0.793151
0.872579
0.366736
0.254378
0.37247
0
0.388249
1.43811
1.72675
0
0
0.454146
0.745711
1.07361
0.582286
0.425355
0.349321
0.565544
0.547421
0.307617
0.691079
0.720261
0.326259
0
0.497477
0.416077
0.354047
0.980887
0.618614
0.445769
0
0.430326
0.501477
0.653657
0
0
0.371594
0.834657
0.784056
1.37801
0
0.372836
0
0.554375
0
0
0.760599
0.527643
0
0
0
0.501152
0.563158
0
0.574698
0
0
0.510722
0.610139
0.539524
0.603043
0
1.63958
0
0.0882821
0.652353
0.478598
0.478835
0
0
0.334026
0.710258
0.900628
0.808834
0.933001
0.611472
1.21886
1.02157
0.765503
0.830502
0
0
0.150054
0.772024
0.217891
0.592498
0
0.675644
0
0.233786
0.357492
0.704299
0
0
0.741414
0
0.887107
0
1.29847
0
0.83458
0
1.04681
0.60491
0.429165
0
0.41951
0.438053
0.241841
0.242148
0.296234
0
0
0.522583
1.01481
1.06491
0.420541
0.949353
0.459806
0
0.629557
0.786131
0.757007
0
0.576738
1.03067
0.530478
0.379512
0.530493
0.464062
0.579252
0.530256
0.75848
0.840964
1.1779
1.72459
0
0.390868
0.737592
0
0
0.49617
0
0.565006
0.145847
0
0.993964
0.62691
0.695355
0.484929
1.6424
0.76369
0
0.50723
0
0.340594
0
0.959502
0
0
0.212556
0.23124
0.551509
0.137173
0.706561
1.17052
0.51129
0
0.701713
1.63261
0.711812
0.582048
0
0.715489
0.63055
0.540527
0.806091
0.105564
0.789778
0.417051
0.474725
0.148323
0.588523
1.29161
0.407972
0
0.598263
0
1.06998
0
0.502173
0
0.750659
0
0.457593
0
0
0.638123
0.738592
0.373917
0.413992
0.852406
0.684203
0
0.676366
0
0.531118
0
1.39199
2.22387
0.601971
0
0.515351
0.728188
0.634841
0
0.564809
0.40635
0.615454
1.13015
0.727339
0.0897215
0.757271
0.507834
0.514766
0
0.615362
0.560725
0.447278
0.558407
0.942398
0
0.584507
0.38889
0
0.821002
0.590479
0.392779
0.571032
0.810892
0.808685
0
0
0.854739
0.341099
0.495336
0.38618
0
0.509902
0.870291
0.515444
0.812037
0.368741
0
1.2694
0
0.400514
0.417438
1.05123
0.555336
0
0.463161
0.39844
0.645586
0.516453
0
0.928077
0
0.578118
0
0
3.32489
1.57129
0
0.782773
0.568055
0.955877
0
1.10232
0
0.530762
0.895294
0.493203
0
0.688937
0.460783
0.818084
0.919744
0
0.505225
0
0.657915
0.653306
0.645696
0.671314
0
0.197615
1.2455
0.563191
0.315195
0.351043
0
0
0.386567
0.693834
0.421931
0.545722
0.654187
0.756119
0.445407
0
0.79946
0
1.54376
0.378643
0.608912
0.484899
0
0.677694
0.956277
0.533508
0.515781
0
0.67061
0.637749
0.480872
0.525969
1.57843
1.25104
0.406842
0.288116
0.33659
1.1222
0
0
0.65025
0
0.37537
0.846576
0
0.763037
1.19312
0.8292
0
0.477935
0
1.0298
0.440934
0.411593
0.670153
0
0.499296
0.530929
0.322671
0.669258
0
0.614986
0.32663
0.335076
0.420903
0.372759
0.100326
0
0
0.626561
0
0.787923
0
0.299743
0
0.702926
0.517646
0
0
0
0.945115
2.24325
0.270429
0.727422
0.605077
0.685991
1.09428
0.667046
1.05101
0
0
0.3524
1.08575
0.517196
0.663508
0
0.509198
0
0
0.42428
0
0
0
0.938398
0
0.600026
0.932699
0.315057
0
0.495261
0
1.18957
0.446084
0.927504
0.909856
0.541233
0.494198
0
0.638453
0
0.58884
0.506261
0.418785
0.571164
0.76337
0.472719
0.943213
0.583733
0.932489
0
0.53277
0
0
0
0.754501
0.554628
1.26009
0.845013
0.568608
0
0.415988
0
0.7844
0
0.709361
0
0.798751
0.493076
0.481863
0.466383
0.410104
0.499681
1.33266
0.568941
0.748702
0.389288
0.293577
0.683013
0
0.388782
0
0.52244
1.32696
0
0
0
0
1.26338
0.613323
0.720532
0.706756
0
1.61024
0.441465
1.48007
0
0.830798
0
1.10099
0.619798
0.271081
0.219065
0.279626
0
0
0.528602
0.783518
0.973239
1.6398
0.474476
0
0.869215
0
0.636179
0.45625
0.685595
0.834112
1.21291
0.564979
0
0.771565
0.650308
0.855472
0
1.06308
0
0.714302
0.841929
1.53306
0.780322
0.418192
0.446566
0
0.602854
0
1.86218
0
0.958371
0.372413
0.224871
0.264109
0.641634
1.17557
0
0.638959
0
0.774294
0.303127
0.640424
1.1575
0.661871
0
0.827225
0.361218
0.502414
0
0.546613
0.56831
0
0.365171
0
0
0
0
0.613417
1.28799
0
0.431516
0
0.292442
0.455998
0.864392
0.485573
0
0
0.733993
0.226541
0.831956
1.93411
0.723884
1.09761
0.542208
0.0846063
0.641671
0.627036
0.487815
0.222728
0.230155
0.762895
0.878284
0.4822
1.95574
0
0.291025
0.385561
1.04686
0.810006
0
0
1.04382
0.47178
0
0.379401
0.28284
0
1.9227
0
0.607336
0
1.21354
0
0.697087
0.72785
0.398252
0.589282
1.06432
0.748702
0
0.652949
0.920486
1.16482
0
0.584291
0
1.05455
0.705014
0.672442
0
0.474585
0.462741
0
0
0
0.211877
0.373663
0.884191
0.265908
0.511348
1.05555
0.733059
0
0.506328
0
2.8601
0.513558
0.79518
0.535076
0.152792
0.218395
0.633845
1.22595
0.638207
0.357184
0
0.721098
0
0.375811
0.343814
0.807899
0
0.750762
1.80859
0.854573
0.831391
0.972733
0
0.496776
0.752416
0.572833
1.41756
1.35563
0.413773
0.437916
1.30139
0.782744
0
0.663421
0
0.652255
0.293587
0
0
0.703365
0.59757
0.482396
0.0884665
0.479971
0
0.336117
0.344326
0
0.73165
1.52583
0.745132
0.882669
0.459222
0.60741
0
0.727739
0
0.613233
1.05414
0.846057
0.257513
0.907466
0.934994
0
0.785684
1.14107
0
0.838066
0
1.03835
1.60643
0.606522
0.653298
1.22836
0.518107
1.36024
0.536678
0.72207
0.601296
0
0.978542
0.842462
1.0143
0.56794
0.459908
0.288069
0
0.868212
0.665391
0.162393
1.07979
0
0
0
0
0
0
0
0
0
0
0
0
0
0
0
0
0
0
0
0
0
0
0
0
0
0
0
0
0
0
0
0
0
0
0
0
0
0
0
0
0
0
0
0
0
0
0
0
0
0
0
0
0
0
0
0
0
0
0
0
0
0
0
0
0.336877
0.548061
1.13814
0.487735
0.603032
1.62855
0.778917
0.718495
0.396796
0.388106
0.701001
0.41671
0.57873
0.358333
0.398396
0.735869
0.303179
0.395741
0
0.547442
0.410326
0
0.393821
1.10115
0.246308
0.719708
0
0.411496
0.714922
0
0.638769
1.25943
0.166401
0.948547
0
0.32425
1.36888
1.76441
0.394803
0
1.49497
0.568743
0
0
0.175854
0
0.962684
0.930179
0.278518
0.743786
0
0.272198
0.637943
0
0.403701
1.8428
0
0.592877
0
0.978619
0.575977
0
0.635576
0.590798
0.838603
0.763504
0
0.969463
0.966943
0.605868
0
0.634615
1.717
1.43654
0
0.386122
0
1.16877
0.90231
0.616153
0
0.933741
0.495407
1.65788
0.583534
0.587936
0.479762
0.868076
0.668861
1.14424
1.3398
1.3111
0
0.200766
0.251764
0.57875
0
0.783518
1.10773
1.18111
0.668482
0.77042
0.57553
0.448389
0.991262
0.76058
0
0.367628
0
0.895229
0.399777
1.18406
1.11225
0
0.71826
0
1.04834
0.475914
0.821717
0.622789
0.414915
0.411494
0.35074
0
0.83557
0.486512
0
0.718111
0.354186
2.10051
0
0
0.722565
0.829378
0
0
0.600412
0
0.717656
0.545661
0.651803
0.300617
0.524914
0.175482
0
1.18417
1.05316
1.59567
0.10198
1.1651
0.812925
1.23271
0.683619
0.637499
0.32536
0.747062
0.92748
0.528353
0.95227
0.791927
0.841302
0.883223
0
0.762624
1.18601
0.70055
0.409951
1.1626
0
0
0
0
0.441776
0.862069
0.166706
1.06989
1.74702
1.90373
0
3.00911
1.07036
1.61211
0
0
1.11158
0
0
0.490292
0.745756
0
0.48284
1.67591
0.835537
0
0.606105
0.726508
1.02057
0.691055
0
0.243116
0
1.22224
0.620862
0
0.534842
0.616053
1.06179
0.212984
1.22478
1.80977
0.592203
0.437578
0.734185
1.47301
0
0
0.770478
0.878896
0.794446
0.6872
0.669224
0.454853
0
0.934735
0.451366
1.06735
0.685657
0.652629
0.520327
0
1.14596
0.825356
1.23587
1.34096
0
0
0.468587
1.09126
0.992267
0.949408
0.614146
0.487662
0
0.31374
0
0.977818
0.678374
0.726703
0.525353
0.359108
0.527477
0
0
1.14608
0.660969
0
0.521636
0.859737
0.849939
0.866326
0.169368
0.699197
0.688073
0.549886
1.57661
0.128689
0
0
0.568608
0.670106
0
0.507583
0
0.787603
0.598551
1.86069
0
0.42262
1.53573
0.437915
0.858595
0.510367
0.754843
0
0.697898
0.301131
0.541776
0.61286
0.432943
0.364423
0.684366
0.519796
0.291961
0
0
0
1.17473
0.805535
0.6793
0.0735967
0.289942
0.449366
0.250573
0
0.852998
0
0.550116
0.388518
0.224501
0
0.344841
0.568141
0
1.44862
0.492641
0.343492
0.545474
1.45559
0.626313
0.362681
0
0
0.440163
0.544358
0.382452
0
0.90867
1.64
0
0
0.267318
0.391865
0.449618
0.387645
0
0.646708
0.859118
0
0.770924
0
0.473337
0
0
0.238005
0.489607
0
0.865956
0.344579
0
0.586235
0.27142
0.753865
0.212598
0.720061
0.815621
1.09605
0
0
0.352928
0.400645
0
0
0.917084
0.758216
0.157852
0
2.025
0.565521
1.59825
0
0.329983
1.05221
0.690042
0
0.44669
0
1.25876
1.29862
0.371883
0.455887
0
1.09735
0.592785
1.30241
0.194888
0.821978
1.35597
0.813694
0.612476
0
0.484637
0.401883
0.457488
0
0.553456
0.512452
1.52736
0.315705
0.486964
0.289645
1.22939
0.910017
0.706592
1.33995
0.670021
0
1.12446
0.812746
0.977784
0.361171
0.455072
0.322721
0.654684
0
0.814334
0.522706
0.185923
1.87395
0.559467
0.380518
0.751181
0.602629
0.629792
0
0.598992
0.256235
0.474421
0.475172
0.468096
0
0.946774
0.462994
0.192274
0.90762
0
0
0
0.216281
0.643902
0
0.617185
0
0.371274
0
0.525769
0
1.0445
0.500233
0
0.771574
0
0.359124
0.704858
0.704441
0.54757
0.765916
0.642585
0.144232
0.285293
0
0
1.01726
0.998554
0
0.334177
0.824896
0.554924
1.04581
0.461822
0.783417
0.744577
0
0
0.531477
0.510848
0.271262
0.99935
1.17662
0
0.245838
1.61773
0.388794
0.730938
0.0525298
0.802197
0.733432
0.861438
0.657971
0
0.228723
0.402172
0
0.410656
0.605753
0.408492
0.937573
0.939761
0.451508
0.856004
0.743747
0.687051
0
0.226517
0.567694
0
0.882569
0.399585
0.91998
0.255898
0.275763
0
0.872579
0.450667
0.216136
0.600137
0
0.3942
1.65501
0
0
0.618207
0.504379
0.503441
0.621058
1.64133
0.596754
0.647368
0.702503
0
0.326756
0
0.417985
0.851486
0.830791
0.295027
0
0.504713
0.509176
0.692118
0.456482
1.03409
0.45701
1.29178
0.891046
0.700653
0.817586
0.562417
0.352474
0.728602
0.84823
0.637109
0.295299
0.4884
0.836079
0
0.472035
0.684503
0.666708
0.786727
1.01708
0
1.19311
0.315568
0.84224
0.709243
0
0.799987
0.674932
0
0.748769
0.539622
0.44266
0.831735
0.810927
0.881155
1.87609
0
0.606813
0
0
0.823852
0.260424
0
0.393935
0.436029
0.17851
0.794295
0.945471
0.99638
0.499804
0.779566
0.765136
0.882508
0
0.635542
0
1.57838
1.00878
0.422325
0.79037
0.735077
0.598208
0.433958
0.49078
0.801761
0.199547
0.297494
0
1.17653
0.827394
0
0.842456
0.738466
0.202782
0
1.18002
0
0.932992
0
0.708251
0.368646
0
0.418742
0.66503
0.508221
0.504092
0
0.673223
0.9022
0
1.42607
1.27558
0
0
0.589788
0
0.380964
0.350746
0.699188
0.497583
0.851562
0.486046
0
0.72883
1.22731
0.899819
0
0.725211
0.873819
0.824001
0.554799
0
0.53178
0
0.543987
0.458328
0.7744
1.82451
1.16177
0
1.55061
0
0.421937
0
0
0.366136
0
0.574983
0
0.577321
0
1.5894
1.06986
0.457909
0.406095
0.336541
0.757592
0.743474
0.405668
0.561915
0.571229
0.852669
0.853612
0
0.465096
0.300918
0
0.133342
0.936373
0.1669
0.414184
0.353934
0
1.25064
0.316091
0
0.306171
0
0.692275
0.469954
0.498088
0
0
0
0.513156
0
0
0.321566
0.578152
0.838916
0.858777
0.799874
0
0.440294
0
0.61582
0
0.612578
0.262264
0.794064
0.505582
1.83034
1.43497
0.633836
0.605409
1.22861
0.399434
0.195107
0.741791
0
0.377866
0.635126
0
0
0.749154
0
0.837639
0.950656
1.41823
0.959535
0.201878
1.59878
1.59612
0.958807
1.12787
0.765079
0
0.805287
0.88116
0.801632
0.473794
1.10656
0
0
1.01632
0.434799
0
0.428393
0
0
0.293241
0.590497
0.103584
0.288236
0.377643
0
0.663181
1.51886
0.680424
0.491683
0.537614
0.560167
0.754047
1.69979
1.58033
0.457993
0.687542
2.36279
0.981374
1.27634
0.830468
0.733308
0.511019
0.731799
0.999205
1.01058
0
0.854042
0
0.702885
0.720776
1.51624
1.05322
0
0.711652
0.390264
0
0.505999
0.504748
1.55609
0
0
0.79937
0.752366
0.326083
0.944007
0.642268
0.714056
0.787272
0.478205
0
0.738518
0
0
1.04184
0.855063
0.641553
1.40676
0.574875
0
0.406729
0.59488
0
0.728217
0
0.398851
0
0.30939
0
0.619695
0
0.979574
0.882704
0
0.817384
0.612132
0
0.880922
0.499162
0
0.368734
0.608803
0.606465
0.553118
1.02287
0
0.511928
0.374504
1.30926
0
0.371002
0.887721
1.17187
0.337312
0.572464
0.606534
0.73982
0.360695
1.04095
0
1.39239
0.536099
0
0.518076
0.492088
0.160435
0
0.88619
1.38197
0.77895
0.362313
0
0.589152
0.459349
0.539473
0.302378
1.11613
0.209123
0.706744
0.132632
0.329681
0
0.884112
1.02152
0.58583
0.858415
0.421279
0
0.518486
2.2063
0
0.661567
0.813246
1.21834
0.781115
0
0.867121
0
0
0.713659
0.641301
0
0.512416
0
0
0.64748
0.434235
0.332785
0
0.62222
0
0
0.502149
0.696796
0
1.12778
1.55488
0.690956
0.397882
0.485504
0.964304
0
0.599459
0.235975
0.668016
0
0.849834
0.386828
0
0.476757
0
0.979985
0.301954
0.951546
1.23729
0.740582
0.313859
0.473183
0.360475
0.644155
0.201948
1.41399
0.748434
0.534295
0
0.344161
0
0.242883
1.06681
0.40477
0.884437
2.78606
1.22002
0.683934
0.367135
0
0.736341
0.499765
0.450796
1.11365
0
0
0
0
0
0
0
0
0
0
0
0
0
0
0
0
0
0
0
0
0
0
0
0
0
0
0
0
0
0
0
0
0
0
0
0
0
0
0
0
0
0
0
0
0
0
0
0
0
0
0
0
0
0
0
0
0
0
0
0
0
0
0
0
0.402135
0.375282
0
0.604975
0.481412
2.28543
0.477702
1.31316
0.406469
0.630215
0
0.506731
0.466902
0
0.601164
0.618799
0.309516
0.51413
0
0.38972
0.67575
0.815144
0.556178
0.562846
0.189806
0.360629
0.37227
0.514022
0.460949
1.4034
0.359649
1.14093
0
0.4195
0.657494
3.16108
0.39935
0
0.291554
0.782201
0.297641
0.631402
0
0.491401
0.886851
0
0.529431
0
0.907833
0.566672
2.47069
1.90112
0.774265
1.41159
0.544008
0.503946
0.245503
1.16457
0
0.401697
0.890156
0
0.41675
0
1.75147
0.70953
1.03708
0.939174
0.827102
0.223272
0.675489
1.47726
0.865582
0.566671
0.465652
0.845801
0.367025
0.56029
0
0.70996
0.669747
0.937494
1.50001
0.92384
0.168636
0
0.557036
0.636887
0.582828
0.997213
0.715155
0.838917
0.389258
0.31383
0
1.09032
0
1.21512
0
0.591884
0.905646
0.316242
0.505945
1.057
0
0.524929
0.546166
0.881712
0.839501
0
0.408969
1.06809
0.73999
0
0.583165
0
0.558559
0
0
1.13871
0
0.641225
0
0.423202
1.93674
1.03136
0.662374
0.863997
0.56188
1.15464
0.668471
0.410411
0
0.0524758
0.546698
0.753012