<?xml version="1.0"?>
<VTKFile type="RectilinearGrid">
<RectilinearGrid WholeExtent="0 32 0 32 0 32" Origin="0 0 0" Spacing="1 1 1">
<Piece Extent="0 32 0 32 0 32">
<PointData>
</PointData>
<Coordinates>
<DataArray type="Float32" format="ascii">
0 0.524874 1.04975 1.57462 2.0995 2.62437 3.14924 3.67412 4.19899 4.72386 5.24874 5.77361 6.29849 6.82336 7.34823 7.87311 8.39798 8.92285 9.44773 9.9726 10.4975 11.0224 11.5472 12.0721 12.597 13.1218 13.6467 14.1716 14.6965 15.2213 15.7462 16.2711 16.796 
</DataArray>
<DataArray type="Float32" format="ascii">
-5.03879 -3.62163 -2.20447 -0.787311 0.629849 2.04701 3.46417 4.88133 6.29849 7.71565 9.1328 10.55 11.9671 13.3843 14.8014 16.2186 17.6358 19.0529 20.4701 21.8872 23.3044 24.7216 26.1387 27.5559 28.973 30.3902 31.8074 33.2245 34.6417 36.0588 37.476 38.8931 40.3103 
</DataArray>
<DataArray type="Float32" format="ascii">
0 0.524874 1.04975 1.57462 2.0995 2.62437 3.14924 3.67412 4.19899 4.72386 5.24874 5.77361 6.29849 6.82336 7.34823 7.87311 8.39798 8.92285 9.44773 9.9726 10.4975 11.0224 11.5472 12.0721 12.597 13.1218 13.6467 14.1716 14.6965 15.2213 15.7462 16.2711 16.796 
</DataArray>
</Coordinates>
<CellData>
<DataArray type="Float32" Name="Scalar" format="ascii">
0
0
0
0
0
0
0
0
0
0
0
0
0
0
0
0
0
0
0
0
0
0
0
0
0
0
0
0
0
0
0
0
0
0
0
0
0
0
0
0
0
0
0
0
0
0
0
0
0
0
0
0
0
0
0
0
0
0
0
0
0
0
0
0
0.270706
0.251677
2.01893
0.393706
0.216871
3.32764
0.404701
1.20233
0.315576
0.418527
0
0.175863
0.224152
0
0.309026
1.02171
0.255261
0.307372
0
0.245061
0.239535
0
0.325169
1.03306
0.0759979
0.294742
0
0.385521
0.307068
1.02278
0.348859
1.49731
0.215415
1.11941
0
0.14217
2.14216
2.28779
0.350494
0.534709
0
0.292938
0
0.802163
0.19973
0
0.908747
0.223061
0.115113
0.468306
0
0.152479
1.00285
0
0.235117
1.58124
0.681011
0.366596
0
1.04065
0.354608
0
0
0.859205
0
0.460138
0
0.449583
0.618652
1.15181
0.634627
0
0
0.627984
1.14821
0
0.842969
0
0.281125
0.602394
0.700772
0.698003
0.547405
0.419297
0.323264
0.857242
0
0.721975
0.319314
0.532565
0.775015
0
0.537242
0
0.52889
0.237704
0.860628
1.20161
0.511642
0
0.684607
0
0.327661
0.23817
0.302649
0.720935
0
0.400784
0.743338
0
1.00821
0.862565
0
0.602158
1.55593
1.32879
0
1.81356
1.09293
0.17442
0.360848
0.455379
0.50278
0.630002
0.706737
0.400987
0.730409
0
0.951526
1.74774
0.605399
0
0.496887
0
0.593577
0.383915
0.396278
1.03692
1.05991
0
0
0.83568
0.761163
0.864348
0.885338
0.783241
0
0.681303
1.40681
2.14898
0.609098
0.34967
0
0
0.647084
1.00952
0.90626
0.426123
0.62169
0.343814
0.428891
0.518015
1.20762
0
0.359897
0
2.6074
0
0.818862
0.553566
1.55612
0.698434
1.29784
1.04236
0
0.454138
0
0
0
0
0.820352
0.442004
0.427509
0.791055
0.538105
1.05859
0.644431
0.484231
0.570696
0.733346
1.3901
0.724995
0.923943
0.817223
0.30083
0.857183
0.340806
0
0.407298
0.190082
0.672431
0
2.31525
0.469555
1.20359
0
0.418393
0.60217
0.333377
0.299192
0.51468
0.930886
0.5664
0.899131
0.741468
0.818046
0.729861
0
0.595982
0
0
2.04991
1.04734
1.14649
0.37223
0.672072
0.703746
0
1.0895
0
0
0.410733
0.413714
0.350191
0.523817
0.562783
0.888286
0.308274
0
0.832134
0
0.658064
0
0.633282
0
0.715613
0
0.529497
0
0
1.02283
0
0.641156
0.847043
1.10155
0
0
0.539447
1.3269
0
0.688191
0.581144
0
0
0
0.78168
0
0.956863
1.77628
0.485143
0.763334
0.271238
0.603974
0
0.524791
0.674333
1.48283
0.901017
0
0.117135
0.400527
0
0.576678
2.0505
0.826981
0.806982
0
0.571236
0.691069
0.446943
0.70399
0
0.356743
0.574591
0.513786
0.658721
0.678248
0.197536
0.560463
0.443293
0.408547
0.722415
0.403831
1.36726
0.567018
0.554713
0.387361
0.420115
1.50338
0.634896
0
0.288927
0
0.381367
0.478912
0.958716
0.338566
0.761034
0.898187
2.58341
0.467178
0
0.77357
1.24002
0.632254
0.42547
0.558998
0
0.484874
0.351509
0.809111
0.521957
0.803575
0.728706
0
0.617421
0
0.53429
1.13422
0.277653
0.598973
0.312116
0.142559
0
0
0.379114
0
0.596819
1.02977
0
0
0
0.523561
0.587305
0.889135
0.377568
0.874057
0
0.453519
0.858687
0.94165
0.742342
0.472321
1.27534
1.03167
0.488557
0
2.17425
0.453546
0.905664
0.699536
1.64595
0.933758
0
0.911986
0
0.590431
0.365798
0.449974
0.62289
0.351051
1.60629
0.626128
0.779351
0
0.596167
1.07468
0
1.09544
0
0.285914
0
0
0.369518
0.250012
0.420406
0.913942
0.743181
0.277823
0.517548
0.346534
0.457139
0.630612
0.832229
0
1.00391
0.28405
1.04489
0.339294
0
0.742964
0.554312
1.061
0.843129
0.459363
0.514579
0.715681
1.04926
0.523745
0.312942
0.668367
0.792601
0
0
0
0.535486
0.815465
0.961492
0.604009
0.464777
0.620215
0.426294
0.277326
0.509455
0
0.322085
0.814911
0.41106
1.58045
0.603944
0
0
0.357821
0.374769
0.746215
0.460582
1.0859
0.855515
0.397405
0.233318
0.358657
1.80152
0.696253
0.445699
0.528306
0
0.806438
0.621083
0
0
0.446429
0.398704
0.580322
0.359335
0
0.615089
0.58629
0
0
0
0.521426
0
0.254512
0.602561
0
0.689624
0.452344
0
0.562111
0.483485
1.03866
0.892289
0
2.05218
1.08594
0.705645
0
0
0.807294
0.957915
0
0.630443
0.341673
0.515669
0.299571
0.412188
0.351878
0
0.392274
0.628219
0.711837
0.7252
0
0.68227
0
0.457645
0
0.504952
0.538192
0.810399
0.493555
0.731761
0
0.904576
0.612763
0
0.393023
0.873801
0
0.975528
0
0.992139
0.544534
0
0.216068
0
0.406654
0.567106
0.618736
0.837741
0.444761
2.30016
0.814914
0.182311
0.743177
0.302494
0.308902
0
0.587523
0.187153
0
1.88618
0.603402
0.834287
0.367173
0.546754
0.861571
0.999846
0
0
0.665943
0.465286
0
0.325857
0.67676
1.89861
0.239821
0.856923
0.667375
0.363989
0.544638
2.02043
1.58602
0.936122
0.745797
0.407355
0
0.557187
0.673128
1.35614
0.375243
0.748536
0.519802
0
0.441432
0.490121
1.08724
0.414863
0.454686
0.434082
0
0.368854
0.899307
0.495325
1.00881
0.713045
0
1.02877
1.46822
1.1302
0
0
0.753494
0.464391
0.546921
0
1.08575
0
0.736423
1.05248
1.02578
0.91924
0
0.131337
0.754062
0.785335
0.482022
1.21474
0
0
0.82368
0.377568
0.427873
0
0.704742
1.31946
0.683644
0.305668
0.848466
0
0.682975
0.691598
1.32272
1.00311
1.02597
0.797249
0.415137
0.854007
0.463963
0.564324
1.22325
0.143146
0.488861
2.96999
0.77849
0
1.20254
0.466363
0
0.561602
0.775623
0
0
0
0.431267
0.508252
0.52885
1.06908
0.393121
0.59815
0.653687
0.374179
0
0.855999
0.896141
0.574646
0
0.6944
0
0.288777
0
0.553956
0
0
0.434015
0
0
0.526065
0
0.828443
0
0.481242
0.289355
0
0.365668
0
0
0.239814
0
0.75417
0.532888
0.246872
0
1.58283
0.937107
0
0
0.552346
0.323135
0.819083
0.830981
0.253059
0.534908
0
0.814997
0.750335
0.882893
0.792568
0
0.424207
0.979308
0.461012
0.19655
0.561246
0
0.648856
0
1.40606
0.53889
0
1.04978
1.17322
0.424981
0
0.689474
0
0
3.2855
0.263962
0
0.329306
0.982587
0.864081
0
0.770703
0
1.60058
0.722542
0
0.190972
0.487001
0.744268
0.828158
0.671645
0
0.373492
0
0.742839
0.750821
0.232209
0
1.64972
1.42266
0.807819
0.546565
1.4696
0.906322
0
0.427226
0
0.484621
1.2206
1.5823
0.642045
0
0.594844
0.502911
0
0.655738
0.785702
1.02118
0.646549
0.153446
2.68624
0.574995
0.381756
0.377106
0.861839
0.148474
0.251431
0
0.651025
0
0.311071
0
0.723664
0
0
0.648637
0
0.597864
0.150464
0.225854
0.983996
0
0.441103
0.637821
1.16358
0.748755
0
0.381087
0.283616
0.507927
0.617365
1.06931
0.397718
0.721469
0.568305
0.621578
0.519257
0.492336
0.296138
0.343668
0.434305
0
1.34382
1.54508
0.546151
0.563288
0.611624
0.901817
0.515616
0.587395
0.463219
0.564406
0
0
0.634503
1.30138
0.362824
0.636947
0
1.76194
0.412793
0
0
0
0.784021
0.517144
0.674306
0
0.533553
0.804272
1.02121
0
0.700877
0
0.976834
0.240162
0.662441
0.49548
0.369463
0
0
0.531722
0
0.719828
0
0
0.769947
0.949252
0
0.590723
0.696649
1.09596
0
0.33865
0.48274
0.465787
0.980515
1.07215
0.701528
0
0
0.821421
0.547206
0.838996
0.399632
0
0.478686
0
0
0.500346
1.1171
0.64043
0.303411
0
0.235257
0.90344
0
0
0.970528
0
0.540939
0
0.480661
0.753324
0
0
0.198522
0.634831
0
0.245873
0.565799
0.354094
0.320893
0
0.712498
0.490379
0.660162
0
0.297642
0.964288
0.856716
0.721978
0.302045
0
0
0.367151
0
0
0.942531
1.12485
0.547912
0.301545
0.687346
0.674563
0.289776
0.228288
0
0.297554
0
0.794931
0
1.02378
0
0.458838
0
1.01703
0
0
0.464607
0.185108
0.690652
0.380131
0.437339
0.391004
1.45898
0.604857
0.759413
0.421592
0.960354
1.00523
1.09494
0.567082
0.46411
0.455437
0.346525
0.419026
0.528474
0.67226
0.294513
0.538812
0.453654
0
0.373233
0
0.658565
0.549753
0.892659
0
0
0
0
0
0
0
0
0
0
0
0
0
0
0
0
0
0
0
0
0
0
0
0
0
0
0
0
0
0
0
0
0
0
0
0
0
0
0
0
0
0
0
0
0
0
0
0
0
0
0
0
0
0
0
0
0
0
0
0
0
0
0
0
0.508582
0.48968
0
0.547782
0.433188
1.13169
0.587222
0.588561
0.515065
0.586552
0.671324
0.43665
0.60335
0
0.464387
2.276
0.511606
0.504981
0
0.616278
0.453965
0
0.664429
0.951435
0.215532
0.427017
0
0.568707
0.345249
0
0.517479
1.58972
0.528501
0.215685
0
0.590145
0.389441
0
1.11759
0.910075
0.309683
0.838872
0
0.184468
1.39706
0
0.172826
0
0
0.358144
0
2.04903
0.26351
0
1.78457
1.01778
0.337935
0.688807
0
0.699172
0.828617
0
0.54939
2.04306
0.854571
1.45038
0.949719
1.01332
1.08073
0.798791
0.885906
0.274311
0.582693
0.451647
0.777994
0.624239
0.545718
0
0.399922
0.56193
0.945775
0
0.514629
1.29716
1.10811
0.689609
1.35076
0.439222
0.209209
0.749493
0.506058
0.810594
1.32004
0.42477
1.83684
0.802694
0.530301
0
2.43204
0.933039
0.963767
0.878632
0.421247
0.948232
0.345131
0
0.398648
0.538553
0.471978
0.223458
0.886881
0.924991
0.806028
1.01791
0.392487
0.446576
1.17783
0.838326
0.226233
0.574671
0.592254
0
0.571455
0
1.36442
1.27022
0
0
0.533386
0.263286
0
0
0.245235
0
0.337714
0.591321
0.41513
0.107545
0.332962
1.1449
1.19283
0
1.44381
0.961337
0.522347
0.496399
0.340067
0
0.445359
1.05865
0.499568
0
0.637988
0.649152
0.791872
1.06804
0.374254
1.12995
0.818426
0
0.406008
0
0.643542
0.600494
0.397555
0.634473
0.680934
0.972484
0.153869
0
0.555895
0.49132
0.910761
1.55966
1.22109
0
0.56487
0
0.623332
0.542352
0
0
0.513816
1.19613
0.578652
0
0
0.48536
0
1.38475
1.80848
0.444316
0
0.516431
1.17863
0
0.458713
0
0.847413
1.31738
0.858986
0
0.562542
0.795278
0.755578
0
0.538467
0.156142
0.703927
0.946543
0.561022
0.563282
1.00205
0.584572
0
0
0.515215
0.863891
0.654417
0
0
0.447031
0
0
0.960052
0
1.47358
0
0.612471
0.359517
0.448352
1.91161
0
0.6776
1.53654
0
0.640998
0.325017
0.367873
0.36578
0
0
0.220635
0
0.275623
0.61464
0
0.620771
0.478319
0.657567
0
1.08179
0.643778
0.571882
0.645554
1.10941
0.522747
0.795132
0.630048
0.662686
0.307477
0.337879
0
0.86826
0.669937
0.267739
0.716935
0.570527
0.430831
0.846738
1.07957
0.67119
0.660869
0.812608
0.515767
0.34209
0
0.418085
0.49241
0.348822
0.341588
0.39182
0.600099
1.13581
1.24308
1.66544
0.631442
0.326469
0
1.00911
0.859424
0.909875
0.491204
0.924701
0
0.360698
0.676084
0.316301
1.10655
0
0.674155
0.693377
0
0.136444
1.68871
1.0211
0
0
1.52471
0.507095
0.338972
0.742018
0
0.340286
0.870355
0.921816
1.3386
1.07034
0
0.464765
1.43689
2.08014
0.888311
0
0.825875
0.731964
0.305226
0.290922
0
0.324445
0.789312
0.725241
0.524965
0.168934
0
0.57527
0.359516
0.512884
0
0.359848
0
0.749601
0.543061
0.249844
0.227005
0.59955
0.569406
2.42372
0.986608
0.966646
0.354314
0.42244
0.834699
0.919057
0.969911
0.363807
0
0.593303
0.72325
0
0
1.82064
0.790075
0
1.21885
0
0.882237
1.20141
0
0.356518
1.07717
1.16685
1.3022
0.696405
0.588679
0
0.975342
0.4449
0.743386
0.629104
0.700005
0.805099
0.0394004
1.29503
0.779968
0.605433
0.511532
0.112439
0.579894
0.582736
0.72859
0.144096
0.388785
0
0.423376
0.265965
0.596157
0.949632
0.260062
0
0
0.548465
0.745453
0.358448
0.722881
1.05139
0.988487
1.49327
0.470451
0.343169
0
0.235966
1.46283
1.11295
0.7161
0.66884
0.545296
0.119583
0.890375
0.717265
0.154979
0.779865
0.513365
0.705791
0.82865
0.901247
0
0.502718
0
0.311573
0.5936
1.2601
0.616489
0.173502
0.666376
0
0.476849
0.26641
0.26248
1.16546
0.799287
1.22299
0.538143
0.272655
0.366827
0.766354
1.65301
0.455483
0.455492
0.492935
0.47012
0.246616
0.55009
0
0.179864
0.454324
0.593308
0
0
0.615769
0
0.274163
0.0781847
0.634493
0
0.443176
0.33209
0.451007
0.908098
0.473779
0.841802
0
0.659744
0.870479
0.879877
0
0
0.976767
0.465527
0
0.861174
0.33446
0.674026
0.136907
1.35068
0.894158
0.69122
1.13381
0.438388
0.589684
0.701123
0.472605
0.32427
0.365019
0.242557
0.637847
0
0.52685
0.369565
1.2975
0
0.791994
0
0.733721
0.189462
0.865483
0.478506
0
0
0.419455
0
2.21402
0.239675
1.04002
0.551833
0.528536
0
0.832573
0.53963
0.650331
0.579315
1.42242
0.230503
0.841624
0.975633
0.791621
0
0
0.82122
0.940319
0.751743
0
0.415637
0.256346
1.05111
0.502364
0.609361
0.504003
0
0.780821
0.640568
0
0.419607
0.330131
0.760629
0
0.431511
0
0
0.631468
1.58665
1.1157
0.741981
1.36193
0.9406
1.39931
0.745326
0.43318
0
1.127
0
1.19297
0
1.02189
0
0.886411
0
0.532833
0
0.810568
0.397053
1.4516
0.714097
0.664666
0.624481
0.666098
0.472812
0.33001
0
0.460918
0
0.776577
0.450987
0
1.21716
0
0.824856
0.553078
0
0.836882
0.640587
0
0.516493
0.435218
0.0889395
0
0.986949
0
0.833958
0.458297
0.783779
1.81756
0.441027
1.13815
0.875695
0.372952
0
0
0.64044
0.452382
0
0
0.275428
1.48971
0.789412
1.0518
0.981061
0.38514
0.283737
0.607466
0
0.507685
0.734605
0.577067
0.660967
0.795165
0.516842
0.905191
0.538113
0.411399
2.65414
0.637321
0.747407
0.703099
0
0.696686
0.387629
0.53665
0
1.00613
0
0
0.8224
0.257549
0
0.452786
0.418868
0
0
0.518273
0
0.541179
0.741428
1.6013
0
0
0.732479
0.738934
0
0.727351
0
0
0.570364
0.952033
0.89356
0.916114
0.924074
0
0.40287
0.470651
0.996031
0.543094
0.378808
1.28354
0.925468
0.795914
0.707321
1.51085
0.752247
0
0.506972
0
0.622506
0.879057
0.800462
0.644834
1.13412
0.563972
0
0.555022
0
0
0.59104
0
1.34316
1.46605
1.32463
0.584001
0
0.27409
0
0.585014
0.671386
1.07364
0
0.694485
0
0
0.821909
1.05793
0.761066
0.362709
0.878596
0.25659
0.350517
0.303495
0.634915
2.53489
0.636339
1.28018
0.470718
0.514307
0.0453158
1.11775
0.557527
0.684816
0.741375
0.313253
0.800819
0.398247
0
0.464465
0.666705
0
0
0.38721
0
0.559509
1.60895
0.23378
0.666792
0.421502
0.75756
0.47682
0
0.176357
0
0.826242
1.25299
0
0.353028
0.248601
0.806509
0.11339
0.813152
0.396981
0
0.563504
0.374009
1.38245
0.684653
0.575738
0.57434
0.542867
0
0.554678
0
0.523333
0.248331
0
0.84297
0
0.67489
0.672328
0.092549
0.475802
1.27168
0.710099
0.520061
0.49384
0
0.750257
1.92891
0.505528
0.384542
0.662061
0
0.937474
0.706111
0.907503
0.532164
0.834449
0.526658
0
0
1.13547
0.444198
0.3982
0.839133
0.373462
0.526685
0
0.250307
0.571023
0.459914
0.771795
0
0.655391
0
0.468596
0
2.53637
0
0.425874
0
0.685716
0
0.323499
0
0
0
0.90211
0.497731
0.451803
0.486687
0.578951
0.69744
0.472407
0
0
0.347777
0.260892
0.745071
0.442014
1.15986
0.646958
0.737008
1.10995
0
0.552674
0
0.65552
0
0
0
0.398913
0.503862
0.13038
0.301495
0.219723
0.927545
0.522278
0
0.507542
0.0610976
0.841756
0.491452
0.644231
0.447275
0.827115
1.13984
0.533034
0.51408
0
0
0.36925
0
1.2303
0
0
0
0.558293
0.404215
0
0
0.639522
0.649166
0.136297
0.536577
0.747216
0.365218
0.823451
0.436236
0.651646
0.692207
0
0.630439
0.202823
0.534983
0
0.564932
0.309325
0.32576
0
1.14438
0.239534
0
0.48464
0.43626
0.586568
0.976895
0
0.453016
0
0.261959
0.223048
0.460067
0
0.222939
0.301186
0.358988
0
0.631985
0
0.452232
0.820343
0.428966
0.856247
1.63054
0.695425
0.878767
0.643165
1.12205
0.534901
0.27049
0.495354
0.778952
0.487424
0.329742
0.564936
0
0.800215
0
0.743165
1.37439
0.485155
0.262312
1.34139
0.40219
1.02431
0.588565
1.38681
0.399964
0.558122
1.76805
0.515879
1.82424
0.573518
0.555811
0.437172
0.361084
0.343891
0.786854
0
0.418244
0.474658
0.428283
0.672668
0.77358
0.667649
0
0
0
0
0
0
0
0
0
0
0
0
0
0
0
0
0
0
0
0
0
0
0
0
0
0
0
0
0
0
0
0
0
0
0
0
0
0
0
0
0
0
0
0
0
0
0
0
0
0
0
0
0
0
0
0
0
0
0
0
0
0
0
0
0.158669
2.39263
0
2.55538
0.397395
0
3.73531
0
0.238384
0
0
0.451274
0.941852
0
0
0
0
0
0
0
0
0
1.00145
0
0
0
0.927774
0.923824
2.00129
0
0
0
0
0.537424
0
0
0
0
0.396622
0
0.287394
0
0
0
0
0
0
0
0
0
0
0
0
0
0
0
0
0
0.614294
0.373677
0
0
0
0
0.667579
1.01848
0.730269
0.726498
0.562403
0
0.656283
0
0
0.658555
0
0.637961
0.279684
0
0.324775
0
1.2931
0.496592
0.724968
0
0
0.359002
0.873497
0
0.419528
0.601104
1.8083
2.15987
1.01509
2.53298
1.05823
0
1.54312
0.97817
0.399256
0
0.492575
0.780886
0.912033
0.285979
0.462031
0.369647
1.09886
0.163656
0.212417
0
0.456133
0
0
0.711974
0.669756
0.576048
0.538027
0
0.513876
0.964843
0.904276
0.498941
0.537392
0.360598
1.63522
0
0.514241
1.08913
0.694595
0.320152
0.539297
0.683317
0.410257
0.269325
0.48227
1.38196
0
0.788093
0.0971949
0
1.44843
0.284864
0.486773
0.753311
0.518866
1.24964
2.0067
0.725007
1.1305
1.63792
0.661116
0
1.48149
0.401256
0.912507
0.751701
0.565758
0
0.576592
1.11678
0.470755
0.504171
0
0.3675
0.856582
0.566183
1.67173
0.662399
1.11441
0.436735
0.943476
1.49175
0.468396
0.570024
0.750663
0.368073
0.887686
0.509542
1.46071
0
0.90922
0
0.586455
0.748685
0.463526
0.768652
0.719197
1.21965
1.4939
1.50461
0.751304
0
0.850726
0.695713
2.58801
0.214665
0
0.622749
0.3018
0
1.09592
0
0.599743
0.537055
0.45235
0
1.28025
0.758382
0.803827
0
0
0.39787
0.789472
2.67699
1.1135
0
0
0
0.341687
0.243176
0.429512
0.0847847
0.585868
0.4617
0.78256
0.790504
0.920103
1.64466
0.418632
1.11578
0
1.74219
1.17101
1.11465
0.733135
0.743414
1.26171
1.00295
0.606405
0
0.63206
0
0.869391
0.329052
0.985414
1.20894
0.802342
0.940495
0
0.224729
1.13087
1.02128
0.6013
0.854552
0
0
0.790165
0
2.15058
0.60594
0
0.856072
1.01729
0.74398
0.911946
0.600266
0
1.04086
0
1.82419
0.551965
0.861212
0.709449
0.687505
0.603897
0.695151
0.736945
0.480897
0
0
0
0.373219
0.801613
1.36324
0.982113
0.414465
0.909021
0.488999
0.698617
0.934411
0.763266
0
1.03886
1.09659
0.36914
1.04784
0
0.852618
0.56545
0.628517
0
0.761182
0
0.698685
1.70623
1.18166
0.245694
0.565485
0
1.09567
0
0.301638
0
0.311225
0.474913
0
1.50562
1.79938
0.4111
0.731023
0.182833
1.1006
0.885958
0.721233
0.653509
0.590456
0.78047
0.471403
0.618337
0.709923
0.970301
0.643875
0.64762
0
0.676996
0.259519
0.376703
0.566391
1.10904
0.626037
0.867676
0.721264
0
0
0
0.295886
0.470084
0.93193
1.08207
0.779694
0
0.404641
0
0.859151
0.527104
0.370393
0
0.783071
0
0.607155
0
1.3094
2.18497
0.702722
0.895598
0.451353
0.615562
0.416502
0.430733
0.356579
0.689083
1.09565
0.77094
0.86472
0.437607
0.46222
0.761653
0
0.976468
0
0.631767
1.05881
0.808106
1.72226
0
0.570581
0.171586
0.595783
0
0
0.681425
0.700362
0
0.421483
0
0
0.556573
0.62349
0
0.867267
1.30917
0.863297
0.729418
0.347418
1.0137
0.481633
0
1.12582
0
0.0614976
0.593222
0.577187
0.50147
0.447897
0.899667
0.372832
0.331117
0.827122
0.498894
0.787082
0.620073
0
0.301325
0.751097
0
0.402775
0.900914
0
1.71177
0.718835
0.079298
0.808278
0
0.346844
0.408463
0
0.501376
0
1.17917
1.46903
1.83302
0.918537
1.01354
1.03469
0.289199
0.691076
0.836868
0.593198
0
0
0.949074
0.698312
0.680287
0.231893
0.609686
0.306897
0
0.536775
0
0.589937
0
0
0.642172
1.06573
0
0.580976
0
0
0.150233
0.582344
1.16589
1.29349
1.27503
0.410839
0.954138
0.37576
0.478623
0
0
0.615463
0.539408
0.774338
0
0
0.676708
0.378646
0
0
0.623358
0.526591
0
1.39165
0.51706
0
0
0.598127
0.991803
0.57051
1.45131
0.889059
0
0.413889
0
0.675696
0.201668
1.0584
0
0.775805
0.0653025
1.13227
0.505727
0.534598
0.961251
0.559944
0.534511
0.260505
0.271504
0.840756
0
0
0
0
0
0.454349
0.598724
0.363858
0.929342
0.785461
0.453822
0.725304
0.68711
0
0.700215
0.577315
0.443735
0.705905
0.508909
0.313736
0.600052
0.274099
0.611199
0
0.36433
0.14197
1.38255
0.871962
0.669611
1.09933
0.501678
0
0.47953
0.303889
0
0.750795
1.03308
0.911214
0.815093
0.470353
0.643305
0.485113
0
0.47042
0.682779
0.724591
0
0.584872
0
0
0.39669
0
0.999149
0
0.730179
0.434389
0.704569
0.687888
0.861106
0.525678
0.326097
0
0.891685
1.23533
0.58619
0.91782
0
1.09635
0.501451
0.739964
0.556265
0
0.514976
0
0.247805
0.358746
0.747599
0.497572
0.660999
0.68562
0.681558
0
0.324824
0
0.818188
1.13224
0.962482
0
0.781616
0.592861
0
0
0.982915
1.32532
0.648406
1.14272
0.468999
0.636709
0.631152
0.890268
0.401109
1.27413
0
0.651562
2.02905
0.707566
0
0
0
1.04817
0.35215
0
1.09767
0
0.859551
0.524966
0
0.360378
0
0.986288
0
0.693342
0.63109
0.271756
0
0.463146
0.850956
0.773241
0
0.500528
0.501684
0.414253
0
0.642456
0.572785
0.88412
0
0.425191
0.525716
1.1215
0.693957
0.304975
0.45526
0.952078
0.594816
0
1.32278
0.632589
1.12688
0.439457
0.468431
0
0.412406
0
0.338543
0
0.471766
0.624228
0
0
0.453499
0.170285
1.83071
0
0
0.995273
0.364961
0.836616
0
0
0.864998
0.935521
0.708633
0.564578
0
0.634704
0.454851
0.388852
0
0.428106
0.384818
0.268906
0.465014
0
0.906661
0
0.515265
0
0.682453
0
0.374707
0.563216
1.54138
0.996425
1.51999
0.362701
0.58824
0.371939
0
0.695285
0
0.552974
0.403354
0.725221
0.900518
1.47062
0
0.421994
0
0.881362
0
0.554515
0.612841
0.705418
0.580026
0.590991
0.457793
0.604501
0.639433
1.96471
0.530592
0
0.3548
0.482335
0.208535
0
0.853052
1.25123
0.320305
0.546147
1.67749
1.22533
0.471627
0
0.456632
0
0.567305
0
0.6335
0
0
0.559879
0.883211
1.11526
0
0.685787
1.27779
1.21606
0
0
0.443748
0
1.14959
0
2.71066
3.04675
0.856621
0.58788
0.254525
0.141501
0.913441
0.773998
0.601622
0.535284
0.318595
0
0.655031
0.403406
0.801351
0.796
0.735651
0.922864
0
0.340985
0
0.435732
0
0
1.82015
0.59146
0.544121
0.908153
0
0.971802
1.11603
0
0
0.719973
0.447628
0.0870761
0.853688
0.375576
1.35591
0.94155
1.16492
0
0.311207
0.292126
0.655486
0.21646
0.915348
0.60261
0.687455
0.399538
0
0.771251
0.746915
0.680842
0.849082
0
0.72513
0.53645
0
0.520994
0.487918
0
0.953111
0.773959
0.816719
1.12098
0.361084
0.518667
0
0
0.661783
0.700249
0.575448
0.786601
0.635815
0.228971
0
0.522918
0
0.976336
0
0.561426
1.85504
0.753837
0.913823
0.555635
0.61448
0
1.05131
0
0.516258
0
0
0.64418
0
1.07906
0
0.396762
0
0.34108
0.724194
0.635245
0.367935
0.271728
0
0.699589
0.985822
0.731242
0.392537
0.704449
0.824006
0.447528
0
0
0.466455
0.589594
0.0867959
0.952905
0.61916
0
0.887171
0.7113
0.653452
0.827238
0.336198
0.774565
0.435661
0.88975
0.782918
1.04835
0.332875
0
0.799109
0
0.390983
0.383747
0.344532
0.9611
0.635882
0.478667
0.609592
0.32966
1.17789
0.501124
0.735198
0
1.17833
0.401321
0.568514
2.14455
0.657197
0.579543
0.665002
0
0.721865
0.641062
0
0.195913
0.542984
0.596299
0.635386
1.05369
0.642118
0.577257
0.478391
0.546678
0.381751
0.0838459
0.42916
0.517411
0
0.641522
0
0.756219
0
0.700529
1.13212
0.396489
0.902469
0
0.699713
0
0.503361
0
0
0.231435
0
0.559293
0
0
0
0
0
0
0
0
0
0
0
0
0
0
0
0
0
0
0
0
0
0
0
0
0
0
0
0
0
0
0
0
0
0
0
0
0
0
0
0
0
0
0
0
0
0
0
0
0
0
0
0
0
0
0
0
0
0
0
0
0
0
0
0
0.419371
0.720921
1.11263
0.715334
0.5059
0
0.509225
0.896992
0.42938
0.354473
0
0.494158
0.435999
0
0.5141
0.969653
0.207304
0.665772
1.75198
0.418459
0.520666
0
0.557878
1.22747
0.422887
0.420542
0
0.482345
0.432104
0.354498
0.657638
1.00097
0.229938
1.21777
0.564404
0.555122
1.03818
0
0.412133
0.912101
1.23456
0.514805
0
1.31404
0.150733
0
0.646977
0.756793
0.318728
1.38839
0.0985809
0.227446
0.789883
0
0.720168
0.413778
0.830566
0.499401
0
0.681456
0.563938
0.348799
1.99908
0.506934
0.986193
0.893915
0.568709
0
1.01508
0.378633
0.93971
0.386477
0.477042
0.558099
0.549995
1.67822
0.653627
1.16239
0.418192
0
0
0.360921
1.77042
0.454851
0.812718
0.364581
1.18147
0.939468
1.19419
1.08818
1.11813
1.04386
0
2.47994
0.573254
0
1.24608
0.722837
1.39312
1.65772
0.615869
0
1.29321
0.950769
0
0
0.772543
0
0.515174
0.151863
0.658193
0.78329
0.500762
0.498947
0.576049
0.57776
0.494591
0.482063
0
0.544577
0.709304
0
0.556854
0
0.947429
0.813123
2.26521
1.94512
0.654441
1.07579
0
0.95321
0.572826
0.709008
0
0.314101
0.398318
0.475308
0.547999
0.485282
0.348197
1.21592
0.442445
0.725116
0
0
0.488388
0.337367
0
0
0.444707
0.879537
0.957017
0
0.439988
0
0
0.990981
0.818704
0.446584
0
0.735494
1.10103
0.541598
0.406142
0.489954
0.596903
0.93559
0
0.268423
0.9313
0.630219
0.662416
1.11033
0.310848
0
0.81666
0.607719
1.06203
0.652493
0.673303
0.674046
0.794712
0.359951
0.885032
0
0.7515
0.598131
0.589817
0.318141
0.631557
0.250466
1.89724
0
2.30653
2.48472
2.93584
0.377991
0.387331
1.34003
0.583767
0
0.44291
0.907794
0
0.291347
0.341061
0
0.915202
0.893313
0.642043
0
1.2372
0
2.81831
0
0.630731
0.592572
0.468513
0.380813
0.416279
0.28735
0.419226
1.23583
0
0.834481
0.569512
0.533318
0.435727
0.504239
0.529064
0
0
1.2124
1.10753
2.12696
0.531181
0.583842
0.981772
0.744675
0.53578
0.571007
0.541189
0.422122
1.16096
0.667016
1.56611
1.15082
0.209057
0.487666
0.436522
0
0
0.370009
0.369138
0.72899
0.663107
0.828508
0.856658
0
0.979393
0.743521
0
0.908856
0.501166
0.867535
0.871401
0.625869
0.590124
0.781641
0.854263
0.542883
1.82027
0
0.491731
1.03326
0.408014
0.463678
0.879659
0.977482
0.970083
0.814881
0.485936
0.674732
0.647165
0
0.60907
0.544905
0.480738
0.885433
0.760056
0.880511
0.663272
1.62952
0.640327
1.28926
0.632781
0.493194
0
0.298308
0.595528
0.410169
0
0.69194
0.695732
0.669833
0
0.422105
0.336201
0.681966
0.462689
0.645454
0.816378
0.764922
0
0.341007
0.656943
0
0.653239
0.816264
0
0
0.541322
0.233601
0.66991
0.390236
0.96035
0.702843
0.287036
0
0.691966
0.620236
0.262084
0
0.618506
0.476559
0.282148
0
0.724372
0
0
0
0.380535
0.676405
0.832845
0.302206
0.893888
0.986853
0.574636
0.916246
0.709175
0.74185
0.756997
1.08744
0.627607
0.432933
0.63618
0.932185
0
0
0.314301
0.260406
0.833578
0.576034
0
0.300313
0.307284
0.461976
0.524792
0.313267
0.551088
1.56807
0.417551
0
0.967619
1.02494
0.565459
0
0.675671
0
0.417974
0.363262
0.568496
0.589923
0
0.362962
0.462035
0.645684
0.497828
1.67261
1.44667
0.654281
0.524011
0.487028
0.514182
0.502911
0.448964
0
0.474321
0
0.630075
0
1.00121
0
0
0.873284
0.340949
0.701084
0
0.827746
0.559041
0
0
0
0.55441
0.728017
1.02343
0.714061
0
0.673058
0
0.398829
0
0.490388
0.578137
1.1541
0
0.621803
0
1.0282
0.711028
1.28423
0.528223
0.582708
0.747124
0.81863
0.600863
0.959413
0.895996
2.21817
0.754785
0.799489
1.26958
1.22291
1.12519
0
0
0.993759
0.373286
0.839268
0.662807
0.526645
0.564862
0.737791
1.10991
0
0
0
0
0.710942
0.933674
0.521807
0
1.19174
0.776191
0.523099
0.393283
0.38521
0.532528
0.639303
1.16095
0
0.366257
0
0.690797
0
0.672572
0.491781
0.360296
0.605195
0.300718
0.302515
0.436672
0
0.716045
0.306098
0.868251
1.46215
0.56555
0
0.663084
0.511836
0
0.903237
0.286337
0.981246
1.74998
0.798958
0.711713
0
0
0.310864
0
0.316645
0
0.582893
0.363513
0
0.884492
0.613747
0
0
0.82329
0.507892
0.567962
0.658348
0.714855
0.495859
0
1.04056
0
0.732155
0
0.570042
0.618031
1.02648
0.486939
1.20799
0
0.52866
1.11634
0.839586
0
0.897922
0
0.452481
2.16702
0.407117
0.300735
0
0.906783
0.766801
0.39753
0.823052
0.405158
0.40403
0.369686
0
1.24866
0.744824
0.739993
0.711496
0.753354
0.598968
0
0.945028
0
0.649113
0
0.184539
0.611845
0
0.905052
0.303154
0.68855
0.546338
0.588294
1.22111
0.632189
1.29444
0.747862
0
0.93513
1.82041
0.599254
0
1.39948
0.305413
0
1.12489
1.00262
0.323201
0.612119
0
0.43618
0
0.41034
0
0
0
0.587122
0.569838
0.678719
0.611154
0.445844
0
0.452595
0.488272
0.699435
0.644008
0.718059
1.51225
0.653123
0.441921
0.395763
0.838606
1.70111
0
0.691576
0.65384
1.11123
0.516641
0.740792
0
0.826603
0
0.598218
0.337492
0.485028
0.50833
0.498667
0
0
0.573666
0.588622
1.19016
0.122156
0.606835
0.413636
0
0.407943
0.544504
0
0
0.671098
0.877995
0.553941
0
0
0.60744
0
0.147666
0.584389
0.811523
0.92605
0.602044
1.73944
0.462347
1.20902
0.639391
0.631656
1.16261
0
1.10988
0.772233
0.24561
0
0.896537
0.243211
0
0
1.08812
0
0.645304
0.651326
0.67271
0
0
0.485851
0.644149
0.747514
0.50489
0.744752
0.694083
0.180648
0
0.677072
0.767969
1.20465
0.623378
0.518334
0.639434
0.84479
0
0.47824
1.01003
0
0.599326
0
1.58688
0
0
0
0
0
1.60088
0.801777
0
0
0.439762
0.417404
0
0.958166
0
0.872219
0
1.11824
1.2384
0
0
1.79885
0.447826
0.673276
0.458851
0.396517
0.454359
0.515821
0.827739
0.425444
0.815943
0.760999
0
0.796237
0.526566
0.392526
0
0.548342
0
0.974136
0.638023
0.527995
1.85439
0.322244
1.24013
0
0
0.732655
0.342411
0.507184
0
0.495298
0.917647
0.647651
1.48307
0
0
0.505306
0
0.47142
0
0.441611
0.332616
0.563016
0.431746
1.50154
0
0.384268
0.307403
0.479107
0.437935
0.307967
0.562755
0.590013
0
0.747626
0
0.559599
0.292649
0.0676927
0
0.977713
0
0.856684
2.05949
0
0
0.104354
0.468084
0.287451
0.294945
0.884893
0.781821
0.284147
0.438422
0.751366
0.592418
0.25253
0.540625
0.120112
0.519163
0.418065
0.554253
0
0
0.548604
0.70217
0.539122
0.427795
0.365455
0.78486
0.7336
1.35801
0.639662
0.87787
0.841402
0.719203
0
0.361873
0.435947
0.309872
0.302742
0
0.908528
1.53434
0.369341
1.09726
0.707143
0.371052
0.523924
0.438172
0.870951
1.05683
0
0.906727
1.7167
0.286583
0.356535
0
0
0.916528
0.847405
0
0.577305
0
0.562529
0.573489
0.360497
0.391091
0.442512
0.37539
0.493598
0.486911
0
0
0
0
0.492496
0.993754
0.736903
0.520376
0.341512
0.544982
0
1.45099
1.06868
0
1.8019
1.70936
0.848548
0
0.802963
0
0.537538
0
0.249343
0.73913
0.581861
0.555244
1.16603
0
0.709157
0.20108
0.652595
0
0.256857
0
0.552141
0.770697
0
0
0
0.914634
1.59984
0.240119
0
0.604962
0.666437
1.55833
0.220536
1.04892
0.813049
0.852574
0.527987
0.307836
0.724006
0.376104
0.434694
0.930588
0.150299
1.11611
0.437889
0
0.203985
0
0.800542
0.56914
0.841601
0.756681
0.968286
0.483866
0.346307
0.509385
0.344807
0.758417
0.90742
0.111458
0
0.478109
0
0.550156
0.437124
1.06185
0.864244
0
0.762822
0.30631
0.596714
0
0.367357
0.634475
0.346419
0.622676
0
0
0.572367
0.320174
0.538861
0.227136
0.903294
0.579219
0
0.557312
0
0.445502
0.396425
0.348932
0.463815
0
0.927433
0.560865
0.267693
0.724763
0.47978
0
0.51907
0.280931
0.557807
0.650597
0.246233
0.361286
0
0
0
0
0
0
0
0
0
0
0
0
0
0
0
0
0
0
0
0
0
0
0
0
0
0
0
0
0
0
0
0
0
0
0
0
0
0
0
0
0
0
0
0
0
0
0
0
0
0
0
0
0
0
0
0
0
0
0
0
0
0
0
0
0.384936
0.44163
0
0.440623
0.54094
0
0.707725
1.31313
0.255061
0.610898
0
0.525866
0.513358
0
0.629913
0.889787
0.32775
0.592267
1.21038
0.44993
0.44896
1.80245
0.399458
1.26952
0.612711
0.514173
0.656478
0.486441
0.363532
0
0.522784
1.40819
1.17059
0.255641
0
0.663074
0.394666
0
0.677844
0.842706
0.267721
1.60589
0
0.0792595
1.67919
0
0.465205
0.991479
1.03842
0.119442
0.440295
0.797598
0.28874
0.0259552
1.13004
0.437799
0.137213
0.96178
0.376941
0.385756
0.366068
0
0.418375
1.82004
1.56259
0.693895
0.218743
0.691772
0.565456
0.769025
0.653757
0
0
0.607891
0.651107
0
1.35175
0
0.353056
0.634721
0.674633
0.714368
0
0.461452
0
0.617561
0
0.448588
0
1.45368
0
0.291327
1.20799
1.37947
0.644036
0.904097
0
0.788598
1.08011
0.76925
0.723473
0.601388
0.430346
0
0.530356
0
0.922292
0
0.19969
0.60059
0
0.688163