<?xml version="1.0"?>
<VTKFile type="RectilinearGrid">
<RectilinearGrid WholeExtent="0 32 0 32 0 32" Origin="0 0 0" Spacing="1 1 1">
<Piece Extent="0 32 0 32 0 32">
<PointData>
</PointData>
<Coordinates>
<DataArray type="Float32" format="ascii">
0 0.524874 1.04975 1.57462 2.0995 2.62437 3.14924 3.67412 4.19899 4.72386 5.24874 5.77361 6.29849 6.82336 7.34823 7.87311 8.39798 8.92285 9.44773 9.9726 10.4975 11.0224 11.5472 12.0721 12.597 13.1218 13.6467 14.1716 14.6965 15.2213 15.7462 16.2711 16.796 
</DataArray>
<DataArray type="Float32" format="ascii">
-5.03879 -3.62163 -2.20447 -0.787311 0.629849 2.04701 3.46417 4.88133 6.29849 7.71565 9.1328 10.55 11.9671 13.3843 14.8014 16.2186 17.6358 19.0529 20.4701 21.8872 23.3044 24.7216 26.1387 27.5559 28.973 30.3902 31.8074 33.2245 34.6417 36.0588 37.476 38.8931 40.3103 
</DataArray>
<DataArray type="Float32" format="ascii">
0 0.524874 1.04975 1.57462 2.0995 2.62437 3.14924 3.67412 4.19899 4.72386 5.24874 5.77361 6.29849 6.82336 7.34823 7.87311 8.39798 8.92285 9.44773 9.9726 10.4975 11.0224 11.5472 12.0721 12.597 13.1218 13.6467 14.1716 14.6965 15.2213 15.7462 16.2711 16.796 
</DataArray>
</Coordinates>
<CellData>
<DataArray type="Float32" Name="Scalar" format="ascii">
0
0
0
0
0
0
0
0
0
0
0
0
0
0
0
0
0
0
0
0
0
0
0
0
0
0
0
0
0
0
0
0
0
0
0
0
0
0
0
0
0
0
0
0
0
0
0
0
0
0
0
0
0
0
0
0
0
0
0
0
0
0
0
0
0.179574
0.325388
0
0.484322
0.178039
0
0.447276
0.976912
0.169034
0.269988
1.5041
0.639017
0.443248
1.7006
0.228299
0.425677
0.0843829
0.220988
0
0.34912
0.415834
0
0.358303
1.05131
0.098034
0.401942
0
0.381441
0.293447
0
0.489272
0.255404
0.178127
0.572461
0
0.168586
0
0
0.292277
1.17975
0
0.290519
1.02089
1.90938
0.0697028
0
0.905173
0.598452
0.0426912
0.441087
1.39008
0.341409
1.15058
0
0.718313
1.18565
0
0.147934
0
0.34923
0.284032
0
0
0.593421
0.437984
0.346414
0.308994
0.825535
0.476082
0.785388
0
0.599469
0.25591
0
0
0.785508
1.40272
0.790174
0.546184
0
0
0.691849
0.867069
0.648606
0
0.604746
0
2.01429
0.830591
0
0.777746
1.11308
1.73212
0
0
0.312815
0
0.703663
0.334962
0.475488
0
0.671277
0
0
0
0.695333
0.672971
0
0.932207
0
1.59011
0.402435
0.44518
0.829742
1.11067
0.956255
0
2.54832
1.28138
0.800581
0.523554
0.588358
1.1897
1.10896
0.765901
1.10069
0.579882
0
0
0.791011
0.824482
0
0
0
0.733151
0.889961
0.652394
0.58922
0.394023
0
0
0
0.664375
0.329861
0.719328
0.715764
1.22994
0.928106
0.766838
0
0
0
0.301921
0.340043
0.437756
2.68958
0.781999
0.898653
0.539518
0.581614
0.718819
0.535089
0
1.23707
0.750247
1.04033
0.586883
0.309021
0
0
0.535908
0.793416
0.954416
0
2.02713
1.18017
1.38769
0.692081
0
0.819406
1.34607
0.911231
0.637567
0.854213
1.83555
1.18192
0.592041
0.998527
0
0.595775
0
0.868437
0.390601
1.10507
0
0.431065
0.97271
0
0
0.804991
0.652521
0.714994
0.952262
1.06461
0
0
0.130372
0.329202
0.283898
0.740497
1.1994
0.507542
0.721172
0.657925
0.235248
1.07804
0
0
1.23129
0.425462
0.531502
0
0.710725
0
1.12637
0.454156
0.924909
0
0.611863
0
0.796855
0.423183
0.608818
0.32743
0.885094
0
1.1613
0
0
0.826512
1.20322
0.68897
0.763434
1.00078
1.44419
1.2812
1.75166
0
0.653199
1.05407
0
0.607368
0.26855
0.572589
0.504054
0.932738
1.32551
0.737616
0
1.43787
0.237451
0.985662
0.677048
0
0.5348
0
0.465616
0.618549
0.796994
0.344154
0.521535
0
0.624134
0
0.650662
0.483464
0.652968
0.554002
0
0.974821
0.749179
0
0
0.721523
0
0.488379
0.920775
0
0
0
0.629521
0.555422
0.619388
0.560865
0
0.572761
0
1.65618
0
1.06162
0
0
0.959453
1.57864
0.97945
0
0.131506
0
0
0.737792
0.572916
0
0
0.599151
0
0
1.43549
0
0.355181
0
0
1.02741
0.538675
0.439045
0.386894
0.723004
0.665744
0.659445
0
0
0.568856
0.628405
0.410871
1.43135
0.838476
1.15424
0.534311
1.56286
0.3286
0.685957
0.435822
0.931892
0.385428
0.651224
0.439605
0.992855
0
0.32244
0
0.383709
0
1.09155
0.620922
0.663575
0.431187
0.610647
0
0
1.76642
1.87228
0.49333
1.05604
0.847008
1.13371
0
0.606787
0
0.757851
0.939813
1.43894
1.0924
0.574634
0
0
0.622762
0.427922
0.481151
0.276421
0.682864
0.498183
0.386378
0
0.826858
0
0
0.526844
0
0
0.192909
0.371455
0.482929
0.935555
0.737298
1.03149
0
0.740192
0
0.513042
0
0
0
0
0.939054
0.377758
0.838793
0
0.546912
0.83468
0.831244
0.41713
0.735811
0.53764
0
1.13125
1.2774
0.575194
0.796982
0
0.301017
0
0.259149
0.534432
0.543463
2.00357
0.70416
0
1.54917
0.631279
0
0
0.367809
0
0.44643
1.08472
0.797542
0.844874
0
0
0.966268
0.758403
1.58711
0.366355
0
0.205837
0
0
1.46554
0.951987
0.523468
0
0.378826
0
0.553732
0
0.645899
0.678942
0
0.22774
1.04056
0.370384
0.608589
0.424291
0
0
0.424332
0.647561
0.190123
0.732026
0.872374
0.585567
0
0.63409
0
0.677808
0.757505
0.545182
0
0
0.228512
0
0.928059
0.83222
1.19614
0
0.422178
1.13067
0.510512
1.0729
1.65202
0.320565
0.581873
0.830033
1.00535
0.511433
0.522786
0.950091
0
0.377824
1.56263
1.66413
0.649657
0.490654
0.482481
0
0.421024
0
0.885406
0.489993
0.489649
0.465021
0.596425
1.35071
0.665641
0.693256
1.33265
0.564832
0.460985
0.432571
0.44249
0.397424
0.254282
1.06574
0
0
0
0.655046
0.450379
0.67719
0.379027
0.563981
1.31891
0
0
0.585589
0.645898
0
1.24814
1.14947
1.24685
0.94128
0.400019
0.472387
0
0.565276
0.627951
0
0.805075
0.72368
1.11474
0
0.810376
0.457184
0.574332
0
0.487827
0.365372
0.723348
0
0.646322
0.650923
1.38968
0
0
0.604589
0.674185
0.50542
0.454693
0
0
0
0.312983
0.644351
1.08398
0
0.565279
0
0.728206
0.545206
0.164956
0.372987
0.294875
0
0.417548
0
0.944647
0.491711
0.955209
0.333387
0.384795
0.961513
0.433649
1.00799
0.516043
0.82191
0.396735
1.08393
0
1.34109
1.1841
0
0.548553
0.340213
0.26345
0.249603
0.607415
0
0.491624
0
0
0.400784
0.665309
0.337926
0
0.517742
0
0.452256
0
0.668356
0.958672
0.580062
1.36672
0.713433
0.36811
0
0.317045
0.548654
0
0
0.934901
0.968649
0.626316
0.468445
0.407973
0.397278
0
0.453591
0.486457
0.251617
0
0.463439
0.780982
0.654871
0.806255
0.477876
1.45038
0.28698
0.577257
0.704693
1.175
0.443999
0
1.2647
0.607198
0.209288
0.555493
0.72096
0.819047
0.661591
0
0.590975
1.14622
0.562963
0.584394
0
0
0.699114
0.377702
0.953405
0.431042
0.838955
0.590493
0.454332
0
0.448614
1.06171
0.267367
0.654651
0
0.400868
1.86608
0.522152
0.88521
0.377188
0.592863
0.466123
0.909764
1.384
0.995732
0.747889
0.663835
0.635967
0.683616
0
0
0
0.534127
0
0.511154
0
0.576059
0
0
0.137023
0.722251
0
0.513444
0
0.445388
0.764376
0.774482
1.06988
0.584244
0.637255
0.632376
0.449281
0.625413
0.655405
0.825019
0.587967
0
0.992059
0
0.704678
0
0.751804
0.531115
0.284944
0
0.494981
0.541613
0.491119
0
0.498976
0.713104
0
0
0.311838
0.723229
0
0.530248
0.416042
0.840754
0.56061
1.06025
0.52076
0.675738
0.787677
0.892639
0.82138
0
0.551151
0
0.489881
0.436935
0.553002
0.891983
0.441891
0.292035
0.565766
0.348403
0.414431
0
0.935246
0
0
0
0.336137
0
0.251922
0
1.49032
0.930046
0.905482
1.2895
1.62995
0.320463
0.646577
0.336669
0.625388
0.343751
0
0.427796
0
0.488126
0.229741
0.366519
1.24601
0.833138
0.70761
0
0.263358
0.355031
0.638728
0
0.651189
0
0.713219
1.52616
0.64016
0
0.603082
1.0626
1.64539
1.14088
0.573095
0.442074
0.567913
0
0
0.820751
0.303054
0.446089
0
0.421155
0.73794
0.97081
0
0
0.190729
0
0.805336
0.467115
0
0.588266
0.636082
0.552024
0.527228
0.461434
0
0.404216
0
1.82674
0.788473
0.704689
0
0.422032
0.937713
0.518805
0.897383
0.882966
0.51239
0
1.01272
1.40447
0.670795
0.195772
0.407462
0.745245
1.3151
0.910213
0.441539
0.305576
0.376967
0
0.130813
0.782383
0.936385
0.484827
0.143665
0
0.902234
0.692358
0.359922
1.29414
0
0.328599
0.643054
0.726338
0.537109
1.12385
0.784006
0.405817
0.274713
0.0934546
0.293707
0.174613
1.26054
0.456555
0.896931
0.169645
0
0.325882
0.828192
0
0.823554
0.423732
0.765016
0.474593
0.66744
0
0.367109
0.74343
0.762521
1.93298
0
0
0.358945
0.569267
0.519948
0
0.351038
0.561257
0.771067
0
0.502657
0.559533
0.454442
0
0.586188
1.3894
0
0.663427
0
0.288571
0
0.410317
0
0
0.58204
0
0.575126
0.90733
0.702243
0.461327
1.26459
0.42729
0.654438
0.59317
0
0.204065
0.254827
1.90203
0.759102
0
0
0.492522
0.637361
0
0.574289
0.342161
0.448324
0.415996
0.740038
0
0.567146
0.711647
0
0.561623
0.553689
0.401251
0.290976
0.428524
0
0.394304
0.415697
0
0
0.127152
0.545804
0.556659
0
0
0
0
0
0
0
0
0
0
0
0
0
0
0
0
0
0
0
0
0
0
0
0
0
0
0
0
0
0
0
0
0
0
0
0
0
0
0
0
0
0
0
0
0
0
0
0
0
0
0
0
0
0
0
0
0
0
0
0
0
0
0
0
0.302239
0.539739
0
0.428844
0.41743
0
0.40572
1.58705
0.483522
0.584312
0.557595
0.444722
0.560492
0
0.640189
1.18959
0.14977
0.4787
0.620772
0.557164
0.561988
0
0.414603
1.05452
0.21622
0.416024
1.3584
0.628238
0.520612
0
0.36647
1.24894
0.987587
0.168793
0.950804
1.32309
0.194592
0
0.872405
0.481263
0.178894
0.857061
0
0.332387
0.60591
0
0.487423
0.478427
0.778881
0.308769
0
0.751416
0.585011
0
0.663488
0.58587
0.191462
0.99212
1.52413
0.444264
1.04903
0
0.652489
1.05621
1.36284
1.61033
0.847655
0
0
0.639023
0
1.00162
0.644975
0.920635
0.871769
1.13818
0.861298
0
0.594968
0.350805
0.566299
0.525367
0.700218
1.1802
1.27731
0.518007
0.581542
1.02024
0.819881
1.41536
1.04059
1.75565
0.993281
0.279493
0.871038
0.844581
0.79509
0.912623
0
0
0.114243
0
0
0.676828
0.32745
0.597106
1.00045
0.644878
0.234435
0
0.790808
1.08554
0
0.965005
0.620012
0.440574
0.782075
0
0
0
0.509307
0
0.473545
0
0.951488
0.459154
0.670671
0.307236
0.299966
0.991284
0
0.337856
0.052841
0.813098
0.64938
0
0.949265
0
0
0.69155
1.40353
0.497412
0.395253
0.341409
0.747645
1.23881
0.857152
1.39814
0.360575
0.412122
0.750964
0.887246
1.2187
0.755188
0.980005
0
0
1.17487
0
0
0.881192
1.18314
0.991852
0
0.565075
0.843587
1.03694
0.637411
0.551611
0.29337
1.22053
0.802733
0.949454
0.797072
0.714553
1.22825
1.01818
0.924681
0.68298
0.356049
0.32556
1.6125
1.30678
0.611317
0.910143
1.57629
1.02137
2.52544
1.23639
0
0.367534
0
0.495664
1.74832
0.596742
0
0
0.798411
0.73481
1.53473
0.393524
0
0.515281
1.84405
0
0.563518
0.508479
0
0
0.351716
0
0.306757
0
0.561247
0.649457
0.329198
0.699334
0
0.583545
0
1.01027
0
0.96993
0
0.714955
0.942697
1.05621
0
0.484162
0.16926
0.830521
0.776241
1.08916
1.18342
0.701265
0.622955
0.604801
0.943259
1.30132
0.449376
0.730467
0.42614
0
0.648594
0
0.639505
0.753045
0.947323
0
0.590893
0.849262
0.832039
0.328427
0.878813
0.585607
0
1.06415
0
1.33887
0.428733
0.623402
0.401336
0.980104
1.05872
0.663772
0.673702
0.862034
0.35709
0
0
0.643103
0.798787
0
0.497926
0.279194
0.433009
0.814641
0.588599
1.14157
0.637244
0
0.686921
0
0.210706
0.0691842
0.504522
0
0.736869
0.894097
0.927301
1.09937
0
0
0
1.19408
1.13651
0.555848
1.05982
0
0.731544
0
0.549019
2.13293
0.831326
0.640843
0.708859
0.662417
0.321015
0.758924
0.458748
0.333417
0.836163
0.501981
0.75898
1.09714
0
1.05141
0.655069
0.550395
0.792365
0.478736
0
0
1.11195
0.679439
0
0.830056
0.628701
0.790281
0.812472
0
0.546634
0.459881
0.287766
1.07745
0.780426
0.618421
0.789208
0.908602
0.748033
0.533142
0
1.16479
0.339849
0
0.287469
0.804015
0.591834
0.40295
0.606718
0.331301
0.270105
0.997066
0.852207
0.317852
0.244836
0.164411
0.435529
0.53992
1.28393
0.576715
0.325781
0.93441
0.79942
0
0
0
0.691896
0
0.767124
0
1.10171
0.409693
0.529533
0.513496
0.573881
0.42953
0
0.922456
0
0.670676
0.921502
1.55339
0
0.524691
0.849536
0
0.45941
0.384344
1.07308
0.360361
0.606933
0.477903
1.32117
0.306113
0.259871
0.433457
0.667068
0
0.382741
0.234361
0.585811
0.774823
1.13296
0.407932
0.802873
0.704515
0.498572
0.988502
0.269135
0.244508
0
0.23781
0
0.379625
0
0
0.850045
0.648879
0
0
1.16344
0.403377
0.429192
0.627439
0
1.23581
0.375542
0.501193
0.585313
0.40431
0.373301
0.679053
0.592146
0.533117
0.900905
0.785581
1.35011
0
0.681516
0
0.614977
0.442745
0.417161
0.41505
0.474011
0.834774
0.704116
0.544226
1.04356
0
0.108404
0.0914656
0.802036
0.771958
0.824341
0
0.746537
0
0
0.565022
0.54191
0.613856
0
0
0.699745
0.574188
1.06132
0.658534
0.87896
1.40204
0.469164
0.917821
0.536077
1.03338
0.479441
0.941699
0.707984
1.03644
0.607465
1.10265
0.55256
0
0.411515
0
0.636534
0.197808
0.40997
0.693175
0
0.143536
0.512538
0
0.364479
0.942369
0.478219
0.496659
0
0.662457
0.444905
0.774075
0
0
1.01007
1.04441
0.684706
0.938077
0.736122
0.553017
1.42722
1.76234
0.657913
0.630866
1.19232
1.15419
0
0.722099
0
0
0.428595
0.678058
0.743452
0
0.405771
0.436498
0
0.593929
0.498283
1.50097
0.783382
0.704986
1.08012
0.804085
0
0.232152
0.637872
1.44139
0.434999
1.03952
0.351008
0.302445
0
0.591768
0.257861
1.00392
1.68708
0.514193
0
0.73007
0.705364
1.18916
0.917494
1.23646
0.735501
0.454789
0.502904
0.68719
0.902128
1.19586
0.3689
0.351304
0
0.374234
0
0
0.520586
0
0.565525
1.16329
0
0
0
0.53497
0
0.408048
0.832509
0.476256
0.452716
0.402102
0.542844
0.426988
0.850402
0.689329
0.485044
0.67205
0.613928
0.616744
1.82963
0
0
1.17713
1.01118
0.976123
0.571634
0.570287
0.612637
0.735401
0.7843
1.96849
0.762647
0.710097
1.1065
0.602345
0
0.487741
0
0.393905
0.433827
0.231549
0.286431
0
0.769254
0.567591
0
0
0
0
0.71009
0.242956
0.290981
0.737748
0.586192
0.421457
0.448891
1.09268
0.511489
0.558715
0.130904
0.513058
0.610996
2.44167
0
0.46255
0
0
0.462807
0
0.303036
0.317469
0.371303
0.546811
0
0
0
0.493155
0
0
0
0.414786
0.555119
0.587612
0.437451
0.8673
0.477412
2.36358
0.181197
0
0.508804
0.957475
1.26624
1.08726
0.80196
0.953561
0.385422
0.520343
0.768844
0.533817
0.746016
0.278927
0.379129
0
0.480695
0.740648
0.238259
0.385981
0
0.641781
0
0.470371
0.44284
0
0.922211
0
0.411476
0.93853
0.986185
2.14158
0.893937
0.367941
0.591727
1.62273
0.928943
1.07466
0.825499
0.792608
0.892827
0.735189
0.63157
0
0
0
0.662412
0
0
0.39174
0
0.238574
0.174785
0.408491
0
0.802085
0.393179
0
0.499591
0.679001
0.902571
2.10117
0.898025
1.35884
0
0.642518
1.1539
0.580075
0.548247
0.51968
0.390125
0.228646
0.460962
0.772811
0.610994
0.383145
0.659102
1.18395
1.28514
0.917522
0.583399
0.490985
0.651196
0.606068
0.715642
0.802107
0.528432
0.65983
2.04001
0.395133
0.553104
0.568971
0.48554
1.64297
0.78265
0.565164
0.446667
0.727521
0.64737
0
0.683988
0.383525
0.669602
0.616607
0
0.823301
0.514085
1.08173
0
0.890102
0.960884
0.502083
1.18743
0.52356
0.4561
0.856242
0.302984
0
0.938607
1.44792
0.598903
0
0.637543
0
0.630377
0
0.598196
0.343117
0.954679
1.46004
0.293774
0.472563
0
0.8831
0.346555
0.659287
0.902823
0.869019
0
0.763379
0.698068
1.01068
0.696417
0
0.43959
0.348408
0.746453
0.905134
0.802694
1.06426
0.800775
0.979219
1.31512
0.517197
0.684783
0.30766
0.555685
1.56967
1.7084
0.821523
0.480722
0.389236
0
0.388788
0.180459
0
0.549455
0.210552
0
0
0.370706
0.618114
0.319726
0
0.829732
0
0.673289
0.103725
0
0
0.412577
0.432712
1.73664
1.36434
0.883935
0.455702
0.268693
0.549481
0.300151
0
0.261063
1.40755
0
0
1.09328
0
0.39024
0.418414
0.62957
0.354964
0.54507
0.881809
0.264952
0
0.43227
0
0.172837
0.353291
0.634112
0.627662
0.377227
0.775853
0.44248
0
0.698399
0
0.420031
0.623715
0.34035
0
0.374379
0
0.282293
0.787892
0.487618
0.469093
1.82456
0.491293
1.23274
0.822694
0
0
0.305908
0.299069
0.621189
0
1.5856
0.863819
0.773798
0
0.41041
0.212299
0.72129
0.288182
0
0.820314
0
0.336131
0
2.00001
0.843275
0.270059
0.462742
0.435866
0.697982
0.479592
0.385867
0.600585
0
0.197214
0
0.311574
0
0.534376
0.711512
0.914486
0
0.419946
0.280318
0.423433
0.521282
0.63651
0
0.266665
0.24938
0
0
0.443463
0.232781
0.25746
0.445105
0.348518
0.286296
0.117649
0.3413
0.373991
0.643402
0
0.308499
0
0.4474
0.387859
0.308618
0.416263
0
0.216607
0
0.524462
0.593249
0.533587
0.26749
0.335468
0.738236
0
0
0
0
0
0
0
0
0
0
0
0
0
0
0
0
0
0
0
0
0
0
0
0
0
0
0
0
0
0
0
0
0
0
0
0
0
0
0
0
0
0
0
0
0
0
0
0
0
0
0
0
0
0
0
0
0
0
0
0
0
0
0
0
0
0
0
0
0
2.41693
0.787395
0
0
0
0
0
0
0
0
0
0
0
0
0.555477
0
0
2.5986
0
3.08867
3.35705
5.68415
0
0
1.07246
0.299239
0
0.218399
0
0.204753
0.168516
0
0
0.701219
0
0
0
0
0
0.639954
0.527069
0
0
0
0
0
0.172139
0
0
0
0
0
0.536028
0
0
0
0.891522
0.701974
0
0
0.252745
0.284011
0
0.395779
0.449542
0.430809
0.665634
0.424904
1.29711
1.47648
0
1.48761
2.17606
0
0.483373
0.891956
0
0.734656
0.583825
0.911645
0.932427
1.20736
0
0.621539
0
1.07502
0
0.947431
0.441727
0.942408
0.426753
0.908279
0.203518
0
0.423638
0.369276
0.406469
0.473292
0.461845
0.372962
0.773235
1.1571
0.923128
0.815578
0.608504
0.644531
1.89236
0.712793
0.939811
0.438035
0
1.05782
0
0.255159
0
0.964869
0
0.333752
0.873098
0.556699
0
0.850028
0.808198
0.341113
0
0
1.28925
0.345114
0.185894
1.37904
0.66877
0.481918
0.594311
0.690489
1.72794
1.09056
1.3199
0
0.443185
0
0.739795
0.817496
0.746027
0
0.749711
0.469492
0.433082
0.732528
0
0.616241
0
1.02851
1.01471
1.40148
0
0
0.479998
0.273332
0
0.71094
0.569993
1.1626
0.980492
0.703866
0.784675
0.946463
0.118072
0.65951
0
0.843305
0
0.541709
0.687718
0.380851
0.186419
0.729614
0.992764
0.91286
0.397176
0.761564
0
0.602613
0
0.617626
0.458253
0.848036
2.17579
0.180613
0.151723
0.440418
0
0.057261
0.732235
1.02722
0
1.16807
0.791212
0.854699
1.22086
0.193324
0
1.16663
0.824701
0
0.67725
0.521348
0.676705
1.18773
0.539853
0.86434
0.356119
0
0.445855
0.947803
0
0.405432
0
0.607474
0
0.638326
0.230267
0.829301
1.06688
0.37281
0.282241
0.471035
0
0.416952
0.464572
0.926322
0.198307
1.6733
0.798178
0.403078
0.611832
0.887965
2.27582
1.52718
1.32161
0.86072
0
0.335798
1.05791
0.651763
0.728625
0.800324
1.16247
1.11469
1.39652
0.585079
1.36129
0.951613
0
0
0.743047
0
3.28962
0.976207
0.960875
0.834465
0.384417
0.816298
0.633399
0.56929
0.358262
1.30135
0.796952
1.25129
1.42195
1.45277
0
0.578198
0.574104
1.05194
0.758646
0.516585
1.10698
0
1.74782
1.00639
0.965066
0.995476
0
0.693143
0.549399
0.735821
0.541602
0.756688
0.321327
0.604756
0.870974
1.03075
1.14969
1.13829
2.01413
1.00897
1.16448
0.648071
1.08102
0
0.823251
1.21641
0.103752
0
0.562233
1.30491
0.664771
0.467779
0
0.507044
0.747176
0.57631
1.62953
0.765481
0.645988
0.593088
0
0.426237
1.35091
0
0.701262
0
0.461331
0
0
0.403989
0.555798
1.04522
0.471005
0.717339
1.04796
1.1561
0
0.198231
0.846717
0
0.520565
0
1.11068
0.710613
0.546964
0.500831
0.447663
0.549476
0.2812
0.525727
0.727318
0.598384
0.893569
1.24662
1.04479
1.49427
0.527813
0
0
0
0.448119
0.829175
0
0.974954
0.62572
0.719906
0.46901
0.557355
0.220528
0.490138
0.321519
0.799387
0.439249
0
0.449196
0
0.713935
0.600591
0.755585
0
0.237926
0.409652
0.403073
0.90225
0.341697
0.637433
0.524995
0.618126
0
0
0.888624
0
0.859639
0.652125
0.511754
0.348479
0.635415
0.506036
0.513403
0.641869
0.510138
0.294807
0.391301
0
0
0
0.513978
0.737434
0.668885
0.564275
1.20545
0
1.07112
0
0.35876
0.290535
0.439827
0.637786
0.566229
1.21103
0.986766
1.35053
0.702904
0.799332
0.715678
0
0.597849
0
0
1.61012
0.912455
0.368249
0.927966
1.83346
0.953177
1.39019
0
0.405588
0.890795
0.770344
0.792352
0.339351
0.452016
0
0.715305
0.681364
0.75635
0.471431
1.53542
0.211
1.51872
0.908308
0.428344
1.21776
1.1363
0.497915
0.538597
0
0.430039
0.610486
0.874957
0.805469
0
0.500658
1.04357
0.496984
0
0.417732
0.505171
0.848472
0.788913
0.933855
0
0.167773
0.458163
0.373524
0.469528
0.495368
0.747012
0.628457
1.04258
1.25645
1.0899
0.489367
0.721046
0.745965
1.46936
0.546945
0.337029
0.285
1.15232
0.64715
0
0.495228
0
0.353261
0.417218
1.06749
1.04766
0.925027
0.942652
0
0.328337
0
0.63805
0.760435
0.802847
0.558913
0
0.550723
0.919806
0.672275
0.648977
1.24822
0
0.55592
0
0.641855
0
1.34741
0
0.338711
0
0.673932
0
0
0.749848
0.373976
0.699513
0.536532
1.40733
1.05941
1.41355
0.549189
0.644023
0.499177
1.37682
0.703581
1.11273
0.481103
0.812962
0.866323
0.509933
0
0
2.26477
0
0.956516
0.572568
1.14813
0.473821
0.879427
0.805656
0
0.721495
0
0.624918
2.11137
0.581522
1.66588
0.637608
0.857435
0.614944
0
0.500101
2.19471
0.783104
0.515161
0.294231
0.781559
0.797135
0
0.602935
1.88454
0.561742
0
0
0.796227
0.808752
0.342965
0.356167
0.51656
1.30533
0.874528
0
0.55154
0.846796
0.228111
0.780888
0.730597
0.403224
0.58558
0.472503
0.57742
0
0.300584
0.639942
0
0.555186
0
1.12398
0
0.159247
0.900376
0.411072
0.538806
0.364102
0.175704
0
0
0.213938
1.24667
0.915887
0.713612
0.746666
0.587152
0.630772
0.359794
0.479904
0.636158
0.757164
0.815276
0.765158
0
0
0
0
0.105009
0.713976
0.365573
0.775292
0.569417
0.320375
0.221372
0
0.598108
0
0.331378
0
0.550675
0.538469
0.331797
0.454162
0.624507
0.464649
0
0.38928
0.580874
0.493404
0.479287
0.838798
0
0.552081
0.633492
0.755406
1.20557
0.488142
0.74803
0.52809
0
0.797392
0.796893
0.324199
0.676132
0.582605
0.31301
0.680762
0
0.337203
0
0.523468
0
0
0.392562
0
0
0.395948
0
0.357395
0.463907
0.477256
0.304465
0.489314
0.874991
1.28017
0.495952
1.30619
0.797601
0
0.553046
0.447696
0
0.572053
0.26813
0
0.716698
0
0
0.262012
0.183712
0.721763
0.440646
0
0.36738
0.346399
0
0.416594
0
0.254517
0.574068
0
0.586595
0.872202
0.324013
0
0.919732
0.549175
0.795536
0.790656
0.725267
0.114408
0.574379
0.421217
1.15113
0
0.535126
0.504909
0.749427
0.334312
0.262524
0
0
0.432594
0
0
0.326967
0
0.471999
0.446263
0.406794
0
0.931068
1.95435
0.411768
0
0.900159
0
0
0
0.375627
0.767746
0
0.269942
0.251677
0
0.678647
0.395399
0.832478
0
0.452234
0
0
0
0.933881
0.654865
0
0.853142
0.287193
0
0.361093
0.285448
0
0.450636
0
1.31271
1.558
0.978598
0.430101
0.514283
0.418569
1.13119
1.1631
0.571628
0.236521
0.351619
0.916497
0
0
0.997676
0.412385
0
0.449946
1.02675
0.515483
0.624012
0
0.42484
0
0.599365
0.350426
0.649158
0
0.490791
0
0
0.831419
0.955864
0.750454
0
0.429945
0.531326
0.836771
1.07691
0.562189
0.804566
0.732529
1.15916
0
0
0
0.440153
0.868111
0.505831
0
0.270472
0.306669
0.627657
0.317692
0
0.4806
0.496421
0.709136
0.683334
0
0.898165
0.383571
0
0.42096
0.731877
0.380043
0
0.465139
0
0.834789
0.669043
0.664139
0.543073
0.545186
0.869841
0.662915
0.54633
0.505249
0.204752
0.480641
0.358792
0
0.922779
0.853635
0.421816
0.363476
0
0.229251
0.590706
0.349082
0.955369
0.683808
0.842996
0.912465
0
0.481896
0.542107
0.439406
0
0
0.552703
0
0.54227
0
0.539324
0
0.268422
0.739827
1.31456
0.104635
0
0
0.432755
0.58792
0.452369
0
0.428729
0.323942
0.664308
0.554033
0.359503
0
0
0.0883291
0.29765
0.421638
0.24862
0.519573
0.518274
0.417457
0.372278
0
0.399704
0.496957
0.461815
0.697412
0
0.363813
0
0.396989
0.622897
0.420756
0
0
1.44043
0.788687
0
0
0.26515
0
0.523476
0
0.758189
0.399532
0.0722751
0.355768
0.21742
0.668628
0.737535
0.446375
0.714372
0.451195
0.703351
0.338156
0.182614
1.0158
0.318257
0.595823
0.446963
1.03793
0
0
0.532436
0.260188
0.280317
0.660982
0.488081
0.465187
0.505661
0.770919
0.610982
0.528214
0
0.775121
0.813966
0.696389
0.501491
0
0
0
0
0
0
0
0
0
0
0
0
0
0
0
0
0
0
0
0
0
0
0
0
0
0
0
0
0
0
0
0
0
0
0
0
0
0
0
0
0
0
0
0
0
0
0
0
0
0
0
0
0
0
0
0
0
0
0
0
0
0
0
0
0.339583
0.414084
0
0.565603
0.331175
0.769668
0.729303
1.04082
0.219782
0.47496
0
0.444755
0.456503
0
0.423911
0.674336
0.242797
0.43754
1.15878
0.600407
0.583507
0.970247
0.54436
2.50306
0.532928
0.61267
0
0.616096
0.527631
0
0.468001
1.14937
0.328291
1.66589
0
0.38471
0.933609
0
0.388954
0.998763
1.67656
0.301136
0
1.54563
0.351915
0
0.508991
1.11411
0.351391
0.638437
0
0.629765
1.79299
1.8736
0.566931
0.979734
1.99241
0.047531
0
1.66673
0.543468
0.7469
0.956227
1.01688
0.369196
0
0
0
1.01388
0
0.843682
0.066339
0.532744
0.411352
0.556116
1.14231
1.60089
3.27154
0.910604
0
0.567669
1.06572
0.661618
0.513164
1.3427
0.378976
0
0.887907
0.73419
0
0.99412
0.681282
1.59407
1.36824
0.602075
0.670002
0.819523
0
0.389117
0
0
0
0
1.15513
0.797183
0.540253
0.990114
0
0
0.782076
0
0
1.73439
1.03635
0.939939
0.741036
0.978353
0
0
0.622233
0.42803
0.311192
0.741776
0.5766
0.709324
0.709317
0.75554
0.705394
0.27471
0.846424
0.753216
1.47121
3.21381
0
2.13833
1.02908
0
0.828515
1.87878
0.733927
0.814806
0.517587
0.628385
0.906052
1.50818
0
0.661098
0.491201
0.328913
0.576836
0
0.477248
0
0.85224
2.57287
0.679673
0
0.64151
0.942673
0
3.31469
1.37246
0.766108
1.05076
1.56971
0.951654
1.0491
0.864118
0.887294
0
1.02607
0.720107
0.439454
0.557362
0.610134
0
0.481202
0.583829
0.349146
2.20387
0.643024
1.28144
0
1.54774
0.873962
0
1.06108
0.308871
0.306144
0.833569
0.596813
0.713046
1.21293
1.39641
0.699934
0
1.17271
0.385895
0.661649
0.247734
1.68603
0
0.386665
0.569504
0
0.753055
1.0244
1.1435
0.870046
0.443413
0.80737
0.488329
0.243331
0.431568
0.819993
1.34415
0
0.612409
0.59719
0.55609
0.345788
0.441859
0.718933
1.41058
0.382207
0.670903
0.599407
0.680106
0
0.371373
0.510602
1.41692
0.613855
1.70371
1.83221
0
0.525497
0.781982
0.318545
1.80568
0.5191
0
0.922221
0
0.793977
0
0.46825
0
1.33922
0.74695
0.377233
0.738991
0.635541
1.00859
1.93375
0.31563
0.830294
0.798955
0
0.966873
0.651371
0
1.17217
0.379258
0.320396
0.518796
1.60744
1.15184
0
0
0
0.50352
0.574618
0.779434
0.295977
0
0
0.456897
0
0.553499
0.690835
0
0
0.385387
0
1.52674
1.29014
0
0.917807
0.337616
0
0
0
0.80847
0.9323
1.1174
0.438435
0.52208
0.928073
0.864774
0.800365
0.917624
0
0
0
0.735001
0
0.496445
0
0.37281
0.653629
0.54068
0.619766
1.14221
0.518601
0
0.763839
0.517089
1.05202
1.39213
0.559996
0.177097
0.616419
0.530865
0.253745
0.336673
0.120833
0.604345
2.63643
1.11199
0.72436
0.805436
0.346009
0.474218
1.16131
1.15449
0.549659
1.03265
0.576776
0
0.699858
0.371353
0.482503
0
0
0.581276
1.1866
0.644905
0
0.633071
0.733916
1.41378
0.610623
0.688261
0
0
0.69664
0.597449
0.610785
0.776779
0.724696
1.75281
0.490924
0.919774
1.00481
0.810768
0
0
0.549534
0.506885
0
0.506544
0.228598
0.437517
0.260484
0.512854
0
0.671548
0.723838
0.300908
1.07956
0.499726
0.450056
0.64989
0
0.330117
1.26568
0.466912
0
0.547525
0
0
1.22443
1.10805
1.11003
2.01588
0.42852
0
0.668951
0.722058
0.680276
0.383071
0.82798
0.381879
0.589129
0.431578
0.909002
0.213282
0.632749
0.560053
0.538373
0.517649
0.736733
0.453444
0
0
0
0
0.174706
0.509517
0.261365
0.815631
0
0
0
0
0
0.731931
0
1.18119
0.433742
0
0.558011
0.698446
1.28314
0.771714
0.958159
0.928744
1.31531
0.776082
0.55546
0
0.959846
0.895594
0.591187
1.01989
1.22888
1.36786
0.582621
0.501866
0.924183
0.928648
0
0.635554
0
1.21365
0.449436
1.02574
0.161807
0.942277
0.743554
0.52096
0.502521
0.375764
0.566958
0
0.595085
0.623506
0.752878
0
0.608132
0
0.348139
0
0
0.830939
0
0.692701
0
0
0.792759
0
1.32994
0
0
0.422489
0.507173
0.410193
0.653829
1.31671
0.85408
0
0.40508
0
0.709187
0
0.535002
0.36766
0
0
0.859904
0
0
0
0
0.450532
0
0.285886
0
0.689551
0.250671
0.466062
0.411094
0.81194
1.31016
0.572055
0.399562
0.450552
0.751645
1.18555
0.700672
1.16913
1.18027
0
0.578802
0.592194
0
0
0.541004
0
0.536432
0.878833
0.491769
0.35241
0.427627
0
0.296463
0.693398
0
0.58826
0.628487
1.24922
1.13476
0.544212
0
0.583829
0
1.16362
0
1.01148
0.639508
0.757704
0.599489
0.32312
0.90477
0.685118
0
0.620034
0.19221
0.257843
0.24662
0.641198
0
0.443267
1.37681
0.805239
0.474572
0.94249
0
0
0.651015
0
0
0.486738
0
0.518893
0.761351
0.457317
0.343119
1.0935
1.15431
0
0
0.480718
0
1.15571
0.833706
0
0.85396
0
0.501632
0
0.54078
0
0
0.499064
0
0.805154
0
0.680759
0.867734
0.647775
0.663178
0.904549
0.462871
0.464424
1.16548
0.510568
0.344116
0
0.585275
0.464957
0.517045
0.998872
1.47472
0
0
0.775196
0.669283
0.52079
0.73895
0.997359
0
0.636581
0
0.609518
0
0
1.0974
1.39698
0.846123
0.523726
0.806503
0
0.447049
0
0
0
0.619048
0
0
0
0
0
0
0.935549
0
0
0.299954
0
0.505044
0
0.354861
0.608484
0.978118
1.7438
0.840461
0.318946
0.615188
0.468636
1.24163
2.34266
0.858149
0.960061
1.25603
0.2627
0.168432
0.632226
0.580782
0.727729
0.48945
1.0226
0.334265
0.725813
0.356916
0.235785
0
0
0
1.15773
0
0.496912
0.401547
0.751601
0.623932
0
0
1.23032
0.927468
0
1.43025
0.757048
0.493344
0.701681
0.808346
0
0.259571
1.16017
0.265124
0.513929
0.830364
0.513324
0.738168
0.688356
0
0.576826
0
0.440795
1.18723
0.630446
0.707053
0
0.620045
0
0.388813
0.150334
0
0.664019
0
1.23059
0.790509
0.835899
0.370858
0.204855
0.95625
0.308955
0.398975
0
0
0.607982
0.968028
0
1.07556
0.649179
0.387227
0.482117
0.841855
0
0
0.866352
0.205099
0.465082
0.362592
0
0.614574
0.392166
0.643145
0.998032
0.494788
0.830744
0.732876
0
0.471871
0
0.263498
0
0.382973
0.839637
0.358115
0.496393
0.391069
0.2305
0
0.710853
0.196683
0.441102
0.935859
0
0.44549
0.563279
0.301081
0.388936
0.59572
0.517902
0.616495
0.333862
0
0.199546
1.30228
0.310302
0.601134
0.945422
0
0.602813
0.162458
0.308864
0.469266
0.544787
0.0599751
0.365254
0
0.495394
0
0.443394
0.520971
0.613502
0.562865
0
0.369208
0
0.364675
0.224195
0.580203
0.718378
0.649619
0
0.739129
0
0.479074
0.456944
0
0
0
0
0
0
0.347919
0.348791
0
0.686991
0
0.639532
0.423963
0.253561
0.517969
0
0.391601
0
0.146938
0
0.470725
0.531625
0.261698
0.908459
0
0.386651
0
0
0.461975
0.399602
0.488689
0.753645
0
0.515919
0
0.320768
0.732627
0.986488
0.315352
0
0.746356
0
0.863735
0
0.504293
0
0.554615
0.971432
0
0.669926
0.419932
0.430465
0
0.712552
0
0.758736
0.372281
0.808918
0.478395
0
0.242918
0.306852
0.548418
0.465913
0
0.294061
0
0.516923
0.530036
0.420667
0.425933
1.04533
0.668431
0.547416
0.710187
0
0.506634
0
0.388121
0.27847
0.309943
0
0
0.149851
0.283981
0.777428
0.705371
0.414591
0.432185
0.692534
0.42121
0
0
0.479244
0
0.343364
0.321288
1.13317
0.392384
0
0.62358
0
0.542643
0.53519
0.545348
0.718275
0.525002
0.321603
1.35453
0.314205
0.464085
0.33991
0
0
0
0.436075
0.338886
0.425846
1.28932
0.443645
0
0.273644
0
0.88232
0.328615
0
0
0.363089
0.633236
0.449445
0.351102
0.432359
0.549224
0.373682
0.632494
0
0.706403
0.812672
0.609225
0
0.505818
1.03359
0.787132
0
0.413146
0.116743
0.468276
0.581299
0
0
0
0
0
0
0
0
0
0
0
0
0
0
0
0
0
0
0
0
0
0
0
0
0
0
0
0
0
0
0
0
0
0
0
0
0
0
0
0
0
0
0
0
0
0
0
0
0
0
0
0
0
0
0
0
0
0
0
0
0
0
0
0
0
0
0.314857
0.422055
0.679709
0.610719
0.731633
2.37815
0.548946
1.47239
0.526885
0.381159
0.739559
0.651094
0.369439
0
0.620219
0.65643
0.199439
0.400538
0
0.473497
1.05569
1.12798
0.423655
1.17359
0.464418
0.474747
0.86366
0.46456
0.382941
3.81371
0.525702
0.628775
0.678576
0.188483
0
0.605729
0.243404
0
1.30993
0.371168
0.107419
0.851437
0
0.591241
0.306036
0
0.547513
0
1.11887
0.688974
0
0.808285
0.512389
0.196389
1.53634
0.617711
0.140481
0.367445
0
0.118092
0.781175
0
0.18504
0.720256
0.585728
0.387198
1.09375
1.4309
0
1.01413
0.995794
0.16934
1.5151
1.19119
1.48423
0.687656
0.881656
0.523149
1.65815
1.16783
0.965265
0
1.01162
0.550823
0
0.383531
0.94075
0.747253
0.544337
0.458784
0.320158
0.344863
0.658202
0.650587
0.613504
0.322175
0
0.196964
0.884127
0.282727
0.469111
0.854826
0.693552
1.04805
0.32626
1.43838
1.86598
0
1.44323
0.679325
0
0.404196
0.920318
0.777142
0.605871
0.365034
0
0.970258
0.928107
0
0.666101
0.183683
0.703381
1.27225