<?xml version="1.0"?>
<VTKFile type="RectilinearGrid">
<RectilinearGrid WholeExtent="0 32 0 32 0 32" Origin="0 0 0" Spacing="1 1 1">
<Piece Extent="0 32 0 32 0 32">
<PointData>
</PointData>
<Coordinates>
<DataArray type="Float32" format="ascii">
0 0.524874 1.04975 1.57462 2.0995 2.62437 3.14924 3.67412 4.19899 4.72386 5.24874 5.77361 6.29849 6.82336 7.34823 7.87311 8.39798 8.92285 9.44773 9.9726 10.4975 11.0224 11.5472 12.0721 12.597 13.1218 13.6467 14.1716 14.6965 15.2213 15.7462 16.2711 16.796 
</DataArray>
<DataArray type="Float32" format="ascii">
-5.03879 -3.62163 -2.20447 -0.787311 0.629849 2.04701 3.46417 4.88133 6.29849 7.71565 9.1328 10.55 11.9671 13.3843 14.8014 16.2186 17.6358 19.0529 20.4701 21.8872 23.3044 24.7216 26.1387 27.5559 28.973 30.3902 31.8074 33.2245 34.6417 36.0588 37.476 38.8931 40.3103 
</DataArray>
<DataArray type="Float32" format="ascii">
0 0.524874 1.04975 1.57462 2.0995 2.62437 3.14924 3.67412 4.19899 4.72386 5.24874 5.77361 6.29849 6.82336 7.34823 7.87311 8.39798 8.92285 9.44773 9.9726 10.4975 11.0224 11.5472 12.0721 12.597 13.1218 13.6467 14.1716 14.6965 15.2213 15.7462 16.2711 16.796 
</DataArray>
</Coordinates>
<CellData>
<DataArray type="Float32" Name="Scalar" format="ascii">
0
0
0
0
0
0
0
0
0
0
0
0
0
0
0
0
0
0
0
0
0
0
0
0
0
0
0
0
0
0
0
0
0
0
0
0
0
0
0
0
0
0
0
0
0
0
0
0
0
0
0
0
0
0
0
0
0
0
0
0
0
0
0
0
0.183959
0.407095
0
0.355791
0.325488
0
0.526562
0.977284
0.185416
0.309768
0
0.328951
0.3023
0
0.237393
1.04995
0.178376
0.384449
0.926036
0.338349
0.398235
0.741667
0.411875
1.23876
0.165398
0.262774
0
0.239459
0.562926
0
0.185299
1.63535
0.0533709
0.917335
0
0.197363
0.768886
0
0.408709
0
0
0.383918
0
0.342365
0.0216991
0
0.589449
0.577456
0.0650377
0.70771
0
0.196298
0.919597
0
0.239949
0
0.949892
0.29527
0
2.10724
0.2934
0
0.963545
0.304228
0.675665
0.601679
0.598591
0.787283
0
0
0.679034
1.06147
0.465385
0
0.630197
0.776853
0
0.971554
0.465138
0.531894
0.543007
0.72436
1.02933
1.3518
0.71868
1.09022
0.775129
0.564979
0
0.937448
0
0.757064
1.54589
1.50282
0.856746
0.854009
0.77267
1.32982
0.87623
0.755046
0
0.854203
1.19062
0.846147
0
1.14974
0.215328
0.559199
0.627122
0.431932
0.587033
0
0.692021
0.39208
0
0
0.916018
0.456359
0.594262
0.541061
0.405537
0
0.625555
0.739567
1.32576
0.86714
1.21963
0.713135
0.489593
0
0.490123
0.611863
0.870321
0
0.936978
1.40008
0.496121
1.58231
0.992943
0.404499
0
0.472907
0
1.92078
1.57592
1.81622
0.85832
0.248238
1.51805
0.771264
0.211096
0
0
0.757417
0
1.32262
0.396764
0.670072
0
0.69376
0
0.558719
1.06382
3.38696
1.13905
0
1.08098
0
0.341793
0.823555
1.35899
1.27614
0
0.47429
0.502551
0.728548
0
0.519352
0.581609
0.366287
0.775828
0
0
0.63579
0.68739
0
0.421416
0
0.392093
0
0.54276
0.391913
0.622297
0.374298
1.62616
2.09567
1.67581
0
1.23419
1.14783
0
0.909433
0
0.631047
0
1.5588
1.24455
0
1.43484
0.895999
0
0
0.374664
0.535824
0.599992
1.12541
1.22854
0
0.846787
0.616856
0.910114
0.372708
0.799428
1.48091
0.378932
0.279236
0.485732
0.763784
0
1.44798
1.48092
1.65807
2.52864
0.776946
0
0
0
0.788
0
0.530745
0
0.858435
0
0.266875
0.573478
0
0.464206
0.778908
1.03254
0
1.0506
0.841061
0.785108
0.925908
0.601856
0.43447
0.821907
1.18151
0.82898
0.713974
0.848991
0.853422
0.343861
0.6479
0.341473
0.629261
1.96729
2.03061
1.09167
0.911455
3.02104
0.772318
0
1.49395
1.18705
0
0.544353
0
0.421991
0
0
1.35003
1.02536
0.939491
0
0.951667
1.42349
0.579056
1.17959
0.808064
1.38421
2.3871
0
0.484555
0
0.760513
1.26388
0.585421
0.253863
0.893622
0.519699
0.70237
0.497541
0.161603
0.0111104
1.12389
0.644014
0.616274
0.868294
0
1.33832
0.389699
0.448648
1.07147
0.479588
0.271053
0.889884
0.192153
2.7348
0.800854
1.15585
0.593333
1.00415
1.01405
0.820219
1.32091
0.474612
0
0.443525
0.454823
0.907146
0.564422
0.278483
0.693879
1.35137
0
0.730956
0
0
0.806199
0
0
0.66006
0
0.236182
0.314613
0.746535
0.756095
0
0.552
0
0.876204
0.80874
0
0.491218
0.503922
0.444577
0.573699
0.600475
0
0.596499
0
0.201982
0.876329
0.743359
0.734121
0
0
0.890653
0
0.617082
1.20261
0.331847
0.715803
0
1.22575
0.320986
0.360708
1.57599
1.13246
0.856701
0.590725
0.760991
0.963159
0.503245
0
0.622573
0
0.766923
0.726567
0.917051
0.92256
0.404051
0
0.991339
0.509415
0.699657
0.116134
0.704527
0
0.794176
0.56618
0
0.61272
0.286304
0.749522
0.907071
0
0.789868
0
0.924373
0.518649
0
0
0.697565
2.73656
0.857752
0
0.798611
0.603717
0.81454
0.72095
0.687993
0.328702
0.447396
0.615142
0.884266
0.96474
0.834292
0.562675
0.138818
1.25196
0.374536
0
0.360601
0.557185
0.60881
0
0.623356
0
0.402516
0.487312
0.345091
0.686785
0.702414
0.522181
0.756025
0.967309
0.614504
0.843578
0.900036
0.392585
1.07882
0
0.524677
0
0.444368
0.967791
0.332291
0.459682
0.783884
1.9672
0
0.368997
0
0.355951
0
0.387023
0.333938
0
0.845776
0
0.577612
0.627737
0.76116
0.660932
0.222582
0.323359
0.638208
0.821892
0.546142
0.277377
0.774907
0
0.409766
1.27312
1.01357
0
0
0.689661
0.615793
0.932195
0.29253
0.25114
0.63322
0
0.521842
0.645851
0.671578
1.05593
0.371612
0
0.503174
0
0.928454
0.480854
1.23936
0
0.278277
0.288725
0
0.747739
0
0.540128
0.516145
0.5045
0
0.864099
1.16674
1.53585
0.983525
0
0.452205
0
0.252023
0.47223
0
0
1.35495
1.15911
0.418552
0
0
0
0
0
0.583134
0.866825
0.374277
0.387121
0.64923
0.805777
0.329489
0.967077
1.52437
0
1.09729
0.306652
0
0.566633
0
1.11758
0.587011
0.664242
1.48124
0
0.42797
0.547733
0.368619
0.759964
0
0
0.722633
0
0.811016
0.894038
0.909697
1.10617
0.525126
0.360334
0.405259
0.647369
0.425133
0.646836
0.537603
0.724067
0.973879
0.551998
0.391505
0.830125
0
0.691357
0
0.533849
0.869875
0
0
0
0
0.921306
2.436
0.412232
0.538655
0.463883
0
0.458279
0
0.218454
0
0.497406
0.57142
0.744113
0.129049
0.548803
0.615471
1.15479
0.615224
0
0.694973
0
0
0.630634
0
0.598271
0.610648
0.579881
0
0.889827
0.509943
0.318491
1.04978
1.31935
0.785541
0.625966
0.934552
1.07056
0.776216
0.861099
0.784793
0.517751
0.613446
0
0.637875
0
0
0.790188
0
0.137596
0
0
0
0.807001
0.253667
0.525101
0.351112
0.530196
0.922468
0.974518
0.186086
0.490528
0.60367
0.480078
0.704108
2.09893
0.484119
0.803485
0.351167
0
0.50119
1.71219
0.647539
0.839528
0.689235
0.228151
0.300402
1.00589
0.306833
0
0
0.329297
1.09975
0
0.434784
0
0.604054
0.172611
0.655502
0.439295
0
0.75735
0.500772
0.438294
0
0.327497
0.277308
0.825186
0.810167
0.399127
0.226072
0.429135
0.14567
0.742532
0.678044
0
0.413255
0.543506
0.483587
0.528611
0.50141
0
0.493336
0.661226
0.411535
0.724403
0.414066
0.459764
0.497082
0.582532
0.522595
0.292826
0.0616205
0.440657
0
0
0
0.212823
0.797532
0
1.82802
1.24964
0.638604
0
0.527434
0.500558
0
0.652868
1.23932
0.485719
0.717673
0.631102
0.689342
0.871707
1.0043
0.169065
0.452899
0.351336
1.14245
0.456076
0.770162
0.191831
0
0.237834
0.643673
0.507703
0.512552
0.397791
1.33688
0.687849
0
0.730675
2.6674
0.936696
0.550814
0.676668
0.566929
0
0.392882
0
0.66911
0.224191
0.673488
1.03599
0.386807
1.01787
0.604992
0.538982
0.895173
0.733638
0.204599
0
0.745787
0
0
0.488407
0
0.493243
0
1.52792
3.33648
0
0.616041
0
0.438497
0.420867
0.607765
0.35606
0
0.531689
0
0.576149
0
0.634774
0
0.489424
0.453399
0.502955
0.658762
0.211767
0.698669
0.596088
0.651761
0.629915
0.725036
0.586098
0.589584
0
0.329193
0.419346
0.42438
0.677138
0.714728
0
0.327057
0.555613
0.995978
1.09396
0.431609
0.0422828
0.484087
0
0.828523
0.82868
0.43044
0.501632
0
0.193739
0
0.429958
0.463661
0
0.766864
0.527485
0
0
1.72787
0.589598
0.812777
1.16864
0
0.648853
0.687454
1.00375
0.395042
0
0.839965
0
0
0.316464
0.941436
0.541839
0.994946
0.601895
0.0643804
1.03095
0.739518
0.357522
0.231772
0
0.406932
0
0.77822
0.393907
0
0.383092
0
0.454117
0.632991
0.743278
0.469055
0.345533
0.426328
0.21068
0.278759
0.477006
0
0
0.147295
0
0.460217
0.307917
0
0.440882
0.143069
0
0.781379
0.492019
0.441651
0.407836
0.199741
0.496279
0.809344
0.85232
0
0
0.267923
0.42852
0.307909
0.531711
0.688993
0.195972
0.23427
0.619748
0.324003
0.756985
0.377017
0
0.728376
0.622141
0
0.71992
0.713098
0.396633
0
0.455256
0
0.525346
0.868
0.754366
0.645728
0.761932
0.586531
1.21445
0.789326
0.502517
0.735394
0.838257
0.920077
0.529425
0
0.546383
0
0.407417
0.381281
0
0
0.879802
0.767112
0.410049
0
0.497426
0.568707
0.417673
0
0.429166
0.307566
0
0.643897
0.912352
0.443762
0.620767
0
0
0.248258
0.6392
0.718861
0
0
0.171281
0
0.342963
0
0
0
0
0
0
0
0
0
0
0
0
0
0
0
0
0
0
0
0
0
0
0
0
0
0
0
0
0
0
0
0
0
0
0
0
0
0
0
0
0
0
0
0
0
0
0
0
0
0
0
0
0
0
0
0
0
0
0
0
0
0
0
0
0.402608
0.59386
0.557765
0.44642
0.910448
2.31646
0.434494
0.941091
0.344602
0.581353
0.346027
0.677319
0.468523
0.382486
0.387262
1.41031
0.423606
0.500894
1.48143
0.637408
0.638326
2.02463
0.29279
1.06873
0.303605
0.57754
0
0.428342
0.601993
0
0.416115
1.33847
3.02866
0.418258
0
1.02403
0.726567
0
0.704132
0.943602
0.239246
1.07794
1.9763
0.758766
1.13208
0
0.228605
0
0.630493
0.284878
2.09448
2.91674
0.26163
0
0
1.52318
0.546195
1.35498
0
0.515854
1.36569
0
0.204545
0.691425
0.602215
0.907957
1.23356
1.10604
1.03985
0.820853
1.17539
0.758378
0.833196
1.00802
0.436579
0.389067
0.511303
0.647649
0
0.666456
0
1.52497
0.610755
0.901474
0
0.433446
1.05968
1.06939
0.520107
0.477963
0
0.494755
1.28872
0.854575
4.04091
0.701067
0.538971
0.995058
1.06133
0.554876
2.29358
0
1.12608
0
0.595553
2.15211
0.790307
0
0
0.276375
0
1.24919
1.79321
0
0.338735
1.3929
1.02438
0
0.499019
0.689341
0
1.17948
0.295115
0.64407
1.06282
0
1.04124
0.964695
0.217698
0.380223
0
0
1.18156
0.156966
0.855354
0
2.31174
0
0.985737
2.96293
0.810991
1.54154
1.3808
0.735556
0.941381
0.686016
0.497125
0.283047
0.648179
0.69567
0.920385
0
0.771065
0.784235
0.752195
0.875699
1.05574
0
0.495672
0
0.828047
0
0
0.69853
1.51078
0.454663
1.18848
0.182855
0.980879
0.939522
0.638015
0.220542
0.800258
0
0.567531
2.17215
0.515019
0.99982
1.00798
0.663497
0.373625
0.911612
0.709418
1.59027
0.577553
0.492488
0.771118
0.826514
0
0.795384
1.09574
0.595042
1.87792
0.867752
0.833144
0
4.13153
1.02165
0.730821
0.66495
0.781673
0.470091
0.487218
0
0.477458
0.931013
0.592074
0.501457
0.404882
0.573506
0.352778
0.676661
0.388061
1.02873
0.629227
1.74095
1.11029
0.525384
0.613498
0.568177
1.00582
0.961999
0.484576
0.734893
0.544095
0
0.647054
0
1.11994
0.744449
0
0.582262
0
0
0.436327
0.338509
0
0.564258
0
1.03998
1.42485
1.35591
0.754357
0
0.845042
0.746064
0.801918
0.524341
0
0.609495
0
0.738254
0.829648
1.32487
0
0.268371
0.273798
1.10092
0.184406
0.515038
0.663078
2.13855
0.829738
0
0
0.754127
0.55875
0.887849
0.942286
1.50367
0.946893
0.928461
0.710005
0.533658
0.901181
0.633903
0.997758
0.429733
0
0.685058
1.10855
1.20435
0
0
0
0.637713
0
1.41854
1.03081
0.491662
0.223852
1.21368
0
0.448527
0
0.770454
0.0722488
0
0.3264
0.581009
0
0
0.787099
0.494749
0.817716
0
0
0
0.581439
0.824663
0
0.208286
0
0
0
0
0.712885
0.488734
0.457651
0.649084
0.665058
0.681647
0.81284
0.863652
0.387307
0.810054
0.83723
0.374726
0.468611
0
0.413253
0.868726
0.234305
0.734642
0.503623
0
0.546051
1.58505
0.778357
0
0.545211
0
0.693939
0
0.431646
1.12807
0.272744
0
0.909162
0
0.61848
0
0.82735
0.59241
0.495551
0.65383
0
0.597337
0.669792
0
0.721459
0.637929
0.577912
1.00751
0.585944
0.472098
0.508177
0.491312
0
0.892748
0
1.30845
0
0.923166
0.238418
0.330885
0.222599
0.275272
0.59657
0.546207
0.536752
0.708369
0.453564
0.84652
0.725543
0
0.649857
0.572456
0.518028
0.728277
0.756972
0
0.412919
1.1852
0.388165
0
0.550894
1.08252
0.493033
0.931803
0.986638
0.595397
0.516952
0.611435
0
0.418788
0.761991
0.403601
0.675072
0
0
0
0.617058
1.18711
0.569717
1.10925
0
0
0.190133
0.66798
0
0
0.677021
0.723138
0.527071
0.463758
1.07246
1.37594
0
0
0.602987
0.570172
0.563165
0
0.310896
0.411894
0
1.61264
0.95892
0.561623
0
0.253723
0.661248
0.435407
0.489643
0.245923
0.671493
0.716191
0
0.959817
0.902346
1.51843
1.09645
0
0
0
0.728262
0
0.572879
0
0.31455
0
0.708462
0
0.69996
1.34678
0.40021
0
0
1.00645
1.05473
0.326188
0.653857
0
0.801871
1.31224
0
0
0
1.29365
0.494783
0.684633
1.35145
0
0.371141
2.36857
0.501689
0.664528
0.930211
0
0.272685
0
0.827213
0.396219
0
0.538679
0
0
1.18559
0.352325
0
0.664355
0
0.382925
0
0
0
0.962887
0.856184
0.625858
0.16239
0
0.524272
1.04737
0
0
0
0.502979
0.328327
1.67172
1.14416
0.700099
0
0.499154
0
0.199043
0.411062
0.401425
1.77827
0.704412
0.689251
0.504254
0
1.14609
0
0.720965
0.373256
0.636955
0.885655
0
0.520269
0
0.661318
0.654877
0.313914
0
1.14185
0.519137
0.57236
0.866914
0.478942
0.38456
0.466581
0.758448
0.608093
0.356369
0
0.430894
0.678449
0
0.51175
0
0
0.726366
0.625806
0.50312
0.920313
0.608503
0.599817
0.667124
0
0
0
0
0.461841
0.274421
0.514987
0.504391
0
1.22449
0.612458
0
0
0.178196
0
0.416413
0
0
1.20535
0.398854
0.951736
0.71169
1.24004
0.587355
0
0.606244
0.714971
0.542434
0.208881
0
0
0.563798
0.340274
0.59423
0.878205
1.05655
1.23723
0.807384
0.749453
0.703513
2.43771
0.465553
0
0.567931
0
1.53681
0.759714
0.928605
0.659558
0.766202
1.23239
3.25346
0.422202
0.264262
0
0.751081
0.32964
0.526467
0.388711
0
0.37018
0.280605
0.586073
0.389233
0.55711
0.668834
1.32084
0.484983
0.335886
0.401019
0
0
0.448553
0
0
0.765289
0
0.933865
0.521589
0.617569
0.58372
0
0.745914
0.881101
0.807754
0.503418
0.809819
0
0.372559
1.44015
0.564785
0
0
0.385507
0.329017
0.81794
0
0.668587
0
0
0.381049
0
0.751699
0
0.643261
0.226661
0.890108
0.344261
0.424206
0.53471
0.435372
0.850195
0
0.251215
0.0995294
0.590834
0
0
0.687983
0.188845
0.630926
0
0.534612
1.1655
0.555069
0
0.616414
0.390839
0.699448
0.30869
0.313051
0
0.87417
0.298751
0.664608
0.170972
0.625282
0.990644
0.822059
0.533113
0.236236
0.403548
0
0.339988
1.12378
0.274357
0
0
0.581112
0.228579
0.729042
0.449234
0.552737
0
0.636121
0.513968
0.532325
0.443933
1.21865
0
0.184198
0
0.776028
0.311149
0.128972
0
0.288933
0.891362
0.889729
0.875679
0.795041
0.605388
0.712109
0
0.443748
0.54666
0.676468
0.304191
0.606661
0.423316
1.36576
0
0.788132
1.94789
1.17308
0
0.656333
0
0.801568
0
1.07589
0.399412
0.539229
0
0.758489
0.357783
0.626115
0.310404
0.855649
0.781401
0.637914
1.15748
2.08029
0.553
0
1.52695
0.977943
0
0.445793
0
0
0
0.594089
0.622542
0
0
0
0.56861
0.931746
0
0.797264
0.802052
0
0
0
0.839573
0.414989
1.78204
0.734655
0.592235
0.830099
1.58633
1.11253
0.472384
0.558646
0.428206
1.22666
0.397845
0
0
0.566091
0.57561
0.219435
0
0.195019
0
0
0.521415
0
0.51544
0.43401
0
0.297851
0
0.544853
0.300437
0.5471
0.557861
0.334888
0.723296
0
0
0.696863
0.9324
1.04587
1.58641
0.810564
0
0
0.394114
0.284946
0.662443
0
0.308908
0.395309
0.573204
0.201734
0.160197
0.786148
0
0.349782
0.768005
0.572001
0
0
0
0.191949
0.474227
0
0.433786
0.746648
0.157389
0.755318
0.441916
0.891348
0.87369
0.747577
0
1.15189
0.947622
0.338258
0.196279
1.26851
0.46897
0.54169
0.509586
0.287303
0.440119
0.284851
0.824455
0.48118
0
0
0.850941
0.554007
0.184023
1.36957
0.215509
0.457508
0.510418
0.316081
0.76951
0.46024
0.67609
0
0
0.432003
0.301285
0
1.22483
0.893149
0.549014
0
0
0.856239
0
0.442193
0
0.516009
0.27587
0.631348
0
0.401526
0
1.03207
1.99017
0
0
0.289069
0
0.569434
0.435352
0
0.789168
0
1.04083
0.222587
0
0.454953
0.670629
0.530414
0.532953
0
0.333405
0.575504
0.661849
0.163978
0.778952
0.329669
0.637359
0.682191
0.390613
0.625554
0.666554
0.55024
0.559031
0.548456
0
0.290988
0.427159
0.34858
0.201393
0.347548
0
0.664859
0.222039
0
1.09838
0.948391
0.705971
0
0
0
0
0
0
0
0
0
0
0
0
0
0
0
0
0
0
0
0
0
0
0
0
0
0
0
0
0
0
0
0
0
0
0
0
0
0
0
0
0
0
0
0
0
0
0
0
0
0
0
0
0
0
0
0
0
0
0
0
0
0
0
0
0
0
0
0
0.549361
0
0.457495
0
0
0
0
2.03211
1.27178
0
0
0
0
0.436013
0
0.961673
0
0
0
0
0
2.72537
0
1.13987
0
0
0.60099
0
0
0
0
0
1.31271
0
0.224081
0
0
0
0
2.50426
0.933654
0
0
1.30273
0.501207
0.668526
0
0.0436189
0
0
0
0
0
0.577935
0
0.790368
0
0
0.884002
0
0.845836
1.06743
0.75725
0.823106
0.241316
0.20059
0.347068
0
0.429378
1.60947
0
0.58339
0.847469
0.741261
0
0.602805
1.73417
0.602176
0.240245
1.33062
0.347602
0.620914
0.528741
0.624935
0
0.59322
0.951904
1.44682
1.84518
0.864957
0.651671
0
1.63256
0.76326
1.33437
0
0.905924
0.508635
0.813676
0.335267
0.746264
0
0.741601
0.907688
1.20018
0.698601
1.68675
0.861149
0.822319
0
0
1.14115
0.87427
0
0.481834
0.830913
0.165794
0.608081
0.777724
0.635068
0.381597
1.14277
0.617033
0.539922
0
0
0.470657
0.51102
0.380159
0.204271
1.23969
0.815889
1.21506
0.554149
0.781842
0.299729
0.129245
1.25945
0.971383
1.32705
0
0.699717
0
1.13751
1.22103
0.569585
0.358277
2.25152
0.625036
0
0.569414
0.427561
0.454298
0
0.826752
0.786105
1.48621
0.165612
0.576398
0.764824
0.442929
1.24062
0
1.01658
0
0.953987
0
0
0.555009
0.827448
0
1.27647
0
1.12154
0
1.06163
0.494086
0.690468
0.365287
0.887719
0
0.403347
0
1.14966
0
0
0.608301
0.418013
0
1.00425
0
0.78913
0.55862
0.59005
0.78067
0
0
0.446735
0.390218
0.888432
0
0.430961
0.482224
0
0.506344
1.2643
1.04361
0.194162
0
0.511812
0
1.31888
0.846823
0
0
0.413853
0.618868
0.888312
0.958562
0
0.438946
0
0.758681
0
0.770103
0.0979902
0
0.437695
0
0.533762
0.365331
0
0.593663
1.12576
0.423383
1.45911
0.902449
0.796557
0.551638
0
0.316473
0.505034
0.24465
0.70937
0.440504
2.2833
0.281622
0.762704
0
0.902485
0.45695
0
0
0.455978
0.325027
0.164441
0.336601
0
0.70197
0.713662
0.826711
0.680156
0.90357
0
1.1708
0
0.437996
1.12562
1.38309
0.865203
0
0.490785
0.363482
0.167239
0.327562
1.53508
0.585371
0.476798
0.374391
0.894318
0.437744
0.466408
0.390748
0.840825
1.75155
0
0.600689
0.413657
0
0.38322
0.935577
0.631266
0.583598
0.783139
1.13984
2.5689
0.7926
0.640693
0
0.387663
0
0.859512
0
0.585369
0
0
0.454127
0.369154
0.642709
0.628261
0.772563
0.663854
0
0.415915
0
0.341103
0
0
0.201281
0.320481
0.161175
0.947527
0
0
0.938657
0.559782
0.681742
0
0.589834
0.480712
0
0.666512
0.6866
2.02782
0
0
0.644477
0.539172
0.875523
0.248637
0.744909
0.410833
0.887523
0
0.876656
0.589988
0.757015
0.525614
1.46381
0.907218
0
0.617988
0
0.691589
1.01528
0.988541
0.375167
0
0.59869
0.576291
0.501841
0.872135
0.688289
0.650636
0
0
0.849551
1.16387
0.522466
0
0.493312
0.563478
0.568812
0.414365
0.588507
0.450528
0
0.405898
0
0.536574
0
0.692483
0.425789
0.607401
0
0.765342
0.475086
0.507957
0.407514
0
0.46966
0.585884
0.583741
0.489638
0.18464
0.962644
0.539768
0.597328
0
0.276863
0.652128
0.77432
0.36757
0
0.82466
0.800995
0.411234
0
0.729056
0
0.687726
0
0.764587
0
0.366856
0.992576
0
0.749292
0.79335
0
1.13099
1.31591
0.776286
0.624115
0.780331
0.95118
0
0
0.503761
0.33836
0.399697
0
0.520717
0.58533
1.86388
0.827659
0.505439
0.310435
0.553306
0.523407
0.589161
0.429744
0.457299
0
1.29162
0.862143
0.598227
1.42906
1.44274
0.729167
0.530497
0.568296
0
0
0
0
0.682188
0
0.740031
0
0.391598
0.307812
0.31723
0.211183
0.220056
0.553678
0
0.477243
0
0.697201
0.833837
0.359213
1.07036
0.728251
0
0.690308
0
0.684382
0.907776
1.46425
0.816696
0
0.822939
0
0.772965
0
0.7468
0
0.337099
0.32086
0.463006
0.304193
0.602616
0.933753
0
0.449611
0.527098
0.629415
0
0
0
0.579387
0
0.375979
0.939667
0
0
0.549777
1.9862
1.48661
0.383513
0.412075
1.46081
1.43543
0.257787
0.495802
0.764706
0
0
0.681169
0.664597
0.724328
0.674778
0
0.939258
0.775047
1.43302
0.419587
1.7793
2.22799
0
0
0
0.917882
0.358537
0.37688
0.537509
0.541209
0.80794
1.16248
0.995863
0.71152
0.662904
0.356069
0
0.556419
0
0.960505
0.725568
0.968392
0.577488
0.490213
0.0815432
0.552085
0
0.306291
0
0.530765
0.673293
0
0.660028
0.763529
0.723137
0.526814
0
0.468329
0.518557
0
0.496507
0
0.608
0
0.62237
0
1.23088
0
0.906
0.55712
0.333075
0.603404
0.797226
0
0.418292
0.568473
0.604519
0.405847
0
0.886763
0
1.08976
0.60165
0
0
0.710969
2.74396
0.652832
0.0696395
0.846241
0.613657
0.377211
0.247352
0.434691
0.825718
0
0.682326
1.50515
0.881197
0.343652
0.60794
0.578463
1.02103
0.94752
0.722459
0.427469
0.607127
1.09868
0.952755
0
0
1.04257
0.550489
0.470928
0
0
0.381386
0.510799
0
0.395492
0.631737
0
1.17251
1.64248
0
0.402284
0
0
0.563193
0
0.655014
1.22851
1.41568
1.78051
0
0.598542
0
0.407735
0.598856
0.740852
0
1.54384
1.06645
0
0.461734
0.365768
0.905273
0.438503
0.812726
0.499394
0.485317
0.655557
0.638009
1.08308
0.68729
0
0.493622
0.541364
0
0
0.84688
0
0.669125
0
0
2.18156
0
0.39047
0
0.435606
0
0.328717
0
0.440055
0.127937
0.976511
0.526401
0
0.670367
0
0.849083
1.28597
0.519301
0.855837
0
0.353113
0.375059
1.07073
0.48164
0.659651
0.588825
1.06637
0
0.36317
0
0.778619
0.560571
0
0.553231
1.0559
0.600779
1.35544
0
0.834147
0.738361
0.233878
0
0
0.873742
0.561221
0
0.469581
0.578908
0.413126
0
0.355155
0.64012
0.442584
2.57237
0.513158
0
0.583984
0.512957
0.504395
0.278389
1.03615
0.232336
0.327365
0.934248
0.303229
0.749418
0.58582
3.02352
0.849155
0.630166
0.459728
0.859964
1.27457
0.478099
0.865964
0.437028
0.943832
0.38445
0
0
0.653764
0.525956
0.736727
1.56461
0.486019
0.931608
0.119946
0.904656
0
0.842639
0
0.61709
0
0.594009
0
0.681015
0.359085
0.425943
0.54626
0.255581
0.495094
0
0.514271
0.622332
0.819599
0
0.923864
0.529316
0.704349
0.666696
0
0.58172
0.609972
0
0
0.618219
0
1.2847
0.970592
0
0.556176
0
0.316936
0
0.605644
0
0
0.547096
0
0.228675
0.381601
0.684354
0.444299
0.712058
0.965763
0.425477
0.455393
0.428676
0.276345
0.511153
0.61885
0.611767
1.14501
0
0.355091
0.342336
0.646848
0
0.811563
0.576024
0.390211
0.32563
0.826601
0.963581
1.26559
0
0.571018
0.565559
0.185752
0.793563
0.537484
0.546254
0
0
0
0.615674
0.426108
0
0.403196
0.220528
0.345818
0.420764
0.459176
0.210794
0.331286
0
0
0.792949
0
0.360186
0
0.443179
0
0.917428
0.460193
0
0.15344
0.621601
0.428927
0
0.445512
0
0.428662
0.513961
0
0.574378
0
0
0
0.405482
0
0.390925
0.791237
0
0.371392
0.357158
0
0.473755
0.454431
0.49201
0
0.794295
0.603655
0.77253
0.38807
1.11532
0.776625
0.39832
0.432837
0
0.800329
0.603422
0.719781
0.485695
0
0.565151
0.193742
0.523962
0.442551
0.556383
0.458806
0.525992
0
1.08224
0
0
0.527833
0.727152
0.660269
0.796477
0.404566
0.795043
0.643131
0.194555
0.168513
0.350506
0.631597
0.828685
0.611729
0.373884
0.339508
0.852378
0
1.03767
0.665887
0.20179
0.476131
0
0.855521
0.420229
0.742353
1.38107
0.329116
0.498316
0.757534
0.91618
0.504716
0.632828
0.467597
0.393403
0.463564
0.437322
0
0.311118
0.250074
0.332844
0.419388
0.560694
0
0
0.27658
0
0.526177
0
0
0
0
0
0
0
0
0
0
0
0
0
0
0
0
0
0
0
0
0
0
0
0
0
0
0
0
0
0
0
0
0
0
0
0
0
0
0
0
0
0
0
0
0
0
0
0
0
0
0
0
0
0
0
0
0
0
0
0
0
0
0
0
0.261429
0.458745
1.01309
0.58096
0.382007
1.6206
0.410374
0.682208
0.250899
0.532445
0.994936
0.615702
0.411987
0.407674
0.449118
1.06917
0.38002
0.394911
0
0.347491
0.539117
0
0.654686
0.740981
0.228345
0.920774
0
0.528832
0.383771
0.28459
0.754848
0.895742
0.163547
0.883541
0.0759985
0.236987
1.18011
1.8595
0.499125
0
0
0.728229
0.680586
1.67504
0.421969
0
1.27985
1.66669
0.532501
0.815497
0
0.261302
1.23789
0
0.542767
0.514311
0.315665
0.716788
0
1.11126
0.339975
0
0.980651
0.388893
1.66171
0.782957
0
2.11554
2.04678
0.363073
0.556074
0.699753
0.987349
0.818611
0.868796
0.988224
0
0.861799
2.2895
0.549012
1.43917
0.772346
0.698175
0
0
0.378844
1.00997
0.410526
0.554543
0.173833
0
0.619542
0
0.723789
0.823954
0.798745
0
0.429816
1.11449
2.01062
0.820509
0.269451
0
0
0.864013
1.7699
1.63481
0
0
0.522811
0.848404
1.28804
0.316086
0.714534
0.761722
1.02423
0.714391
0.583982
1.48625
0
0.747876
0
1.00514
0
0
1.12024
0
1.17267
0
0.696187
0
0
0.138181
0.988601
1.09166
0
0
0.858139
0.693948
0.348001
0.727727
0
0.688083
0.696271
0.395807
0.564718
0.310998
1.53281
0
0.766054
0
1.26957
0.741733
0.859828
0
0.991755
0.816789
1.39642
1.14136
0.827982
0.676894
1.21332
0.438072
0.660323
0.823025
0.885437
0.771372
1.04216
0.446644
0.792671
0.730387
0.306735
1.72878
1.29137
1.11443
0.729057
0.775958
1.0251
0
0.574856
0.405646
0.496938
0.121697
2.07194
0.86515
0.667827
0.260734
1.22585
0
0.443824
0.604705
1.35909
0.918164
0.589464
0.969278
0
0.212363
0
0.209675
1.3753
0.374453
0.390312
0.521937
0.658376
1.04923
0.524633
0.590064
0.789856
0.335428
0
0
0.391397
0.547928
0.86845
0.861929
0
0.689444
0.809588
1.43384
0
0.812845
0.386604
0
1.15128
0.851524
0.571571
0.851192
1.14051
0.210375
0.482703
0.174481
0.427478
0.701763
0.679023
0.81706
1.11495
0.849408
0.561728
0
0.730972
0.935751
0.431998
0.347133
0
0.495626
0
0.895777
0
1.18294
0.567269
0.711728
0
0.671179
0.334942
0
0.863088
0
0.575526
0
0.547578
0.497366
0
0
0.289726
0
0
0.408679
0.567076
1.44155
0
0
0.272712
0.51198
0.567485
0.507305
0
0.657546
0.893597
0
1.04871
0.800564
1.15455
0.359949
0.44336
1.06349
0.954711
0.854092
0
0.472592
0.67438
0.71422
0
0.636262
0
0.624565
0.414931
0.325654
0
0.588351
0.701497
0.573136
1.61173
0.838656
0.825508
0.654652
0.673717
0
0
0.717585
1.80501
0.356283
0.720521
0.233694
0.251276
0
0.900976
0.937383
0.38044
0
0.700058
0.559585
0
0.689436
0.702944
0.858146
0
0.627512
0
0
1.58257
2.94474
1.00643
0
0.573265
0.307659
0.492942
0
0.800207
0.147204
0.224347
0
0.707847
1.1433
0
0.674249
0.880179
0.28529
0.494162
0
0.611353
0
0.15012
0
0.36148
0.977021
1.48878
0.562186
0
0.413529
0.67452
1.2062
0.793778
0.643193
0.887705
0.666143
0.560568
0
0.113553
0.769235
1.11861
0.819725
0.579764
0.578873
0.635875
0.854895
0.382512
0.504651
0.935238
0
1.14338
0
0.449294
0
0.272194
1.00833
1.04648
0
0.0636632
0.769945
0.799793
1.46087
1.10154
0.831169
0.807153
0
0.507552
0.89086
0.570823
0
0.924609
0.352257
0.649095
0
0.700311
0
1.08898
0
0.351374
0.591466
0.67953
0
0.428629
0.870746
0
0.540786
0.401437
0.481272
0.971014
0.549652
0.67884
0.587266
0
0.661835
0.575235
0.341679
0.918728
0.428185
0
0
0.7493
0
0.802206
0
0
0.272684
0.448528
0
1.0192
0.46164
0.601893
0.819085
0.21805
0.250595
0.710051
0.95128
0
0.87038
0
0.689077
0
0.720953
1.16558
2.09785
2.15561
0.268181
0
0.822928
0.539628
0.917467
0.712501
0
0.715
0.127534
0.563707
0
0.344209
0
0.691305
0
1.88652
0.758401
0.437324
0
0.239879
0
0.441211
0.608561
0.857808
1.24217
0
0.606241
1.44013
0
0.738635
0
2.98627
1.16886
0
0.476242
0
1.21008
0
0.366756
0
0.368559
0.906108
0.312331
0.535121
0
0.309178
0
0.446148
0.855936
0.769376
0
0.599214
0.373834
0.571351
0.701582
0.816111
0
0.869896
0.691626
0.358594
0
0
0.552457
0
0
0
0.510095
0.543583
0.694587
0
0
0.508805
0
0.800911
0.415172
0
0.410316
0.778751
0.671538
0.445233
0.793475
0.461305
0.50094
0.487154
0
0
0.774268
0
0
0.893264
0
0.645884
0.510783
0.693046
1.05049
0
0.394798
0
0.51478
0.595829
0.344527
0.557683
1.11451
0.908328
0.622792
0.358395
0.649514
0
0.385943
1.29876
0.625683
0
0.288801
0
0
0
0.702327
0.647981
0.723201
0
0.718663
0.915482
1.22001
3.52306
0.973878
0.771058
0.75378
0.684906
0
0
0.749515
0.451684
0
0
2.12498
0.57969
0.479534
1.16164
1.57802
0.170308
0.544057
2.79291
1.19393
0.855238
0
0
0.408451
0.790197
0.597375
0.845597
0.549206
0.346654
0.395225
1.1385
0.745371
0.964173
0.248915
0.386816
0.411955
0.768251
0.639675
0.486512
0.602498
1.22264
0.630151
0.899147
0
0.601736
0.327516
0.33192
2.31463
0.345539
0.459753
0.780023
0
0.800276
0.301756
0.294026
0.573544
0.92206
0.275035
0.977197
0
0.731466
0.783019
1.20897
0
0.415504
0.544687
0
0
0.46723
0
0.513538
0.442485
0.782002
0.397598
0
0.664289
0.753802
1.11291
0.565776
0
0.692307
0.695083
0.874133
1.19303
0
0.739947
0.570736
0
0.439144
0.77571
0.63447
0
0
0.551329
0.673747
0
0.542759
0
0.530293
0
0.575395
0.225773
0.426061
0.624474
0.703279
0.368192
0.21229
0
0
0.610003
1.0221
0.312626
0.580247
1.19651
0.929479
0.57979
0
0.618132
0.539247
0.499754
0.676749
0
0
0.592923
0
0
0.478117
0
0.795306
0.928489
0
0.816115
0.328999
0.547332
0.815461
0.895034
0.680801
0.558892
0.525862
1.34809
0
0.430877
0
0.468094
0.488378
0.454715
0.582776
0.895527
0.976177
0
0.787759
0
0
0
0.850756
0.483838
0.947151
0
0
0
0
0.509083
0.635751
0
0.585722
1.09523
0
0
0.787643
0.477094
0
0.779277
0.69758
0
0.431125
0.100274
0.310878
0
0.390112
0
0.97537
0
0.774053
0
0.465072
0
0.811635
0.4267
1.09737
0.384554
0
0.602023
0.34023
0.816301
0.899367
0.611218
0.264907
0.416918
0.498394
0
0.452216
0
0.369361
1.10831
0.910033
0.313686
0
0
0.405774
0.424581
0.351743
0.307269
0.459283
0.717209
1.31002
0.701297
0
0.454406
0
0.512246
0.735268
0.606143
0.547209
0.829407
0.255651
0.537034
0.853158
0
0.824786
0.271785
0.363886
0
0
0.54062
0.933413
0
0
0.169297
0
1.55822
0.856298
0
0.588707
0.340152
0
0.40419
0.397511
0.252946
0.404195
0
0.435748
0
0.733696
0
0
1.34193
0.734843
0.026131
0
0.798661
0
0.299048
0.797981
0.442849
0
0.576057
0.435694
0.21208
0
0.316102
0.573071
0.420138
0.600173
0.663128
0.774083
0.250055
0.211984
0.419293
0.427252
0
0.396189
0
0.504334
1.29531
0.196125
0
0.645029
0.427722
0
0
0
0.54203
0
0.71244
0
0.449172
0.409985
0.445429
0
0.468719
0
0
0.523655
0
0.713362
0
0.455014
0
0
0.150077
0.296672
0
0
0.533094
0.264575
0
0.735319
1.07458
0.444889
0.322779
0
0.538374
0
0.418413
0.665131
0
0
0.562771
0
0
0.480445
2.15309
1.07116
0.661062
0.671671
0.942732
0.670094
0
0.590698
0
0
0.489227
0.728171
0.742527
0.74563
0
0
0.63464
1.41513
1.06952
0.482196
0.615975
0.44709
0.243676
0.670275
0.332685
1.11629
0.178202
0.223632
0.340978
0.449964
1.24439
0.518025
0
0.397287
1.08857
0.858746
0.426866
0.462118
0.638107
0.225627
0.368084
1.17073
0
0.485426
1.19655
0.234031
0.411243
0.345332
0.40214
0
0.603289
0
0
0
0
0
0
0
0
0
0
0
0
0
0
0
0
0
0
0
0
0
0
0
0
0
0
0
0
0
0
0
0
0
0
0
0
0
0
0
0
0
0
0
0
0
0
0
0
0
0
0
0
0
0
0
0
0
0
0
0
0
0
0
0
0
0.512439
0.675343
0
0.511098
0.490131
0
0.548771
1.26336
0.3179
0.395201
1.84638
0.549828
0.470801
0
0.395345
1.05996
0.398845
0.524037
0
0.43767
0.864909
1.62382
0.539484
0.722689
0.26351
0.471131
0.349925
0.422823
0.422708
0
0.858365
0.797826
0.819831
0.458001
0
1.19136
0.245806
0
0.897992
0.517309
0.0854133
0.494445
0.351384
0.575482
1.50619
0
0.4993
0.693081
0
0.285393
0
1.49936
0.413099
0.45416
0.759807
2.12154
0.574496
0.529147
0
0.210571
0.960584
0
0.711566
1.20127
1.55469
0.772385
0
0.768515
0
0.461584
0.667196
0
0.15387
1.72582
0.660144
0
0.786694
0
0.702876
0.815482
1.18012
1.31218
1.39042
1.75706
0.416545
0.65779
0.543963
0.684884
0.814414
0.434823
0.896715
0.660456
0.949852
0.900497
0.951573
0.776183
0.853831
0.760725
0
0.461371
0.929183
0.573592
0.38298
0.382002
0.784705
1.0202
1.08318
0.921424
0.696651
0
0
0.93642
1.76053
0.732813
0.297798
0.666088
0.524894
0
0.805994
0
0.500325
0.978494
0.717915
0
0.827918
1.26695
0
0
0.547941
0
0.66082
0.867651
0.478181
0.646598
0.664429
0.125069
0.528714
0.716269
0.913923
0.327022
0
0.451947
0
1.1688
0.974468
0.857309
0.171815
0.470602
1.49103
0.779193
0
2.39195
0.924628
1.17501
1.05065
1.66949