<?xml version="1.0"?>
<VTKFile type="RectilinearGrid">
<RectilinearGrid WholeExtent="0 32 0 32 0 32" Origin="0 0 0" Spacing="1 1 1">
<Piece Extent="0 32 0 32 0 32">
<PointData>
</PointData>
<Coordinates>
<DataArray type="Float32" format="ascii">
0 0.524874 1.04975 1.57462 2.0995 2.62437 3.14924 3.67412 4.19899 4.72386 5.24874 5.77361 6.29849 6.82336 7.34823 7.87311 8.39798 8.92285 9.44773 9.9726 10.4975 11.0224 11.5472 12.0721 12.597 13.1218 13.6467 14.1716 14.6965 15.2213 15.7462 16.2711 16.796 
</DataArray>
<DataArray type="Float32" format="ascii">
-5.03879 -3.62163 -2.20447 -0.787311 0.629849 2.04701 3.46417 4.88133 6.29849 7.71565 9.1328 10.55 11.9671 13.3843 14.8014 16.2186 17.6358 19.0529 20.4701 21.8872 23.3044 24.7216 26.1387 27.5559 28.973 30.3902 31.8074 33.2245 34.6417 36.0588 37.476 38.8931 40.3103 
</DataArray>
<DataArray type="Float32" format="ascii">
0 0.524874 1.04975 1.57462 2.0995 2.62437 3.14924 3.67412 4.19899 4.72386 5.24874 5.77361 6.29849 6.82336 7.34823 7.87311 8.39798 8.92285 9.44773 9.9726 10.4975 11.0224 11.5472 12.0721 12.597 13.1218 13.6467 14.1716 14.6965 15.2213 15.7462 16.2711 16.796 
</DataArray>
</Coordinates>
<CellData>
<DataArray type="Float32" Name="Scalar" format="ascii">
0
0
0
0
0
0
0
0
0
0
0
0
0
0
0
0
0
0
0
0
0
0
0
0
0
0
0
0
0
0
0
0
0
0
0
0
0
0
0
0
0
0
0
0
0
0
0
0
0
0
0
0
0
0
0
0
0
0
0
0
0
0
0
0
0.211609
0.300024
1.09144
0.620064
0.161064
0
0.361642
1.25066
0.135686
0.291266
0
0.209956
0.19611
0
0.41096
0.723834
0.293833
0.301953
0
0.317744
0.197944
0
0.33288
1.68198
0.0950433
0.416192
2.96516
0.386576
0.116135
2.2389
0.263869
0.87021
0.211269
0
0
0.176676
0.686448
0
0.2968
0
1.51334
0.18023
0
1.07926
0.204085
0
1.62059
0.208692
0.0205338
0.410687
0
0.250187
1.76663
0
0.0381792
0.991138
1.82398
0.202195
0
2.30646
0.467673
0
1.99449
1.0552
0
0.27339
0
0.609407
0
0.541785
0.828419
1.50172
1.11537
1.46012
0.759057
0.460312
1.0925
0.584647
0.465237
0.839296
1.05298
0.919943
1.01258
0.267116
0.48424
0
0
0
0
0.926828
0.602169
0.065185
0.517457
1.20848
1.54749
0.504208
0.397326
0.453414
0.40988
0.452201
0.192443
0
0
0
0.602181
0.512927
0.304326
0.494879
0.684811
0
0.202882
0
0.74329
0
0.525144
0
0.356134
0.423786
0.415885
1.20208
0
1.67813
1.06085
0.308507
0.991217
0
0.400156
0
0.413249
0.62549
0.655633
0
0
0
0.567642
0
0.499374
0
0.54572
0.793107
0
0.721104
0
0
0.390851
0
0.485864
0.432346
0.415248
0.31118
0
1.02685
0.538621
0.717777
0
0.309565
1.20247
0.807783
0.619109
0
0.477053
0.406368
0.427107
0.698462
0
0
0.157876
0.462214
0.557839
0.297572
0.807268
0.602596
0.637472
0.486764
0.718999
0.451577
0.470275
0.773647
0.617222
0
0.29069
0.41116
0.628854
0.560301
1.18566
0
0.368607
0
0.524495
0
0.444359
0.454897
0
0.513311
0
1.00398
0
0.486811
0
0
0
0
0
0.378305
0
0.481537
0
0.553874
0
0.481665
0.583697
0
0
0.688009
0.804009
0
0.0680452
0.176369
0.731483
0.745232
0.409494
0
0.280364
0.51219
0.410194
1.2453
1.65436
0
0.229322
0.465042
0.464757
0
0.677106
0.343342
0.402178
0.833371
0.676569
0
0.342454
0.553684
0.328593
0.610607
1.08591
0.481454
1.05321
0
0
0.587872
0
0.506163
0.525758
0
0.692416
0.910512
0.728655
0.496551
0.417875
1.57945
1.01208
0.852044
0
0.490443
0
0.523158
0.277371
0.275958
0.709741
0
0
0
0
0.692376
0
0
0
0.423034
1.87891
0.622915
0
0.45439
0
0.581038
0
0.43574
0.472096
0.530466
0.882487
0.555164
0
0.597491
0
0
0
1.02092
0.598467
0.752896
0.305045
0.74253
0.518799
0.524778
0.485047
1.05678
0
1.96301
0
0
0.138806
0.667671
0.747041
0.493596
0.798018
0.863333
0.48522
0
0.771842
0
0.837105
0.983709
0
1.10395
0
0.717122
0
0.518886
0.424004
0.801985
0
0.293101
0
0.575615
0
0.772159
0.791917
0
0
0
0
0
0.343861
1.05606
0.713999
0
0.912308
0.857508
0.474045
1.59585
1.03242
0.934403
1.47955
0
0.984571
0.65545
0.657433
0.634573
1.1747
0.257634
0.665929
0
0.634501
0.319499
0
1.04833
1.05215
0.257554
0
0.424221
0.551503
0.668083
0.875723
0.588164
0
0.576091
0.313673
0.641951
0.465336
0
0.607553
0.886101
0.982052
0.711903
0.586281
0.309133
0
0.987113
0
0.366098
0.574159
0
0.721034
0
0.80167
0.485455
0.786819
0.365
0.611899
0.327506
0.313915
0.73413
0.525934
0.3047
0.877295
0.847732
1.24863
0.549639
0.295558
0
0.372336
0
1.56837
0.103132
0
0
0.258743
0.555113
0
0
0.25332
1.30079
0.386673
0.226506
0.115141
0.442076
0.813989
0.829313
0.634378
0.279572
1.06764
0.378101
0
1.3616
1.28092
0.673328
0
0.880141
1.87949
0.600933
0.871998
0.301945
1.06153
0
0.263631
0.635708
0.702589
0.488789
0
0.369577
0
0.912178
0.800105
0
0.539277
1.36437
0.610197
1.84729
0.247426
0.834346
0.646495
0.474752
0.363384
0
0.935077
1.02268
0
0.441978
1.00123
0.541387
0.397193
0.893927
0.859893
0.900308
0
0.781033
0.499422
0.583394
0.963942
0
0.376798
0
0.613804
1.53477
0
0.880123
0.608872
0
0.410863
0
1.14444
0
0.553695
0
0.434874
0.232802
0.688387
0.726529
1.42167
0.248091
0.992224
0.544467
0.7977
0.845646
0
0.205769
0.403103
0.319601
0
1.05959
1.2834
0.486566
0
0.271612
0.345625
0.568232
0
0
0.441083
0
0.649952
0.787797
0
0.325234
0.700282
0.324092
0.626004
0.391816
0.24433
0.545963
1.10642
0.711216
0.807848
0.408284
0.439268
1.07032
0
0
0.811139
0.523371
0.682551
0.855104
0
0.566921
0.473784
0
0.539321
0.662643
0.61192
0.569085
0
0.52668
1.02983
0.377674
1.39807
0.46139
0
0.412705
0.178694
0
0.451553
0.324277
0.682457
0.700984
0.486442
0
0.475642
0.693099
0.738849
0.375786
0
0.384301
0
0.271757
0.426568
0
0.852034
0.818805
0.299046
1.74966
0.744651
1.03528
1.99705
1.34758
0.790814
0
1.40491
0.772858
1.30527
0
0.240861
0
0.294292
0.525064
0.530577
0.510798
0.456743
0.470433
0.57566
0
0.710805
1.32537
0.421902
1.11151
0.693278
0.655964
0
1.21368
1.77729
0.833853
0
0.114808
0
1.17646
0
0.527197
0
0.424502
0.486301
0.229233
0.366606
0.760941
0.675569
0
0.531227
0.379449
0.713855
0.774389
0.765373
0.76484
0.538289
0.527448
1.05055
0.748509
0.426209
0
0
0.753505
0.691283
1.70665
0
0.29099
0
0.433528
0.520073
0
0
0.688774
0.0323604
0.894784
0.514398
0
0.457629
0
0
0.450981
0
0.589355
0.0723534
0
0
0
0.540024
0.554715
0.89957
1.7327
2.80152
1.77488
0.900389
0.923084
1.01308
0.561601
0
0
0
0.494861
1.48967
0.677145
0
0.520194
0
0.716114
0.521702
0.641752
0.745654
0.404938
0.478718
0.275302
0.52656
0.360972
0.37955
0.616176
0.529987
0.672817
0.528796
1.27916
0
0.207294
0.862862
0.403999
0.529881
0
2.22567
1.07076
0
0.55605
0
0.50072
1.23594
0.442616
0
0.522869
0
0.693371
1.43576
0.853025
0.856797
0.676637
0.391042
0.338609
0
0
0.884046
0.787222
0.781202
0.203453
0.552971
0.719042
0
0.851352
0
0.838825
1.23341
0.273198
0
0
0.549473
0.850399
0.833728
0.446548
0
0.319812
0
0.356946
0.548165
0
1.39863
0.460916
0.448901
0.822446
1.28205
0.641248
0.549325
0
0
0.348099
0.695837
0.275808
0
0.685885
0
0.715859
1.07317
0
0.41981
0
1.5618
0
0.622789
0
0
0
0.457569
0.407543
0.643406
0.291805
0.589225
0
0.531664
0.74209
0.902466
0
0.462773
0.134585
0.809563
0
0.219573
0.79088
1.6284
0
0.501662
1.05605
0.484009
3.74816
0.33727
1.43149
0.753002
0
0
0.760752
0
0.351122
0
0
0
0.894982
1.41078
0.882472
0
0.789578
2.65961
0.987145
1.80875
0.517354
0
0
0.378623
1.21805
1.09923
0.713491
0.529141
0.736655
0
0
0.951335
0
0.185197
0
1.3314
1.6319
0.816657
1.14618
0.562295
0.66794
0.60645
0.457336
0.873168
0.232883
0.54124
0.964537
0.403056
0.63841
0.534444
0.846863
0
1.70505
0.663605
0.813974
0.838497
0.450485
0.289944
0.854976
0
0.462722
0.227497
1.07059
1.01033
0.91632
0.313349
0.379423
0.510147
0
0.393245
0
0.489081
0.382319
0.458497
0.641672
0.374663
0.0588952
0.256453
0
0.709444
0.817048
0.550138
0.432322
0
0.80444
0
0.556692
0.640926
0.599969
0.167431
0.458583
0
0.407836
0
0.824255
0
0
0
0.671538
0.651134
0.500162
0.387192
0.620991
0.31929
0.720582
0.327914
0
0.942719
0.558146
0.456225
0
0.489084
0
0.520474
0.661554
0.643635
0.228233
0
0.595658
1.1311
1.20904
0
0.754432
1.4868
1.27196
0.673775
0.666538
0.755616
0.306544
0.619574
1.35314
0.850928
1.08685
0
0
0.81755
0.283954
0.656228
0
0.246585
1.26966
0.959243
0.490149
0.792941
1.04024
0.579753
0.791017
0.570033
0.884
0.672825
0.605742
0
0.639219
1.19777
0.965876
0
0.537557
1.08515
0.742144
0.483201
1.21095
0.707159
0
1.39138
0.736549
0.549074
0.707377
0
0.696411
0.693603
0.56172
0
0
0
0
0
0
0
0
0
0
0
0
0
0
0
0
0
0
0
0
0
0
0
0
0
0
0
0
0
0
0
0
0
0
0
0
0
0
0
0
0
0
0
0
0
0
0
0
0
0
0
0
0
0
0
0
0
0
0
0
0
0
0
0
0.265325
0.484173
0
0.773796
0.694116
0
0.476548
0.757455
0.38702
0.612035
1.34886
0.662243
0.406719
0.0500718
0.590738
1.20156
0.416429
0.600055
0
0.527959
0.426466
0
0.3927
1.43339
0.207932
0.52955
0
0.502444
0.567735
0
0.542014
0.821622
0
0.189887
0
1.36684
0.538588
0
0.98694
0.557007
0.183636
1.06349
0
0.163847
0.936541
0
0.37296
0.657182
1.58048
0.213275
0
1.16871
0.592493
0
0.980562
0.188014
0.0826116
1.07485
0
0.59732
1.12646
0
0.396398
0.304079
1.05169
0
1.19138
0.51243
1.46322
0.560337
0.643346
0.634534
0
0.831796
0
0.352011
0.973468
1.16631
1.30546
0.909949
0.808046
0.275987
0.132961
0.672999
0.549557
0
0.828223
0.571641
0.867396
0
0.688675
0
1.37869
1.10968
1.03577
0.82424
0.521793
0
1.74727
0.549491
0.704589
0
0.55838
0
0.394705
0.49679
0.767359
1.52097
0.951502
0.834413
0.769997
0.460164
1.56425
0.483894
0.41126
0
0.436873
0.445836
0.949069
0
0.989366
0
1.21741
0.480799
0.364987
0.877881
0.405926
0
0.621227
0.339281
0.901931
1.12986
0.857597
0
0.764948
0
0.757863
0
0.532091
0.241208
0.708317
1.7583
0.741472
0
0
0.298999
0.387175
3.00493
3.08352
1.31368
1.38705
0.941128
1.39312
0.274969
0.585007
0.840464
0
0
0
0.705629
0
0.525382
0.598475
0.797367
0
0.591934
1.1441
0.0788076
0.997017
0.20578
0.466296
0
0
0
0.484613
0
0.377326
0.779056
0
0.486816
0.488132
0
0.847773
0.413471
0.590271
0.439019
0
0
0.0780077
0.317442
0.825132
0
0.645639
1.2927
0
0.205989
1.18397
0.927454
0
0.533183
0
0
1.10365
0.682673
0
0.894341
0
0.526814
0
0.426988
0.966563
0.760922
0.384924
0.856555
0.741787
0.865776
1.51278
1.43336
0.489044
0.702766
0.72391
0.432281
0.275934
0
0
0
0.387648
0.487478
1.65166
0
0.352978
0
0.846739
0
0.94637
0.452527
0
0.559194
0
0.661168
0.729166
0.266988
0.443567
0.542081
1.76982
0.462983
0
0.841248
0
1.05237
0
0.574312
1.12068
0.429837
0.632603
0
0
0.766164
0.916247
0
0.262409
0
0.523765
0
0.599854
0
0.544645
0
0.629459
0.374619
0.726364
0.546748
0.346665
0.424294
0.607489
0.407278
0
0.633065
0.668742
0.427854
0.419402
0.856253
0
1.08279
0
0.788528
1.02463
0
0.52942
0.324571
0
0.50156
0
0
0.213879
1.73084
0
0.501073
0
0.512527
0.946796
0.536316
0.725804
1.1565
0.258538
0.497312
0.718171
1.33486
0
0.435108
0.600595
0.712479
0.619534
0.589582
0.592631
1.21273
0.764293
0.473628
0
0.400876
0.52397
0
0.515458
0
0.590573
1.22012
0.831666
0
0
0.89182
0.431654
0.570718
0
0.929479
0
0.446178
0
0.506648
0
0.644769
1.91366
0.73855
0
0
1.37631
0
0.494316
0
2.63888
0.931075
0
0.763576
0
0.426748
0
0.745542
0
0
1.00447
0.413403
0.548484
0.276245
0.766055
0.633262
0.745485
0.491909
1.15718
0.325713
0.633652
0.680337
0.621437
0.417005
0.597211
1.18695
0.176343
0.469392
0.898623
0.469962
0.386747
0.713754
0.601156
0.541702
0.290441
0.3858
0.252753
0
0.432011
0
0
0.709382
1.09144
0.599128
0.62216
0
0
0.222933
1.40824
0
0.476008
0.558554
0.568424
0
0.712549
0.565407
0.72676
0
0.381779
0.527807
0.604439
0.541727
0.600923
0
0
0.531964
0.663033
0.657375
0
0.624955
0.50671
0.45136
1.24539
0.41985
0.576636
0.607717
0.966921
0.411604
0.283599
0.289494
0.80995
0
0.81846
0.399932
0
1.31485
2.05096
0.642598
0
0.65449
0.469787
0.709823
1.22706
0.539803
0.380586
0.717446
0.639978
0.656401
0.419444
0.444445
0.66306
0.402979
0.305612
0.852461
0.718283
0.840823
1.01705
0.652472
1.96049
0.504524
0.646193
0.453432
0.497291
1.37035
0
0.468702
0.740254
0.974046
0.621999
0
0.509656
0.37676
0.681733
0.642947
0.454284
1.54228
0.394179
0.715918
0.555458
0.88036
1.15215
0.747998
0.848583
0
1.23089
0.754878
0.29759
0.514158
0
0.66586
0
0.368202
0
0.662152
0.420727
0.98731
0.367095
0.709748
0
0.839422
0.607932
0.416965
0.17505
0
1.70694
0.906429
0.773067
0
0
1.36599
1.10879
0.730953
0
0
1.7995
0.435463
1.05315
0
0
0.41033
0
0.634162
2.84589
0
0
0.370452
0.619555
0
0.854087
0.29381
0
1.14233
0
1.78703
0.359955
0.673497
0.649314
0.737666
0.428815
0
0
0.55333
0.491588
0.542135
0
0.841527
1.06415
0.522928
0.657706
0.187112
0.55195
1.34607
0
0.569642
0.51323
0.527953
0.336402
0
0
0.610578
1.29228
0
0
0.830286
0.420777
0
0.634622
0.640558
0.528333
0.62173
0.191585
1.1923
0
0.31634
0.664021
0.477993
0.672914
0.773527
0.762532
0
1.8596
0
0.954954
0.628225
0.709178
0.613392
0.746662
0
0.62546
0.523559
0.688541
0.360991
0.359293
0.996979
0
0.640822
0.512328
1.22228
0.677767
1.50464
0
0.535704
0.361524
0
0.600273
1.4405
0.810918
0.835714
0
0.645786
0
1.04485
0
0.930411
0.524773
0.708741
0.561007
0.701272
0.703977
0.891812
0.671612
0
0.436227
0
0
0.573839
0.486836
0.772999
1.13661
0.938236
0.676904
1.05653
0
0
0.89737
1.01943
0.0856749
0.585867
0.139979
1.41782
1.90999
0
0
0.803248
0
0.359044
1.0627
0.938134
0.933741
0.731942
0
0.451809
0.747808
1.08879
0.887912
0.547105
1.57656
0
0.604659
0.177902
0.756469
0
1.00441
0.572027
1.37191
1.20011
0.775784
0
0.557198
0
0.754917
0
0.917434
0.619772
0
0.605735
0
0.361433
0.312325
0
1.092
0.728264
0.672436
0
0.584738
0.764578
0.603316
0
0.238944
0.698528
0
0
0.575725
0
0.225162
0.68021
1.01836
0
0
0.55402
0.958669
1.66946
2.3862
0.391132
1.16882
1.0627
1.58525
0
0.581613
0.716921
0.611444
1.07919
0.808328
0.524291
0.653621
0
0
0.41177
0.185405
0.381654
0.507916
0.862451
0.395688
0.476453
0
1.1142
0.621583
0.515146
1.16522
0.898178
0.539369
0.59932
1.08513
0.577718
0.551298
0.522704
0
0.718076
1.52077
0.834488
0.733848
0.939819
1.53782
0
1.19176
0
0
0.191054
0
0.354103
0
0
0.383824
0
0
0.791846
0.380742
0.317835
0.362904
0
0.546173
0
0
0.45297
0.762415
0.622735
0.611029
0.285732
0.481018
0.758471
0
0.141288
0.351485
0
0.637853
0.83078
1.86015
0
0.656547
0
0.425137
0.956547
1.59145
0.921448
0.492621
0.338477
0.550277
0.871134
0.334798
0.935678
1.11985
2.35644
0.579084
0.336424
0
0.736546
1.60631
0.827295
0.44581
0.46827
0.944734
0.912034
1.47599
2.07055
0.926306
2.05404
0.762133
0.115614
1.19471
0.821478
0.901942
0.875631
0
0.578419
0.264468
0.388272
0.338942
0
0
0.826686
0.577708
0.489919
0
0
0.464768
0
0.353048
0
0.880078
0
0
0.667606
0
1.01511
0.991606
0.847579
2.24529
0
0.504681
0.941102
0.398094
0.343146
0.546854
1.35061
0.717443
0.679194
0
0.312107
0.517171
1.21172
0.979696
0
0
0.635852
0
0.485943
0
0
0.52209
0.382701
0.381389
0.522876
1.03474
0.202917
0.252803
0.574014
0.751671
0
1.44339
1.02769
2.18501
0.29742
0.407545
0
0.379724
0.620742
0.728399
0.0531888
0
0.443561
0.588379
0
0.487629
0.707764
0
0
0.537484
0.487621
0.712815
0.775113
0
0
1.03678
0.820616
0.71284
0.611938
0.719635
0.941637
0.8502
0
0
0.312461
0
1.01685
1.21173
0.638992
0.716399
0.822709
0.547179
0
0.213127
0
0.571856
0
1.74874
2.11742
0.732061
0.540543
0
0
0.522292
1.03164
0.93249
0.190512
0.526897
0
0.680847
0
0
0
0.585604
2.46549
0.634191
0.942667
0.413438
0.369089
0.872295
0.252532
0
0.842797
0.429071
0.757446
1.39856
0.792733
0
1.07054
1.10951
0.801253
0.998339
0.649889
1.18965
0.561467
1.27298
1.2479
0.833434
1.49904
0.95403
0.589135
0.48488
0.394421
0
0.865702
0
0
0
0
0
0
0
0
0
0
0
0
0
0
0
0
0
0
0
0
0
0
0
0
0
0
0
0
0
0
0
0
0
0
0
0
0
0
0
0
0
0
0
0
0
0
0
0
0
0
0
0
0
0
0
0
0
0
0
0
0
0
0
0
1.60932
0
0
0.50086
0
0
1.03692
0
0
2.04287
0
1.34214
0
0
2.99382
0.827472
0
0.293934
0
0.536434
0
0
0.464167
0
0.959718
1.95985
0
0
0
0
0
0.923372
0
0
0
0
0
0
0
0
0
0
0
0
0.134632
0
0
0
0
0
0
0
0
0
0
0
0
1.01904
0
0
0
0
0
0
0.341193
0.544104
0.716656
0.960873
1.05336
0.171619
1.37206
1.08285
0.633789
0.768123
0
0.838005
0
0.531623
0.978065
1.63062
0
0
0
0.620789
0.12576
0.603593
0.704865
0.949738
2.01692
0.783967
0.780712
1.28632
0.484942
0
1.34604
0
0.818828
0
0.419768
0
0.811703
0.282144
0
0
0.621978
0.218951
0.655307
0
0.720737
0
0
0.705742
0.543837
0
0.282213
0
0
0
0.604435
0
0.482695
0.513896
1.14168
0
0.458841
0
1.03762
1.02969
0.266554
0.883674
0.499564
1.35473
0.599833
0.477606
0.44434
0
0.409351
0.225216
0.715293
0.400729
0.731539
0.709198
1.23894
0.771481
0.643994
0.403863
0.569392
0.947513
0.837856
0.585466
0
0.350063
0.938508
0.838503
0.60874
0
0.880293
0.998764
0.778819
0
0.659091
0
0.530728
0
0.507741
0.347331
0.478753
0.261972
0.45273
1.05335
0.890531
0.557426
0.430524
0.878547
0.667243
0.436642
0.254669
0
0.533786
0
0.105579
0.673681
1.05717
1.88061
0.423639
0.277984
0.563145
0.716513
0.64396
0.360121
0
1.15453
0.664014
0.660462
0.630562
0.485819
0.176334
0
0.611458
0
0
0.63105
1.00866
0
0.958559
0.633378
0.354149
0.135126
0.526186
0.476618
1.26631
0.967554
1.09496
1.11767
1.15623
0
0
1.32124
0
0.21786
0.724069
0.610689
0.643243
0.836083
0.285375
0.725016
0
0.0978565
0.617647
0.437268
0.76332
0.431484
0.807727
0
0.423877
1.00599
0.486992
1.24412
0.737245
0.434705
0.568563
0.251287
0.634856
0.566985
0
0
0
0.726868
0
0.926826
0
0.349473
0
0.475377
0
1.38494
1.26228
0.612
0.530633
0
0.45157
0.435572
0.456749
0
0.408685
0.711436
1.02405
0.441457
0
0
0
0
0.648683
0.689676
0.663248
0
0.510895
0
0
0.0285899
0
0.658687
0.541181
0.365014
2.64166
1.46381
0.737123
0.8353
0.139698
0.961567
0.761207
0
0.242401
0.544838
1.14389
0.80754
0.815141
0.332535
0
0.534737
0
0.973608
0.746183
0.298037
0
0
1.52828
0.462619
0.790075
0.764941
0.423275
0.291207
0
0.505308
0.695193
1.66705
0.768301
0.637206
0.567667
0
0.348388
0
0.542324
0
0.325626
0
0.551416
0.322908
0.642905
0.714864
0
0.418643
0
0
0
0.41897
0.227812
0.565655
0
0.825823
0
0
1.57787
1.27499
0.499421
0.78414
0
1.02443
0.722911
0.319869
0.434252
0
0.387116
0
0
0.37183
0.564941
0
0.891037
0.583422
1.18663
0.27808
0.382329
0
0.38104
0
0.663893
0.827828
0.862828
0.347248
0.496075
0.287489
0.921914
1.06326
0.680966
0.341486
0.362266
0.739708
1.21028
0
0.602728
0
0.162686
0
0.456341
0.694116
0.700205
0.857304
0.538455
0
0
0.909414
1.31345
0.62151
0.684096
0.748493
0.746882
0.475656
0.715868
1.02217
0.0421574
0.858198
0
0
0.934766
0
0.439983
0
1.44177
0
0
0
0.616865
0.242959
0.366913
0.082669
0.548265
0.469284
0
1.34522
0.631298
0
0.867094
0.435991
0.520711
0.541769
0
0.140356
0.276691
0.955374
1.1149
0.277171
0.862878
0.539376
0.304746
0.602172
0.829973
0.519132
0
0
0.762667
0
0.439075
0
0.764189
0
1.43018
1.02242
0
1.48098
0.954761
0.501064
0.46764
0
0
0
1.13799
0.610961
1.51431
0.53882
0
1.02707
0.651407
1.33708
0.500917
0.136653
0
0.514496
0
0
0.399266
0.936205
1.0155
0.466427
0.350845
0.743872
0.705068
0.673435
0.590197
0
1.57685
1.083
0
0.487365
0.397158
0
0.971094
0.748754
0.641072
0.683926
0.568194
0.484248
1.26291
1.31402
0
1.10726
0.487839
0.966041
0.258088
0.698361
0.725543
0.381071
0.624317
0.645591
0.548705
0.740948
0.374881
1.12545
1.04386
0.358233
0.604068
0.586813
1.15151
0.666828
0
0.634924
0.37219
0
0.317646
0.391647
0
0.485385
0
0.432023
0.835537
0.510167
0.370576
0.310227
0.808074
0.484536
0.326694
0
0
0.422328
0
0.709528
0.540375
0.592914
0.364401
0.825894
1.15741
1.08651
0.736872
0.735484
0.941287
0.885177
0.674964
0.713183
0.833746
0.970183
0.51074
0
0.326913
0
0
0
0.302875
0.868741
0.160116
1.02787
0.840762
0
0
0.727694
0.409827
0.51287
0
1.06095
0.267276
0.556501
0.593267
0.49524
0
0.684701
1.35289
0.547892
0.573628
0.640681
0
0.615764
0.77889
0.317811
0.873451
1.05201
0.256592
0.548952
0.712045
0.569241
0.61988
0.950172
0.592703
0.969341
0.513671
0.418464
0.291884
1.41623
0
0.402197
0
0.174367
0
0.808898
0.428433
0.679757
0.993487
0
0.371355
0
0.385676
0
1.09267
0.574088
0.619389
0.785095
0.724571
0
0.200813
0
0.501621
0
0
0.548855
0.594094
0.868905
0.722571
0.807333
0
0
0.827896
0
0.50714
0
1.06913
0.855719
1.26753
0.984949
0.35379
0.600187
0.833937
0.543208
1.05487
0
2.39073
0.946077
0
0
0.541138
0.349336
0
0.792714
0
0.539597
0.56623
0.334364
0.396088
0
0
0.438213
0.894593
0.504984
0.657412
0
1.52775
0.895175
0.73485
0
0.285143
0.563518
1.0056
0
0
0.725665
0.598905
0
0.474625
1.45023
0.570527
0.362336
1.13976
0
0.587069
0.547035
0
0
0
0.920491
0
0.0668125
1.1257
1.16558
1.2396
0
0.53689
0
0.738039
0.286175
0
1.37528
0
0.692036
0
1.29854
1.42686
0.477165
0.789354
0
1.9352
0.870035
0.664208
0.560044
1.53002
0.435713
0.958004
0.72546
0.982158
0.661058
0.498366
0
0.564635
0.712905
0
0.459682
0.431133
0
0
0.795508
0.387504
0.775545
0.969567
1.28497
1.4116
1.04501
0.756528
0.777941
0.643344
0
0.617245
0.43639
0.675008
0.958717
0.514234
2.0349
0.999446
0
0.687769
0
0.922574
0.380194
0.4045
0.631859
0
0.462997
0
0.562619
0
0.373166
0.504018
0.334443
0.500252
0.38984
0.787846
0.421442
0.350638
0.781084
0.584486
0
0
0.783526
0.645632
0.527641
0.726262
0.746129
0.182547
0.898165
0.658761
0.635796
0
0.894039
0
0.81075
0.275668
0.653624
0.574012
0.30747
0.403907
0
0.603105
0.70881
0.459614
0.585266
0.777591
0.462579
0.796196
0.588882
0.25147
0.386248
0.324684
0.61639
0.149584
0
1.24142
0
0.735328
2.00925
0.755003
0.287712
0.461437
0
0.742977
0.408157
0.99393
0
0.556112
0.532724
0.539481
0.965535
1.06482
0.79007
1.66028
0.682699
0
0.785006
0
0
0.590013
0.501595
0.597495
0.733514
0
0
0.761119
0.650191
1.08632
1.1229
0.662159
0
0.47984
0.371612
0.699932
0.562907
0.601914
0.79651
1.11584
0
0.486114
0.84954
0.814139
2.82997
0.439684
0
0.705113
0.536139
1.1018
0.641417
0.798906
0.901073
0
0.94703
0
0
0.767867
0.246507
0.249341
0
0.688668
0.930157
0
0.798181
0.766855
0.320994
0
0.679584
0.659029
0.174968
0
0.629941
0.713291
0.597367
0.53985
0.443097
0.486207
0.609627
0.706528
1.0291
0.923841
0
0.243513
0.746661
0.652093
0.661726
1.0326
0.237282
0.443186
0.954258
0.349263
1.53577
0.473355
0.63164
0
0
0
0.636688
0
0.602179
0.742185
0
0.671554
0.300457
0.788913
0.154815
0
0.935576
0.970688
0.362087
0.724644
0.226783
0.545776
0
1.00572
0
0.639489
0
0.380133
0
1.00826
0
0.711462
0.649418
0.370059
1.25258
0.68603
0.464547
0.51443
0.26109
0.990004
1.14915
0.800152
0
0.442691
1.48691
1.52903
0.649025
0.653999
0.888675
0
0
0.06792
1.07516
0.705383
0.653298
0.854172
0
0.420211
0.204865
0.279212
0
0.392693
0
0.604409
0
0
0
0
0
0
0
0
0
0
0
0
0
0
0
0
0
0
0
0
0
0
0
0
0
0
0
0
0
0
0
0
0
0
0
0
0
0
0
0
0
0
0
0
0
0
0
0
0
0
0
0
0
0
0
0
0
0
0
0
0
0
0
0
0
0.518425
0.549071
0
0.581963
0.330301
0
0.384948
1.53035
0.474182
0.675061
0.787932
0.466167
0.630594
0
0.677255
1.17974
0.29147
0.669378
0
0.525669
0.388207
0
0.61975
0.753321
0.301338
0.543193
0.52711
0.425214
0.480433
0.813976
0.357954
1.42813
0.554505
2.02762
0
0.763108
0.590224
0
0.271497
1.64989
1.74053
0.241492
0
1.25853
0.299593
0
2.56172
2.08013
0.694682
1.40824
0
0.13528
1.48591
0
0.351941
0.685144
0
0.417574
0
0.735154
0.280966
0
1.04022
1.59083
0.575173
0
1.03578
0.267424
0
0
0.699452
0.557421
1.13006
0
0.603212
0.963514
1.59767
1.05281
0.726611
0
0.436805
0
0.333075
0
0.354665
0.34719
0
0.472352
1.60108
0
0.90896
0.57953
0
0.792583
0.631446
0.127821
0.531767
0
0.506429
0.8336
0.439029
0
0.638199
0.608999
0.750192
0
0.380152
0.509336
0
0.243497
0
0.539153
0.486255
0
0.283078
0
0.689657
0
1.02876
0.73729
2.11634
0
1.29126
0.220561
0
0
0.993891
0.445617
1.13797
0.454969
0
0.677365
1.85069
0.604303
0
0
0.501293
0.634606
0.675995
0.732109
1.28153
1.34956
0.831997
0.510069
0
0.558191
1.18536
1.30879
0
0.842144
0.527063
0.321214
1.11068
0.732968
0.515978
1.04536
0
0
0.708596
0
0
0
0.574614
0
0.489298
0
0.421907
0
0.603037
0.244655
0.427625
0.845092
0
0
0
0
0.436354
0
1.1832
0.847241
0.331545
1.19138
0
0.538104
0.372239
0.527305
0.641152
1.45043
0.797052
1.9162
0.792742
0.241688
0
0.413426
0.338263
1.0093
0.623893
0.60168
1.26916
0.32991
0.401946
0
0.406701
0.586898
0.295143
0.370586
0.287292
0.551099
0
0.605509
0
0.682828
1.13556
0
0.672873
1.19996
0.669326
0.67689
0.697035
0.509886
0.557602
1.23211
0.285631
0.413309
0
0.585575
0
0.523393
0
0.293762
0.977941
0
1.46973
0.561832
0.478384
0.63184
0.514105
3.73033
0.680981
0
0.390983
0.599175
0
0.4945
2.05364
0.614436
0.498045
0
0.782522
0
0.67343
0.315352
0
0.86115
0
0.94537
0
0.0612514
0.341804
0
1.21329
1.03468
0
0.522731
2.00939
0.563299
0.326521
0.476566
2.01791
0.926695
0
0.30395
0.391622
0.702453
0.877361
0
0
0.498106
0.362538
0.42094
0.433854
0.807403
1.33678
0.569604
0.944164
0
0.610889
0
1.09594
1.35947
0.801808
1.69509
0.484088
0.731626
1.53191
1.29916
1.5978
0
0.324072
0
0.973264
0.672157
0.345175
0.626564
0.453677
0
0.450514
1.72348
1.16183
0.283284
0.464385
0.317367
0.873388
0.64665
1.61223
0
0.625836
0.535448
0.338407
0.931836
0.787133
1.10227
1.12243
1.42713
0.643041
0.35434
0.292761
0
1.13232
0.559739
0.673315
0
0.690426
0.516742
0.251616
0.893385
0
0.565186
0
0
0.652079
0.536192
1.63421
1.50607
0
0.484535
0.152199
0
0.717122
0
1.07199
0.605973
0.488756
0.345719
0.350114
0
0.652396
0
1.12945
0
0.507014
0.549292
0.379858
0.274026
0.45353
0.405679
0
0.629238
0
0.768648
0
0.615876
0.368921
0
0.835595
0
0.639807
0
0.835845
0.665632
0.318369
0.388423
0.514398
0
0.74605
0.738744
0.473299
0.594354
0.462053
0.47142
0.61356
0
0.692391
0
0.627708
0
0.4256
0.102475
0.365013
0.729811
0.57334
0.671619
0
0.45153
0
0
0.856728
1.1139
1.43602
0.695321
0.528862
0.306189
1.18328
0.611891
0.317956
0.384948
0.44655
0.742137
0.976952
0
0
0.523119
0
0
1.38116
0.906486
0.615934
0.871546
0.150814
0.585531
1.05117
0.926145
0
0
0.872654
1.38788
0.546942
0
0.637187
0.525008
0.282032
0.436991
0.377925
0.707669
0
0.895069
0.829896
0.696022
0.5456
0
0.641199
0.607991
0.702609
0.191992
0.797015
0.765526
1.58973
0.234231
0.498363
0.79524
1.14216
1.0443
0.345831
1.79198
0.308197
0.815362
0.528446
0.44745
0
0.535463
0
0.875868
0.757329
0
0.693073
0.980464
0.65725
0.587092
0.769514
1.30319
0.866028
0.9437
0.794287
1.10877
0.718133
0.652769
0.403325
1.41026
0.749005
0
0
0
0.534055
0
0.426728
0
0.703463
0.427283
0.425727
0.603994
0
0.254463
0
0
0.511528
0.282159
0.441802
0.345858
0.514645
0.623536
0
1.11316
0.582842
0
0.439918
0
0.914416
0.485743
0
0.564396
0.950021
0
0.520937
0.35171
0.767197
0
0.495388
0
0.45473
0.291415
0
0.559844
0.732311
0.665798
0.484571
0.541136
0.42165
0.2358
0
0.693563
0
0.742291
0.302128
0.626482
0.497645
0.734895
0.657643
0.424976
0.382208
0.529349
0.650513
0.396184
0.555477
0.701872
0.897148
0.338891
0
0.594816
0.586364
0.529942
0.501243
0.520469
0.932938
0.411015
0.106214
0.375212
0.45774
0.239389
0.754834
1.21282
0.322678
0
1.41472
1.39496
1.50914
0.787961
0.503923
0.85481
1.19421
0
0.70496
0.976662
0.750975
0.559257
0
0.415223
1.10104
0.585706
0
0
0.756163
0
0
0.260081
0.504348
0.378004
0.913098
0.54395
1.15893
0.624902
0.601441
0.472414
0.761097
0
2.31021
1.18278
1.52901
0.734318
0.238389
0.440554
0.77339
0.47018
0
1.04804
0.742295
1.09108
0.423326
1.06653
0.459559
0
0.572235
0.412629
0
0.546138
0.770898
0
0.82793
0
0.455282
0.794435
0.354292
0.738354
1.30326
1.7172
0.508071
0.313082
0.805586
0.340936
0.429217
0
0
0.638129
0.732802
0.60605
0.171315
0.387479
0.517884
0.308419
0.869062
0.457706
0.660737
0.367427
0.28179
0.620229
0.688471
0.306733
0.524242
0.452349
0
0.646864
0
0.753558
0
1.27691
1.51707
0.575865
0.351667
0.614725
0
0.552574
0.953502
0
0.543642
0.106072
0.694486
0
0.810529
0
0
0.0531663
0.375558
0.681751
0.835754
0.496718
0.359742
0.413749
0.620701
0.415674
0.566513
0
0.938328
0.351586
0.964693
0.667666
0
0.481784
1.2208
0
0.862649
0.803431
0
0.746536
1.2328
0.171107
1.10011
0.78509
0
1.06867
0
1.62619
0.987087
0.274261
0
0.332321
0.640287
0.423446
0
1.01915
0.634341
0.789475
0.451896
0.451398
0
0.447135
0.301241
1.39438
0.0290199
0.616525
0.391408
0.450821
0.422547
0.413538
0.207237
0
1.27422
0.694345
0.637353
0.625591
1.31528
1.12796
1.02149
1.24659
0.599834
0
0
0
0.494294
0.857962
0
0
1.15707
0.592366
0.319413
0.583619
0.540267
0.660533
0
0.667774
1.1123
0.382432
0.286644
0.632912
0.542376
0
0.453144
0
0.456631
0.501305
0.397242
0.120993
0.586057
0.292581
1.00497
0.98833
0
0.735169
0.665439
0.431417
0.752203
0.72973
1.38396
0
0.861544
0
0.387807
0.509835
0.479764
0.31665
0.542648
0.618827
0.337212
0.551636
0.278781
0
1.52878
1.17836
0
0.452595
0
0.401012
0.888974
0.864975
0.845738
1.88819
1.02404
0
0.760919
0.440739
1.01101
0
0.710709
0
0
0.368673
0.374494
0.30786
0
0.610319
0.633352
0.500185
0
0
0.485406
0.41776
0.618236
1.44086
0
0
0.395384
0.639207
0.989031
1.59795
0.812224
0
1.10527
1.209
0.948255
0.559908
0.460936
0.529424
0
0.702037
1.25631
1.06463
0
0.655727
0
0.890192
0.902202
0.846935
0
0.285574
0.49673
0.279829
0
0.68047
0.112249
0.351123
0.429287
0.605961
0.454767
2.58213
0.775878
0
1.14813
0.64239
0.888926
1.01012
0.361198
0.289619
0.128119
0
0
0.397603
0
0.502285
0.496796
0.540773
0.553184
0.705619
1.60198
0.778116
0.523232
0
0.766612
1.68819
0.496909
0.573257
0.341469
1.39829
0.716389
1.02157
1.52522
0.405853
0.475154
1.08779
0
0.477682
0
0.734478
0
0.777869
0.389131
0.701334
0.881698
0
2.27949
0
1.23662
0.674461
0.41235
0.342567
0
0.529483
0.233006
1.31471
0
0.651746
0.673733
0.408371
0.78891
1.74076
0.527771
0
0
0.544329
0.82536
0.606153
0.277347
0.653845
0.84314
1.17764
0.793501
1.14269
0.624573
0.738061
0.881359
0
0.470515
0.62821
0
0.60188
0.573779
0.658479
0.393414
0.432352
0.202446
0.741378
0
0.512972
0.430985
0.635527
1.01554
2.59024
0.264036
0
0.560643
0.668183
1.09033
0.552625
0
0
0
0
0
0
0
0
0
0
0
0
0
0
0
0
0
0
0
0
0
0
0
0
0
0
0
0
0
0
0
0
0
0
0
0
0
0
0
0
0
0
0
0
0
0
0
0
0
0
0
0
0
0
0
0
0
0
0
0
0
0
0
0
0.439603
0.488337
0
0.725226
0.595923
0
0.712267
0.871081
0.468602
0.519069
0.335685
0.544919
0.40377
0
0.661749
1.42816
0.435099
0.85729
0
0.43605
0.512219
0
0.507464
0.854138
0.242866
0.469898
0.0350335
0.415534
0.378673
1.1105
0.649556
1.03067
0.914193
0.22032
0
1.00154
0.19511
0
0.992133
1.66846
0.643791
0.919932
0
0.441224
0.853748
0
0.505244
1.02576
1.83967
0.672469
0
1.45099
0.495162
0
2.03997
1.27153
0.299217
0.684857
0
0.418932
0.551502
0
0.29193
0.534448
0.78444
0.503054
0.783343
0.632736
0.567433
0.830274
0.483762
0
0.490376
0.770201
0.613704
1.48867
1.48142
0
0.408182
0.972188
0.496551
0
0.309377
0.2931
1.07927
0.474048
1.32234
0
0
0.671319
0.744068
0.61737
0.634177
0.784602
0
0.436389
0.977373
0.68845
0
0.337014
0.678826
0.373289
0
0
0.466229
0
0.666352
0
0
0
0
0
0.513358
0.783572
0
0.442394
0
0
0.346665
0.346133
0.870159
0.569432
1.37247
0.138936
0.713653
0.224155
0.553465
0
1.60976
0.616432
0.740547
0.435292
0.681825
0.483878
0.576511
0.149017
0.416514
0.626208
0.346336
0
0.925847
1.29143
0.846814
0.209521
0
0.621091
0
0.523165
0.375802
0.419661
0.892022
1.4707
0.928002
0
0.370364
0
0.732154
0
0.750618
0.842294
0.951196