<?xml version="1.0"?>
<VTKFile type="RectilinearGrid">
<RectilinearGrid WholeExtent="0 32 0 32 0 32" Origin="0 0 0" Spacing="1 1 1">
<Piece Extent="0 32 0 32 0 32">
<PointData>
</PointData>
<Coordinates>
<DataArray type="Float32" format="ascii">
0 0.524874 1.04975 1.57462 2.0995 2.62437 3.14924 3.67412 4.19899 4.72386 5.24874 5.77361 6.29849 6.82336 7.34823 7.87311 8.39798 8.92285 9.44773 9.9726 10.4975 11.0224 11.5472 12.0721 12.597 13.1218 13.6467 14.1716 14.6965 15.2213 15.7462 16.2711 16.796 
</DataArray>
<DataArray type="Float32" format="ascii">
-5.03879 -3.62163 -2.20447 -0.787311 0.629849 2.04701 3.46417 4.88133 6.29849 7.71565 9.1328 10.55 11.9671 13.3843 14.8014 16.2186 17.6358 19.0529 20.4701 21.8872 23.3044 24.7216 26.1387 27.5559 28.973 30.3902 31.8074 33.2245 34.6417 36.0588 37.476 38.8931 40.3103 
</DataArray>
<DataArray type="Float32" format="ascii">
0 0.524874 1.04975 1.57462 2.0995 2.62437 3.14924 3.67412 4.19899 4.72386 5.24874 5.77361 6.29849 6.82336 7.34823 7.87311 8.39798 8.92285 9.44773 9.9726 10.4975 11.0224 11.5472 12.0721 12.597 13.1218 13.6467 14.1716 14.6965 15.2213 15.7462 16.2711 16.796 
</DataArray>
</Coordinates>
<CellData>
<DataArray type="Float32" Name="Scalar" format="ascii">
0
0
0
0
0
0
0
0
0
0
0
0
0
0
0
0
0
0
0
0
0
0
0
0
0
0
0
0
0
0
0
0
0
0
0
0
0
0
0
0
0
0
0
0
0
0
0
0
0
0
0
0
0
0
0
0
0
0
0
0
0
0
0
0
0.204691
0.302475
0
0.220991
0.185334
0
0.188592
2.18607
0.150979
0.240128
0
0.159258
0.443678
0
0.437661
1.33103
0.304996
0.198339
0
0.238413
0.254499
0
0.349856
1.18543
0.197461
0.436536
0
0.19333
0.18796
0
0.304339
2.15544
0.286819
0.78834
0.48507
0.308602
1.00811
0
0.245136
0.972705
1.29127
0.291829
0
0.459892
0.198965
0
7.7568
0.492502
0.138269
0
0
0.178306
1.3721
0.640573
0.477844
0.506455
0.729147
0.188614
0
0
0.269551
0
2.19839
1.18633
1.44224
1.11014
0.867412
1.40074
1.3033
0
0.77297
0.588198
0.617954
0
0
0.735732
0
0.764365
1.95569
0.586638
0
0.534568
1.09994
0.662111
0.972812
2.00173
0.798918
0.844728
0.270514
0.235808
0.859381
0.274837
1.32925
0.251963
0
1.3195
0
0.535669
0
0.787442
1.17672
0.94957
0.996478
0
0.944748
0
0.624527
0
1.29617
1.50076
1.04841
0
1.15116
0.729507
1.02239
1.727
1.01833
0
0.263882
0.729107
1.87782
1.58735
0
0
0.357822
0
0
2.60755
0.642133
0.397338
0
0
0
0.539758
0
0
0.678606
0.862888
0.518379
0.255792
0.984503
0.715299
1.85553
0.584549
0
0.786355
0.763338
0.507731
0
0.231247
2.12721
1.13733
1.00343
0.639914
0
0
0
0
0.770189
0.89931
0.780607
0.628885
0.30847
0
1.58478
0
2.95648
1.19306
0
0.200678
0
0.700979
0.30965
0
0.857102
0.646738
0
0.596209
0.905365
0
0.624217
0.341337
0.903365
0.994596
0
0
0.849567
0.598982
0.523838
0.991369
0.892398
0
0.774171
1.3245
0.979659
0.584184
0
0
0.486634
0
0.696094
0.481055
0.727205
0.790396
1.48506
1.59935
0
0.513374
0
0.863802
0
0.360825
0
0.288326
0.654098
0.363216
0.452019
0.918112
0.52243
1.03032
0.377428
0.533671
0.987619
0
0
0.352305
0.348481
0.447748
0
0.512217
0
0
1.04918
0.772487
0.885669
0.774769
0.763118
1.02343
0.623457
1.28963
0.914191
0.505527
0.299371
0.600359
0.958486
0.245818
0
0.484222
0.452954
0.534298
0.530611
0.502097
0.556742
0.236534
0.319132
0.994816
0.381147
0.351432
0.420679
0.389793
0.705936
1.01784
1.19751
0.159165
0.288341
0.833392
0.99059
0.541336
0.465494
0.433057
0
0
0.505596
0.522454
0.780217
0
0.464259
0.526645
0.510913
0
0.400681
0.32799
0
0
0.376815
0.395208
0.726286
0.304213
0
0.592527
0.427289
0.476174
0
1.0671
0
0.771261
0
0.542153
0.263469
0.747415
0
0
0.553475
0
0.691349
0
0.482015
0
0.442016
0.796889
0.290202
0.615686
0.930833
0
0.113872
0.492256
0
0.425099
0
1.26541
0
0.675984
0
0.718839
0.632051
0
0.698634
0
0
0.22439
0.773388
1.7498
0
0.856984
1.75122
0
0.63094
0.316413
0.854532
0.87688
0.713962
0
0.262141
1.07356
0
0.43041
1.16813
0.785073
0.679344
0.844793
0.602052
0.637856
0.624564
0.105129
0.556626
0
0.401475
0.530844
0.227589
0.582864
0.422415
0.0315738
0.361015
1.61768
0
0.635681
0.346979
1.19514
1.37736
0.81655
0.463559
0.70728
0
1.21261
0.279435
0.474229
0.243676
0
0.341225
0
0.884969
0
0.709722
0
0
0.258862
1.35068
0.718793
0.150137
0.601145
0.691832
0.640333
0.751286
0.62188
0.614233
0
0.849268
0.655619
0.680995
0.460175
0.463273
0
0.332846
0.308246
0.556036
0.293828
0
0.69086
3.70721
0.595727
0.657175
0.503468
0.569361
0.494789
0.65536
0.684761
0.707699
0.631724
0.0785352
0.508523
0
1.66039
0.687514
0.41284
0
1.51495
0.870428
0.464879
2.74793
0.806866
0.61702
0.475646
0.446406
0.501494
0.465267
0.918332
0.626279
0.263493
0.761651
3.56713
1.11853
1.54748
1.15944
0
0.78214
0.730831
0
0.19615
0
0
0
0.651963
0.0295544
0
0.703816
0
0
0
0.85872
1.06604
0
0
0.61689
0.663169
0
0.502773
1.03529
0.879311
0
0.593409
0
1.16412
0.814762
0.995025
1.06882
0.464925
0.929984
0.817407
0.509315
0.814308
0
0.462161
0.858241
0
0.906036
0
0.393726
0
0
1.00214
0
1.32739
0.813429
1.27517
1.03776
0.786528
0.697512
0
1.34849
0.546089
0.816732
0
0
0.526284
0.721706
0.450241
0.532776
0.362508
0.554742
0.457142
0.33677
0.450482
0
0
0.575399
0
0
0
0.780168
0.921203
0
1.12579
0
0.470619
0.317349
1.41799
0
0.970454
0.6406
0.49724
0
0.526677
0
0.194265
0.340477
0.275441
0.37214
1.0089
0
0.373985
0.571868
1.30303
1.31624
0.570224
0.827399
0
0.500623
0.369303
0
0
1.06497
1.95269
1.55511
0.608839
1.06587
1.04098
0.452453
0.853144
0.930965
0.816606
0.613603
0.545765
1.26674
0.540953
0.585724
0.668568
0.2483
0.554674
0
1.15764
0.418514
0
0
0.717678
0.7748
0
0.906165
0.924432
2.57991
0
0.34335
0
0.395066
0.606858
0.838709
0.587698
0
0.21704
0
0.559649
0.426676
0
0.306159
0.289496
0.413522
0.475113
1.32675
0.888311
0.929612
0.665059
0.537248
1.05401
0.52505
0.369682
0.733043
0.608615
0.94332
0.534485
0.391934
0
0
0
0.286646
0
1.38471
0.362737
0
0.99465
0
0
0.519207
0
0.75914
0.540855
0.551925
0
0.855223
0.406209
1.1752
0.694368
0.444939
0.862386
0.19103
0.676497
0
1.09923
0.0185867
0.659695
0
0.39746
0.596921
0.883176
0.493281
0
0.627906
0.507329
1.1338
0.382654
1.26827
1.19104
0.513504
0
0.488998
0
0.785693
0.457098
0.860184
1.17753
0.715971
0
1.26796
0.917504
0.422728
0.347908
0.474021
0
0.729077
0.71418
0.595894
0.407904
0.27732
0
0.604668
0.434697
0
0.493934
0.228406
0.316659
0.456269
1.15719
0.581279
0.860983
0.595097
0.418618
0.325468
0
1.36458
0.220628
0.330067
0.715147
0.394483
0
0.429081
0.826119
0.907683
0
0
0.848384
0.705434
0.851403
0.996907
0.916457
1.83404
0.593803
0.391605
0.484483
0.336052
0.708257
0.716694
0.257791
0.266518
0.223204
0.59409
0
0.675573
0.629036
0.444695
0
0.87689
0
0.951609
0.478054
0.457435
0
0.47791
0.371755
0.434099
0.509537
0
0
0.416293
0
0.249623
0
0.454163
0
0.606712
0.718247
0.702817
0.550523
0.388562
0.37792
0.416107
0.318987
0.481764
0
0
0.49254
0
0.814254
0.429018
0.0855137
0
0.283391
0.499817
0.949015
0
0.705136
0.514816
0.345733
0.493249
1.13352
0.403351
1.07768
0.638059
0.280772
0.604094
0.398847
0.809727
0.642307
0.522138
0.55165
0
0
0.28962
0
0.608655
0.255177
0.544595
0
0
0.690246
0
0.50309
0
0.379484
1.21058
0.506016
0
0.404825
0
0.562509
0.358253
0.34248
0.752028
0.668009
0.491047
0.484678
0.704665
0
0.701851
0.586432
1.14633
0
0.58335
1.0385
1.02462
0.781231
0.636046
0.272948
0.633708
0
0.233179
0.646181
0
0.469795
0.500858
0
0.714928
1.80466
0.655304
0
0
0.467074
0.787337
0
0.44593
0
0.397943
0.710386
0.728669
0.757178
0
1.0151
0.779521
0.964702
0
0.693354
1.04256
0.571016
0.631867
0.356548
0.406084
0.69639
0
0.498382
0
0.998393
0.984892
0.780772
0
0
0
0.854989
0.52496
0.259905
0.39956
0
0.820201
0.659176
0
0.901559
0
0.251756
0.962346
0.909006
0
0
0.528969
0.603492
0
0.666663
0.719444
0.445971
0.478556
0.919762
0.307831
0.248764
0.692496
0.57553
0.646624
0.687636
1.03515
0.51265
0.433751
0
0.302151
0.92995
0.184233
0.281082
0.373433
0.488421
0.550755
0.292709
0.925592
1.3394
0.789102
2.68157
1.00437
0.822141
0.900668
0
0.316541
1.08408
0.562681
1.65007
0.769393
0.53425
0.655468
0.447352
0.361842
0
0
0
0.659224
0.399552
0.58684
1.96567
0.793471
0.364596
0
0
0.589002
0
0.682812
0.145515
0
0
0.434385
0.593541
0.56025
0.494972
0
0.0971534
0.595527
0.721171
0
0.357522
0.794355
0.270936
0.574627
0
0.39938
0.639516
0.522767
0.663081
0
0.620951
0.597912
0.631474
0.774852
0
0.406181
0.234292
0.388241
0.199872
0.491994
1.41439
0.797244
0.965437
0
0
0
0
0
0
0
0
0
0
0
0
0
0
0
0
0
0
0
0
0
0
0
0
0
0
0
0
0
0
0
0
0
0
0
0
0
0
0
0
0
0
0
0
0
0
0
0
0
0
0
0
0
0
0
0
0
0
0
0
0
0
0
0
0.308328
0.621053
0
0.59158
0.648264
0
0.669421
0.520504
0.240207
0.806275
0
0.401705
0.482031
0.731515
0.541612
0.843335
0.211575
0.413981
0
0.643762
0.549091
0
0.312028
1.32343
0.486915
0.361631
0.689793
0.590616
0.439021
0
0.512865
0.803776
0.33583
0.670329
0
0.878826
0.526604
0
1.75909
0.651041
0.295808
1.68872
0
0.185559
0.877912
0
0.413302
1.02348
0.142377
0.440586
0
1.03549
0.456433
0
0.870091
0.668956
0.233108
0.365265
0
0.462943
0.69815
0
0.172392
0
1.28023
0.454318
1.07808
1.24041
1.56111
1.26237
1.10717
0.720286
2.27666
0.918261
0.686362
0
0.810509
1.90703
0.785142
0.76542
1.09202
1.3441
0.485863
1.04119
0.425051
0.477909
1.00971
1.03846
0.672391
0.835237
0.933244
0
0.294595
1.02355
0
0.907823
0.725482
1.48576
0.655405
0.384938
0.509687
0
0.939315
0.932809
0.661867
0.0950943
0.878434
0.496151
0
0
0.653334
0.629251
0.731512
0
1.13637
1.72937
1.54289
0.505558
0.608264
0.6183
0.579008
0.589851
1.03223
0
0.571045
0
0.333083
0
0
0.752271
0.395268
0.806433
0.565283
1.43535
1.09777
0.678892
0.93686
0.423431
0
0.726199
0.803876
0.775736
0
0.946364
1.3007
1.12419
0
0.709419
0.584962
0.812875
0.363003
0.731946
0.740837
1.23018
0.636996
0.609501
0.749963
0.210381
0.37259
0.662552
0
0.582016
0.404161
0.502533
0.484553
0.855592
1.46965
1.00554
0.711548
0.80662
0
0.889585
0
0.757171
0.74627
0
1.29846
1.44889
0.922016
0.676613
0
0
0.576434
0
0.698974
0.812826
0
0.935091
1.5523
3.4725
1.4692
0.770683
0
0.230287
0.805592
0
0.585557
0.977472
0.823412
0
0.91659
0
0.696651
0
0
0.620814
0.411547
0.362963
0.843958
0.423193
0.607298
0.537975
0.779903
0
0
0
0.658279
0.765962
0.604788
0.621698
0
0.833417
0
0.586906
0.591074
0
1.08648
0.637016
0
0.609411
1.05195
0.599862
1.64974
0.113562
0.566271
0
0.934087
0.452122
0.356364
0.606289
0
0.853904
0
0.484633
0
0.462866
0
0.662649
0
0.666457
0
0.271863
0.521058
1.1816
0.137179
0.776304
0
0.507843
0.67427
1.12152
0
0
0.901108
0
0.528436
0.26098
0.516021
0.0910356
0
0.321079
0.548016
0.399305
0.669639
0.877391
2.331
0.646961
1.58132
0
0
0.54687
0
0.599503
0.420412
0
0.311886
0
0.398656
0.497014
0.547067
0
0.629535
0.677721
1.56198
1.05766
0.931726
0.463371
0.427825
0.828901
0.777879
0.806639
0.479295
0.442891
0.0978156
0
0.284886
0
1.20659
0.897352
1.0138
0
0.719209
0
0.760393
0
1.14468
0.348716
0.124732
0
0.388138
0
0.362522
0.954974
1.05635
1.02807
1.05403
0.866208
0
0.317803
0.556637
0
0.419747
0.354253
0.61363
2.34558
0.620681
0.45535
0
0
0.397278
0.737403
0.603801
0
0.418554
0
0.824037
1.73086
0.496488
0.425073
0
0.594276
0
0.439451
0.797069
1.46979
0
0
1.24977
0.945748
0.383546
0
1.30804
0.790034
0.961463
1.08589
1.16562
0
0
0.712964
0.890022
0.88584
0.500824
0.365977
0.524782
0.541792
0
0
0.295741
0.421117
0
0
0.430231
1.21998
1.72882
1.64644
0.44931
0
0.39026
0.305369
0.546177
0
0.277175
1.80215
0
0
0
0.427291
0
0.718723
0.684984
1.14676
0.326975
0.462852
0
0.744457
1.3429
0.369859
0
0
3.04985
0.779487
0
0
0.961377
1.09855
0.509796
0
0
0.794493
0.807111
0
1.07044
0.913655
0
0.510325
0
0
1.22519
0
0.703363
1.1111
0
0.687074
0.66708
0
0.784098
0.986052
2.14369
0.453551
1.41403
0.290299
0.202338
1.19155
0.779698
0
0.329398
0
0
0
0.223128
0.412613
0.674351
0
0.632552
1.23498
0.407412
0.601986
1.02263
0.257057
0
0.592418
0.779005
0.656289
1.09189
0.639541
0
0.509388
0
0.296022
1.12575
1.83537
1.8139
1.05708
0
0.719846
0.591561
0.444292
0
0.455749
0.46014
0.216981
0.726216
0
0.626614
0
0.84654
0.733894
0.419849
1.24521
1.02405
1.06153
0.990453
1.03556
0.739769
0.962609
0
0.322807
0.847523
0.372984
0.398369
0.779199
0
0.405825
0.519822
0.229233
0
0
0
0.67598
0.358534
0
0.535478
0.440582
1.35022
0.8925
0.328999
0.823569
0.886574
0
0.876477
1.26447
0.551739
1.03505
0.606269
0.595953
0.856334
1.67609
0.488614
0.427184
0
0
0
0.0521857
0
0.40024
0.451781
0
0
1.11737
0.75044
0
0
0.869219
0
0
0
0
1.27356
0
0.845322
0
0.668825
0
0.615095
1.09408
0
0.471829
0
0
0
0.184654
0
1.00504
0.963508
0.729924
0
0.949564
1.05009
0.633259
0.904223
0.426726
0.891532
0.391355
0
0.676072
0
0.509921
0
0
0.804015
0.366531
0.350556
0.525009
0.616324
0.406878
0.816195
0
0
0.446574
0
0
0.545709
0.280795
0.529643
0.483482
0
0.687247
0.451722
0.625553
1.28237
0.436634
0
0.362454
0.425928
0.260247
0.829049
0.807904
0.159787
0.575511
0
0
0.337892
0
0.576307
0.676624
1.27155
0
1.3471
1.14233
0.942047
0.535025
0.425282
0
0.846301
1.54138
1.17049
0.880042
0.392174
0.616273
0.35132
0.626433
0
0.944583
0
0
0.687169
0
0.802599
0
0.938276
1.02385
0.944933
0.829843
3.71295
0.454504
0.528444
0.847043
0.426328
0.991616
0.39929
0
0
0.438014
0
0.629023
0.179392
0.655877
0.692833
0.533937
0.713482
0.56441
0.751165
0.658415
1.47318
0.447011
0.756482
0.833163
0
0.643342
1.5949
0.557953
0.648254
0.957015
0.182544
0.792375
0
0
0
0
0.398751
0.819755
0.28067
0.582926
0
0
0.618821
0.520812
1.07222
0.0399927
0.507624
0
0.554831
1.0238
0.572767
0.649977
1.08746
0.576115
0.440449
0.904923
0.711124
0.830264
0.900104
0.759074
0
0.172089
0.412073
0.916475
0.793573
1.68418
1.09094
0
0.652186
0
1.05237
0.908354
0.707385
0.373294
0.286077
1.53445
0.699299
1.094
0.674699
1.53068
0.832582
0
0.583377
0.13445
0
0.697543
0.836255
0.447783
0.840503
0.795463
0.958736
0.672815
0.6534
1.14242
0.996126
0
0.370063
0.581569
0.257869
0.783762
0.344005
0.353288
0.327242
0.574224
0
0.646228
0
0
0.640485
0
0.610334
0
0.23134
0.669695
0.386841
0.690816
0.364704
0.431654
0
0.55182
0
0.601982
1.08924
0.851995
0.859367
0
0
0.712689
0
0.1712
0.489955
0
0.41369
0
0
0.55767
0.405777
0.553491
0.646969
0
0
0
0
0.630079
0
0.491726
0.971583
0
0
0.305697
0
0.547225
0
0.224612
0.321103
0
1.01271
0
0.638757
0.373029
0.776714
0
0.544213
0.870022
0.727334
0.59788
0.509753
0.586569
0.876165
0
0.521598
0.39235
0.666118
0.542794
0.520212
0.762403
0
0
0.420885
1.26836
0.493363
0.458589
0.393868
0.502941
0.546436
0.802146
0
0
1.25749
0.464072
0.657501
0.973985
0
1.31905
0.697289
0
0.884028
0
0
0.596959
0.407075
0.540703
0.444322
0.835869
0
0.554272
0.458203
0.919619
0.78087
0.694505
0.897164
0.222858
0
0.277853
0.385896
1.22107
0.497221
0.562746
0.379841
0
1.25381
1.01458
0.751038
0.789858
0.624279
0
0.205716
0.906244
0.905591
0.898932
0.271472
0.174354
0
0.470299
0.222997
0.30093
0.517534
0.841755
0.263241
0.531687
0.788702
0.219019
0.648408
0
1.02321
0.787109
0.32545
0.834901
0.71568
0.646616
0.678081
0.452552
0.654748
0.976427
0.97927
0
0.292701
0.285309
0
0.342437
0.226418
0.501321
0
0.631424
0
0.28876
0
0
0.676706
0
0.572006
0
0.47519
0.21926
0.305752
0.445597
0.866609
0
0.257201
0.84686
0.49299
0
1.05584
0.384282
0.816302
0
0
0.603914
0
0.58452
0.187864
0.438219
0.490562
0.49939
0
0.525687
0.643015
0.528752
0.216169
0.778523
0.974121
0
0.29219
0
0.476824
0
0.353443
0.483924
0.318374
0.484543
0
0.466597
0.343893
0.442077
0
0.629718
0.866785
0.574307
0
0
0
0
0
0
0
0
0
0
0
0
0
0
0
0
0
0
0
0
0
0
0
0
0
0
0
0
0
0
0
0
0
0
0
0
0
0
0
0
0
0
0
0
0
0
0
0
0
0
0
0
0
0
0
0
0
0
0
0
0
0
0
0
0.952636
1.5749
0
2.16967
0
0
0
0
0
0.584973
0
0
1.071
0
0
0
0
1.98511
0
0.401196
0
0
0
0
0.593567
0.705506
0
1.16868
1.22246
1.76152
0.711883
1.03412
0
2.57395
0
0.832517
0
0
0.664448
0
0
0
0
0
0.355364
0
0
0.780656
1.12144
0.777734
0
0
0
0
0
0
0
0
0
0
0
0
1.51618
0.234791
0.53307
0.120847
0
0
1.88672
1.30146
0
0.680268
0
0.377664
0
0.858933
0.666519
0
0.404493
0
0
1.12824
1.48349
0.576148
0.611604
0.401347
0.676023
0
0.373101
0
0
0.819604
0
0.639942
0.710293
0.514401
0
0
1.10269
0
1.64363
0.279706
0
0.660333
0.432851
0.723668
0.353726
1.11133
1.14497
0.668311
0
0.361891
1.10854
0.394656
0.910425
0.35086
1.13827
0
0.339662
0.312717
0.479453
0.388866
0.439074
0.476973
1.38522
0.823659
0
1.4717
0
0
0.528759
0
0.330531
0
1.18575
0
0.804605
0.545041
0.435863
0
0.634393
0
0.481439
0.534857
0.57521
0
0.626946
0
0.847893
0.884497
0.533388
0.456109
0.549235
0
0
0
1.92651
0.537782
0.534658
0.925835
0.368395
0.300962
0
0.662523
0.756579
0.963503
0
1.59927
0.708302
1.39756
0.741539
0
0.982829
0
0.339004
0.43671
0
0.389298
1.05247
1.63427
0.613165
0.421271
0.451882
0.811349
0.312772
0.423385
0.492772
0.894911
0.794925
0.981773
0.168942
0.920874
0
0.571435
0.429192
0
0.563455
0.423449
0.669993
0
0
0
1.74959
1.20755
0.958481
0
1.20778
1.00885
0
1.33452
1.16216
0.66803
0.962476
1.09905
0.714095
0.696685
0.633064
0.905483
0.417433
0
2.90211
1.43162
0.961335
0
0.550468
0
0.443583
0
0.547194
0
0.975802
0
0.542073
0.699145
0.613539
0
1.31205
0
1.0362
0.597931
0.697033
1.42486
0.527857
0.779389
0.697232
1.36522
0
0.470025
0
1.1
0
0.599135
0.748368
0
0.374819
0
0.953551
0
0
0.43529
1.30462
0
0.916621
0.389232
0.621509
0
0
0.428074
0.247574
0.289702
0.682862
0.86606
0.957808
0.409254
1.21835
2.39229
0.611236
0.774553
0.338258
0.566874
0
0.262328
0.544051
0.660299
0.507296
0.620541
0.313483
0
0
0.932751
0
0.305239
0.911202
0.618673
0
0.408099
0.790867
0.842574
0.584356
0.676057
0.864817
0.335719
0.517355
0.259912
0.270941
0.410042
0.882231
0.341272
0.970875
0.656666
0.822532
0.576127
0
0
1.72498
1.03443
0.30864
0.597795
0
0
0
0.488241
1.29111
0.375169
0.717686
0
0.568668
0.324359
0
0.826343
0.68469
0.314626
0.665665
0.796913
1.09452
0.654448
0.47076
1.32475
1.03201
0
0
0.321031
0
0.572651
0.534905
2.00111
1.35118
0.816136
0.235894
0.786717
0
0.445679
0.440455
0
0.485963
0
1.00754
0.92763
0.518598
0.613756
0.368528
0.943895
0.650756
0.942378
0.995065
0.974684
0.653371
0
2.15804
0.661191
0.962728
0.570846
0
0.753429
0.253041
0.69203
0
0
0.478079
0.262571
0.321487
0
0.624156
0
0
0.34299
0
1.26144
0.830451
0.655132
0.695977
0.637523
0.865598
0.463641
0.487496
0.592709
0
0.889545
0.882971
0.745046
0
0.59309
0
0.831116
0.696897
0.518117
0.86596
0.640861
0
0.374525
0.529577
0.343625
0.666803
0
0.633002
0
2.1471
0.534089
0.727313
1.00574
0
0.224653
0.589514
1.31626
0.828382
0.285865
0.546701
0.108213
0.479905
1.01867
0.571514
0.537936
0.768111
0.584456
0.338785
0
1.12743
0.756519
0
0.524892
0.7831
1.26556
0.306333
0
0.636748
0.677766
0.556834
0.702576
0.463057
0
0.535358
0
1.04585
0.337756
0.516771
0
0.382217
0.291199
0
0.433673
0.533862
0.531734
0
0.221858
0.208953
0.286506
0.925389
0.943257
1.47045
0
0.737676
0
0
0
1.02581
0.535514
0.807541
0.645639
0.25827
0.906771
0.326895
0.396251
0.530862
0.665839
0.580316
1.16861
0.254325
0.985303
0.693669
1.28089
0.581089
1.133
0.568871
0.290359
0.492232
0.328838
0
0
0
0.500622
0
0.482505
0
0.678674
1.00552
1.23301
0.452854
0.876497
0.315024
0.476899
0
0.620982
3.54047
0.337698
0.249107
0.558967
0.19706
1.00393
0.543068
1.2325
0.621838
0
0
0.642241
0.467852
0
1.23322
0.330377
0.735867
0
0.328719
0
0.465707
0
0
0.536051
0
0.883397
0.578527
0.471212
0.496848
0.444478
0.404158
0
0
0.381038
0.687264
0.651761
0.466135
0.282487
0
0.408729
0.486824
0.36392
0.848324
0.705106
0.486498
0.400717
0
0.449094
0
0.563663
0.929955
0.316094
0.758077
0.616082
2.53
1.20953
0.68894
0.644056
0.88837
1.51144
0
0.834202
0
0.344346
0
1.98679
1.69153
0.847928
0.35784
0.258716
0.970877
0.560508
0.628092
0.498363
0.750551
0
0.682493
0.201546
0.233374
1.05468
0.732665
0
0.795207
0.686701
0
0.571484
0
0.601287
0.502808
0.46559
0.307762
1.31328
0.937412
1.5679
0
0
0.306364
0.399846
0.312186
0
0.435146
0.673281
0.638807
0.666599
0.614159
0
0
0
0.338428
0.290119
1.09124
0
0.383024
0
0.24133
0.421959
0.760719
0.668709
0
0.471366
0.828616
0.723232
1.05063
0
0.746482
0
0.331341
0
0
0.920829
1.91007
1.40326
0.594103
0.610857
0.842034
2.0506
0
0.627015
0
0.584729
0
1.12546
0
0
0.624776
0.458718
0.931171
0
0
0
0.29266
0.833724
1.30771
0.866419
0.865012
0.714764
0.423821
0.555038
0.286377
0.546624
0.68244
0.778732
0.944931
0.845298
0.806738
0.657486
0.473694
0.445239
0
0.782886
0.429318
0.709049
0.920852
0.412207
0.83722
0.403574
0.365596
0.562631
0.631446
0
0.571716
0.237578
0.51923
0
0
0
1.19539
1.13117
0.539352
0.520362
0
0.23426
0.503981
1.40025
0.750339
0
0.852248
0.155559
1.62089
0
0.749257
1.00184
0.487485
0.806998
0.512054
0.871851
0.435014
0
0.254313
1.07093
1.96179
0.488994
0
0.986791
0.45607
0.728972
0.364278
1.52803
0.487579
1.32587
0.229864
1.48466
0
0
0.365001
0.512027
0.871392
0.485629
0.367476
0.433431
0
0.121853
0.553216
0
0.393456
0
0.555735
1.07527
0
1.53304
0.754934
0.676601
0.687833
0.78498
0.542452
0.644918
0.91426
0.599297
0
0.527799
0.564993
0.563351
0.541593
0
0.571076
0.582863
0.661051
0.717634
1.04247
0.0784348
0
0.158517
0.907438
0.419418
0.579391
1.04735
0.565386
0
1.41831
0.65057
0.484523
0.749742
0.676017
1.1048
0.262788
0.659615
0
0.763178
0.494336
0.475503
0
0.987179
0.821684
0.389648
0.436678
0.378657
0.905467
0.934734
0.54346
0
0
0.336532
2.48142
0.586369
0
0.676331
0.533209
1.57744
0.443825
0
0
0.328171
1.07618
0.781513
2.42879
1.03109
0.598066
0.839539
0.73296
0.416763
0.626691
0.504888
0
3.11189
0
0
0.66816
0
0.413225
0.555331
2.4379
1.53081
0.52752
1.92591
1.17186
0.484853
0.425598
0.392184
0
0.433435
0
0.307991
0.875759
0.574812
0.680301
0
0.695025
0
0.263238
0
0
0.418948
1.05322
0.752543
0.503963
0.63416
0
0.355858
0.826751
0.365817
0
0.187561
0.554796
0.175922
0.291341
1.1805
1.08276
0
0.62125
1.36814
0.865732
0.690114
0.602812
0.477971
0.378377
1.08449
0.458802
0
0.423443
0
0.565954
0.528597
0.824004
0.591268
1.47474
0.190955
0.697634
0
2.06483
0.734182
1.02658
0
0.324727
0.40324
0.76273
0.634987
1.70163
0.902769
0.813012
0.590319
0.460647
0.305505
0.890193
0.661727
0.24607
0.34634
0.431602
1.10818
0.461457
0
0.403034
0.390811
0.605961
0.599126
0.679209
0.958501
0
0
0.633237
0.470153
0
0.461916
0.890642
0.697001
0.882035
0.899929
1.13337
1.42767
0.368481
0
0.606858
0
0
0.378719
0.319354
0.303294
0.402711
0.245457
0.783397
0.818988
0.549694
0.14967
0.485452
0.374186
0.513907
0.496909
0.340929
0.336742
0.283787
0.320083
0.554907
0.242546
0.282342
0.510928
0.618054
0.27686
0.591383
1.25421
0
0
0
0
0
0
0
0
0
0
0
0
0
0
0
0
0
0
0
0
0
0
0
0
0
0
0
0
0
0
0
0
0
0
0
0
0
0
0
0
0
0
0
0
0
0
0
0
0
0
0
0
0
0
0
0
0
0
0
0
0
0
0
0
0.160098
0.795351
0
0.592703
0.580249
0.986625
0.671338
1.1551
0.255989
0.482525
0
0.367654
0.553462
0
0.482302
1.23878
0.389307
0.501122
0.650153
0.466242
0.325157
0
0.637458
1.04916
0.464899
0.681976
0.6978
0.340525
0.469017
1.78786
0.552627
1.38625
0.250943
2.09429
0
0.446051
1.71047
1.14249
0.836305
0
1.57786
0.49372
0
0
0.5576
0
1.1303
0.863676
0.266471
1.21114
0.128864
0.889921
0.868738
0
0.432126
1.34909
1.23201
0.467069
0
1.02753
0.445119
0
2.01683
1.10383
0.726114
0.753542
0.375197
0.49206
3.14855
1.08215
0.644651
0.47688
0.928726
0.703123
1.33983
0.491441
1.0023
0
0.880581
0.317592
0.936186
0.552769
0.875416
1.23778
0.451764
0.380481
1.32178
0.109619
0.312841
0.673832
0
1.68282
0
0.501844
1.08401
0.661751
0.909181
0.698647
0.949128
0
0.551296
0.896096
0.794834
0.460661
0.334696
0.637058
1.00342
0.557472
0
0
1.28568
0.405391
0.668597
0
0
0.434706
0.395528
0.491726
0.451865
0.275211
0.520061
1.11498
0.959324
0.729159
1.33229
0.599333
0.658849
1.14964
1.35388
1.40882
1.04421
0
0.358397
0
0.884716
0.950234
0.630507
0
0
0.687233
0
0.483696
0
0.364778
0
0
0.364828
0
0.782596
0
0.486994
0.682124
0.987081
1.04707
0.793682
0.391878
0.494085
1.4307
1.47155
1.9516
2.76159
0
0.578712
0.875867
0.869881
0.601043
0.31749
0.273131
1.03438
0.673667
0
0.803506
0.417498
0.755605
0.616833
0.311656
0.449902
0.821139
0.800743
0
0
0.948542
0.500667
0.898562
0.780773
0.595806
0.553766
0.871999
1.29362
0.356261
0.256763
1.23762
0
0
0.493555
0.886307
0.743407
0.548832
1.31061
0.878573
1.10637
0.392982
0.514961
0.643384
0
0.676602
0.603797
0.456764
0
0.737277
0
1.10315
0
0
0.238824
1.32295
0.566504
0.514219
0.592728
0.755462
1.58209
0.165747
0
0.363608
0.321744
0
0.355012
0
0.505912
0
1.66166
0.453805
0.950288
0.55658
0
0.670881
0.395774
0
0.467651
0
1.02945
0.518148
0.669483
0.795818
0.476983
0.455474
0
0.954867
0.44542
0.7048
0.603705
0
0.584405
0
0.395495
0
1.29579
0.42523
0.462527
0.343534
0
0.575703
0
0.54279
0.0516315
0.692748
0.557308
0
0
0.606464
0.237617
0.551332
1.2506
0.513732
0.933625
0
0
0
0.431422
0.546866
0.763914
0.557701
0
1.37592
0.658598
0.404321
0.346121
0
0
0.523751
0.499045
1.04012
0
0.800662
0.697295
0.818242
0.42965
0.60635
0.639322
0.678954
0.720145
0
0
0
0.563597
0
0.650181
1.71325
0.872488
1.14959
1.2513
0
0.84133
0
1.48289
0.694745
0
0.516793
0.658879
0.660952
0
0.243266
0.608992
0.43836
0.378183
0.695276
0
1.11793
0
0.51474
0
0
0
0.472442
0.925608
0.722768
0.423397
0
0
0.654016
0.308256
0
0
0.600557
0
1.69095
1.87985
0.719406
0
0.129374
0
0.386411
0.377953
0.645361
0.191528
0
0.94897
0.612607
0
0
0.214135
0.435426
0.930888
0.819833
1.05177
1.18251
1.47749
0.569078
1.30869
0.149624
0.474687
0.461433
0.939916
0.694258
0
0
0.404738
0.739916
0
0.45467
0
1.3998
0.96217
0
0.488126
0.526477
0.566618
0.596507
1.76658
0.422884
0
0.88495
1.86155
0.517703
0.973982
1.13271
0.561786
0
0.843822
0.641128
1.1189
0
0.194879
0.820393
0.417949
0.568562
0
0.34256
0.51641
0.686901
0.546558
0
0.354626
0.340997
0.394713
0.467528
0
0.240237
0.853412
0
0.47145
0
1.25894
1.20601
0.876448
1.22554
1.06237
0.377036
0
0
0
0.488088
0
0.370406
0.567547
0.414042
0.455984
0
0
0.790879
0.155769
0.795893
0.816732
0.590738
1.06288
0.598813
0
0.63204
0.816506
0.822527
0.54498
1.36836
0
0.49236
0
0.616914
1.49566
1.21641
0.755379
0.711717
0.133148
0.345786
0
0
0.548726
0.347121
1.06938
0.905448
0.603707
0.227491
0.713807
1.2002
0.525287
0.730272
0.340627
0.430868
0.732104
3.95587
0.347703
0.0566096
0.78218
0
0
0
0
0
0.396156
0
1.84236
1.79625
0.638197
0
0
0.503607
0.716405
0.399325
0
0.562122
0.157488
0.583163
0
0.451621
0.69359
1.14506
0.743981
1.41885
0.639483
0.504989
0
0.297238
0.561528
0.448484
0.762049
0.574722
0.483432
0
0.451958
0.530923
0.30684
0.644479
0.529974
0.457906
0.543898
1.25748
1.4778
0.858626
0
0.330951
0.853865
0.972167
0.542883
0.518338
0
0.704097
1.615
0
1.93126
1.46279
0.688819
0.659579
0
0.933186
0.836858
0.511071
0.382986
0.767249
0.966456
0.572828
2.07601
0.582501
1.68523
1.22928
0
0.351496
0.153902
0.617227
0.0141584
0
0
0
0.856036
0.354124
0
0.481013
0.473248
0.901074
0.899033
0.505218
0
0.651628
1.10016
0
0.694999
0
0.40403
0.963694
0.515467
1.31828
0
0.566235
0.412495
0
0
0.695575
0.399471
0.615518
0
0.557515
0
0.561514
0.364245
1.33407
0
0.715204
0
0.910449
0
0.505723
0.862832
1.65672
0.739785
0.424581
0.875083
1.21629
1.58135
0.439839
0.715816
0.472509
0.346841
0
0.776126
0.484694
0.540895
0.689916
0.0820294
0.613272
0.809652
0.5223
0.538566
0.631789
0.430598
0.376948
0.508824
0.318888
0.6393
0.78862
1.01075
0.405244
0
0.612246
0.620594
0.95855
0.557476
0.945892
1.19784
1.92198
0.794406
0.990469
1.33869
0
0.49427
0
0.715453
1.07564
0.75526
1.04079
0.977995
0.529735
0
0.969405
0
0.722719
0.586067
0.521308
0
0.732216
0
0.515742
0.737052
0.922596
0.570154
0.418027
0.494552
0
0.264455
1.08787
1.21155
1.01227
0.63195
0.397883
0
0.430645
0.393
1.01406
0.93665
0.791565
0
0.609968
0.749969
0.402043
0.524003
0.284216
0.366501
1.30809
1.47068
0.454138
0
0.37299
0.356993
0.416813
0.654943
0.688716
0.843363
0
1.12723
1.2631
0.423001
0.651394
0.280338
0
0.818696
1.28283
0
0
0.614781
0
0.500571
0.796421
0.263281
0.327101
0.295725
0.855463
0.245774
0.669406
0.0765048
0.656647
0.969368
0.762842
1.14634
0.497955
0.717564
0.314424
0
0.616857
1.06327
0.603256
0.437008
0.541472
0.541397
0.876916
1.07308
1.0292
1.72661
0.623328
0.45574
0.797897
0
0
0.683954
0.342722
0.564869
0
0.85318
0.415238
0.728553
0.603024
0.779415
0.824324
0.753048
0
0.640632
1.70017
1.39395
0
1.04957
0.468696
0.586426
0
0.473032
0.918618
0.947126
0
0
0
0
0.64317
0.547081
0.735722
0
0.451644
0.925391
0
0.410142
0.758894
1.54277
0.973166
0
0
0.686139
0.832832
0.381124
0.589923
1.14369
0.401102
0.359272
0
0
0.64398
0.259289
0.522399
0.668909
0.641695
0.287222
0
1.02021
0
0
0.639918
0.392309
0
0.87304
0.354155
0.322649
0.730318
1.55932
0.94736
0.797036
0
0.577546
0
0.647386
0.251793
0.301306
0.322745
0.447855
0.308428
1.89082
1.03945
0.517405
0
1.24349
0.208321
0.602856
0
0
0.656765
0
0.4892
0.518954
0.485487
0.994288
0.41609
1.00535
0.663068
0.451518
0.539552
0
0
0
0.470842
0.525945
0.194219
0.84509
0
0.577619
0.901956
1.47377
0.65564
0.497946
2.21936
0.467359
0.326525
0.617124
0
0.602914
0.471185
0.471925
0.842065
0
0.346407
0
0
0.590541
1.49087
0
0.856917
0.296958
0
0.780132
0.414779
0.495532
0.40615
0
1.01603
1.10214
0.334709
0
0.661217
0
0
0
0.422879
0.361772
0.38039
0.540584
0.574857
0.967644
0.194437
0.466399
0.269401
0.570777
0.232206
0.527366
0.799559
0.34522
0.819846
0
0.700485
0
0
0
0
0.720286
1.23624
0.118014
0.594242
0.428752
0.76326
0.675986
0.428568
0.835919
0
0.226477
1.09008
0.676433
0
0
2.57718
1.96348
0.55024
0
0
0.691889
0.66675
1.19616
0
0.824357
0.644948
0
1.15938
0.451521
0.997509
0.54685
0.318783
0.505652
1.20948
0
0.946065
1.10693
0
0.899714
0.133885
0.707052
0
0.54768
0.754919
0.449196
0.432736
0.435906
0.650299
0.448154
0.641923
0.332701
0
0.579873
0
0.328217
0
0.483794
0.846677
0
0
0
0
0
0
0
0
0
0
0
0
0
0
0
0
0
0
0
0
0
0
0
0
0
0
0
0
0
0
0
0
0
0
0
0
0
0
0
0
0
0
0
0
0
0
0
0
0
0
0
0
0
0
0
0
0
0
0
0
0
0
0
0
0.326888
0.485229
0.33758
0.53086
0.706229
0
0.5315
1.13256
0.38518
0.423912
0
0.381019
0.558191
1.97863
0.708777
1.76616
0.337607
0.55742
1.25259
0.557366
0.397955
0
0.395334
1.35322
0.488249
0.413363
0
0.55169
0.41038
0.596952
0.654985
1.1584
0
0.281955
0
0.959076
0.386906
0
1.26591
0.84484
0.291046
1.36489
0
0.223065
0.999466
0
0.499954
1.6576
1.06754
0.221875
0.513999
1.41952
0.263774
0
0.891482
0.41803
0.150056
0
0
0.669814
1.1276
0
0.432117
1.1049
0.528828
0
0
0.900058
0.911895
0.359886
1.02203
0
0.289847
0
1.15939
0
1.39246
0.0636198
0.904439
3.70909
0.927941
0.795331
1.17047
0.804375
0.59378
0.6498
0.634529
0.246675
1.13496
0.782258
0.612922
0
0.903351
0.833691
1.15969
0.544161
0.778837
1.08401
0.785931
0.480483
0.429201
0
1.07314
0.725708
0.83507
0.939272
0.970803
0
1.38192
0.750893
0.499336
0.557372
2.17824
1.05395
0.524252
0.783338
0.506838
0
0
0.553689
1.4441
1.31193
1.66692
0.666817
0.536242
0
0.624611
0
0.798824
1.6965
0.887589
0.496943
0.859552
0.642191
0.390152