<?xml version="1.0"?>
<VTKFile type="RectilinearGrid">
<RectilinearGrid WholeExtent="0 32 0 32 0 32" Origin="0 0 0" Spacing="1 1 1">
<Piece Extent="0 32 0 32 0 32">
<PointData>
</PointData>
<Coordinates>
<DataArray type="Float32" format="ascii">
0 0.524874 1.04975 1.57462 2.0995 2.62437 3.14924 3.67412 4.19899 4.72386 5.24874 5.77361 6.29849 6.82336 7.34823 7.87311 8.39798 8.92285 9.44773 9.9726 10.4975 11.0224 11.5472 12.0721 12.597 13.1218 13.6467 14.1716 14.6965 15.2213 15.7462 16.2711 16.796 
</DataArray>
<DataArray type="Float32" format="ascii">
-5.03879 -3.62163 -2.20447 -0.787311 0.629849 2.04701 3.46417 4.88133 6.29849 7.71565 9.1328 10.55 11.9671 13.3843 14.8014 16.2186 17.6358 19.0529 20.4701 21.8872 23.3044 24.7216 26.1387 27.5559 28.973 30.3902 31.8074 33.2245 34.6417 36.0588 37.476 38.8931 40.3103 
</DataArray>
<DataArray type="Float32" format="ascii">
0 0.524874 1.04975 1.57462 2.0995 2.62437 3.14924 3.67412 4.19899 4.72386 5.24874 5.77361 6.29849 6.82336 7.34823 7.87311 8.39798 8.92285 9.44773 9.9726 10.4975 11.0224 11.5472 12.0721 12.597 13.1218 13.6467 14.1716 14.6965 15.2213 15.7462 16.2711 16.796 
</DataArray>
</Coordinates>
<CellData>
<DataArray type="Float32" Name="Scalar" format="ascii">
0
0
0
0
0
0
0
0
0
0
0
0
0
0
0
0
0
0
0
0
0
0
0
0
0
0
0
0
0
0
0
0
0
0
0
0
0
0
0
0
0
0
0
0
0
0
0
0
0
0
0
0
0
0
0
0
0
0
0
0
0
0
0
0
0.236712
0.539958
2.88134
0.290828
0.406518
0
0.323559
0.651471
0.168505
0.426669
0
0.424001
0.357207
1.30946
0.350134
0.60019
0.284773
0.348621
0
0.531377
0.282742
0
0.474735
1.18768
0.196292
0.605908
0
0.421062
0.460713
0.840545
0.343935
2.047
0.291317
0
0
0.19635
0.207106
0
0.203021
0.528748
0.661538
0.137463
0.740596
1.328
0.289824
0
1.22116
0.721283
0.146937
0
0
0.212537
1.31489
0
0.310947
0.913455
0
0.150551
0
2.19476
0.19308
0
1.27506
2.1825
0.347377
0.874135
0
0.872618
0.169949
0.693038
0.987811
1.0627
1.25124
0.858842
0.579053
1.43698
1.24877
1.20271
0.54254
0.367846
0.189978
0.625952
1.83286
1.40577
0.992094
0.555808
0.392758
0.375315
0.463782
0.5402
0
0.794162
0.472874
0.496258
0.523066
0.540233
0.29182
0.385491
0.287381
0.219382
0
0
0.424758
1.03561
2.6015
0
0
0.547174
0.722242
0.540166
0.852257
0.0445447
0
0.814375
0
0.472635
0
0
0.406963
0
0.898352
0
0.515466
0.946727
0.499766
1.14477
0.468481
0.527936
0
0.802812
0.642583
0.346877
0.516489
0.864542
0.438496
0.564971
0.482183
0
0.590298
0.333639
0
1.23312
0
0.547706
0
0.669601
1.25986
0.407978
0
0
0.366257
0
0.57935
0.327164
0.634509
0
0.146273
0.354252
0.245694
0.105346
0.384167
0
0.432308
0.666052
0
0.147848
0.24698
0.291031
0.533908
0.785664
0.296488
1.32853
0.302261
0
0.289944
0
0.221766
0.180339
0
0.34827
0
0.256088
0.437089
0.252671
0.306377
0.602807
0
0.692861
0.621895
0.671159
0.671445
0
0.762649
0
0
1.55723
0
1.49076
0
0.159822
0.601276
0.66534
0.722383
0.643305
0.534881
0.571952
0
0.711107
1.15887
1.52397
0.472214
0.612147
0
0.813084
0.697425
1.16717
0
0
1.08122
0.849762
0
0.66623
0.816736
0.583312
0.940709
0.732439
0.292043
0.146764
0.362532
0.571922
0.76767
0
0
0.354974
1.10441
0
0
0.272228
0
0.576265
0.400919
0.963137
0.503372
0.743712
0.464889
0.873676
0.94097
0.604843
1.18746
1.75864
0
0.912724
0
0.750776
0.350482
0.593641
0.576398
0.626691
0.494276
1.23302
0.476757
0.701875
0.666184
0.439442
0.488929
0.752699
0
0.576599
0
0.653358
0.765655
0.688672
0.414528
0.435719
0
0.500226
0
0.598992
0.386607
0.41103
0.409669
1.24942
0.597354
0.715422
0
0.156077
0.707591
0.558654
0
1.00666
0.106509
0.549523
0
1.04928
0.634136
0
0.662107
0.834251
1.01095
0.634809
0
0.741359
0
0.872515
0
0.901744
1.15639
0.529911
0
0.481268
0.872546
0.514115
0
0
0.153385
0
0.386882
0.743694
0
1.11744
0.606001
0.459936
0
0.263076
0.418809
0.256001
0.448583
0.824808
0.39483
0.472805
0
0.63466
1.05897
1.08541
0.502634
1.12847
0
0.865668
0
0.909202
0
1.27023
0
0
0.561634
0.510985
0.645026
0
0.607894
0
0.355417
0.586021
1.31761
0.490288
0.291979
0.780204
0.332322
0.559529
0
0
0.197749
0
0
0.585834
0.546904
0.532192
0.28111
0.549496
0.516704
0.993683
0.567907
0
1.69686
0.804212
0.521423
0
0.535951
0.547461
0.266945
0.199626
0.271684
0.349892
0
0.495465
0.83983
0.473037
0.583346
0.999201
0.44748
0
0.461591
0
0.440548
0.47212
0.4658
0.656143
0.353691
0.38337
1.31064
0
0.475639
0
0.676062
1.35985
1.31704
1.18209
0.501016
0.877906
0.787178
0.70606
0
0.852179
0.818114
1.05138
0
0.402104
0.496467
0.40897
0
0.587706
0
0.518248
0.249744
0
0.557114
0
0.674361
0
0.517952
0.456724
0
0
1.58199
0
0.844072
0.48969
0.777411
0.538819
0
0
0.409644
0
1.0478
0.420535
0.493272
0.511198
0.384502
0
0.0456087
0.0672924
0
0.489955
1.52775
0
0.536113
0
0.6379
0
0
1.60533
1.79444
1.32488
1.21755
0
0.492745
0.455033
1.92094
1.87046
0
0
0.683624
0.648885
0.568445
0
0.818125
0.778559
0.176663
1.30302
1.01746
0
0
0.496143
0
0
0
1.3981
1.10151
0
2.10775
1.41958
0.737
0.617197
0.624818
0
0
0
0.644242
0.383247
1.45468
0.861354
0
0.480314
0
0.865603
0
0.350629
0.772505
0.609909
0
0
0
0.458345
0.886358
0.350496
0.672471
0.632793
0.768435
0.778648
1.05529
1.1053
0
0.900509
0
0.316343
0
0
0.760756
0.570541
0.105109
0
0
0.444029
1.30066
0.469579
0.549028
0.350095
0.52233
0
0.53621
0.516193
0.436959
1.62998
0
0.938182
0.326817
0.261094
1.09878
0.424199
0
0
0.63888
0
0.320344
0.428275
0.337523
0
0
0
0.502179
0
0.890459
0.910166
0.953319
2.05583
0.571199
1.28312
0.679426
0.173006
0
0.72611
0.753142
0
0
0.247731
0
0.516893
0.675502
0
0.617365
0
0.418936
1.33292
0.718221
0.300867
0.371369
0
0
0.335622
0.792938
0
0.748511
0.798769
0
1.79774
0.625769
0
0.486227
0
0.599803
0
0
0.570895
0.202939
0
0.45299
0.31835
0.255564
0.540908
0.928638
0.500563
1.12648
0
0
1.33487
0
1.1562
0.750309
0.927868
0.585096
0
0.672211
0
0
0.699714
0.736368
0.753456
0.445172
0.623843
0.705369
0
0.803601
0.615888
0.657337
0
0
0
0
0.558222
0.911384
0.838823
0.473524
0
1.6374
1.12948
0.714297
1.09509
0.734306
0.78954
0.842479
0.630847
0.459067
0
0.414718
0.58803
0.558067
0.958344
0.150989
0.623466
1.39404
0.363125
0
0.327389
0.900569
0.147335
0
0.8036
0
0.455874
0.743259
0.85364
0.60267
0.577864
1.38434
0.502034
0.594589
0.645514
1.0358
0
0.97234
0
0.761423
0
0.829148
1.20233
0
0.248005
0.636973
1.35064
0.450195
0
0.386308
0
0.984758
0
0.849709
0
0.663902
0
0.46509
0
0
0.495059
0
0.63999
0
0.787303
0.306286
0.443619
0.672646
0.773675
0.450759
0
1.13285
0.260881
0.0788588
0.669357
0.967787
1.25499
0
0
0
1.09552
0
2.11438
1.91783
0.472879
0
0
0
0.757275
0.616225
0
0.744325
0.365301
0.400735
0.474069
0.632037
0.770883
0.87199
1.00907
0
0.360538
0
0
1.09844
0.445552
0.575095
0.655424
0.625429
1.63428
2.34087
0.495912
0
1.35873
0.0900461
1.00947
0.557867
1.05766
0.615368
0.891439
0.794406
0.238029
0.792528
0
1.21981
0.519712
0
0
0.980334
1.40165
0.584966
0
0.360644
0.42698
0
0.411432
0.413698
0
1.34393
0
0.799693
0
0.733473
0.87263
1.06014
0.733059
0.618062
0.478472
0.447833
1.18651
0.484903
0.424947
0
0
1.19302
0.423861
1.20667
2.21066
0
0.257769
0
0.715072
0
1.01843
0
0.451643
0.250335
0
0.963161
0.931478
1.39026
1.42047
0.63833
0
0.49399
0.30984
0.71533
0.600908
0.515812
0.424526
0.646064
0.479945
0.0680902
0.686319
0.492196
0.335593
0.938679
0.595147
0.424352
0.944574
0.706235
0.493094
0.763965
0
0
0.936255
0.706071
0.928921
0.594863
0
0
0.221251
1.32968
1.2292
0.596001
0.518766
0.527882
0.783845
0.425907
0.842191
0.52915
0.879478
0.491713
0
0.969339
0.543434
0.958411
0.644802
0.923189
0.410558
0.494437
1.02307
0.833754
2.49913
0.973361
0.52734
0.544045
0.385362
0.257215
1.00485
0.995611
0.848444
0.309562
0.762819
1.3154
1.45468
0
0.42336
0.424863
0.434287
0.892934
0.536218
0.379085
1.02555
1.29239
1.31888
1.68875
0.739567
0.254411
0.804315
1.44897
0.801892
0
0.740195
0.366206
0.846232
0
0
0.482199
0.305969
0.551962
0.652315
0.829855
1.1094
0
1.39389
0.888065
0
0.407627
0
0.78055
0
1.05079
0
0.500979
0.818427
0.5766
1.42845
0.637914
1.41624
0.680088
0.534769
0.788324
0
0.481476
0.565655
1.02508
0.849512
0.85673
1.22155
0.839267
0.729847
0.488637
0.950323
1.91276
0
0
0.927405
0.962916
0.783827
1.73843
0.309959
0.41767
0.593116
0.700959
0.837457
0
1.27944
0
0.461424
0.531755
0.603302
0.451375
1.30528
0.973186
1.08741
0.643138
0.60401
0
0.485749
0
0
0
0
0
0
0
0
0
0
0
0
0
0
0
0
0
0
0
0
0
0
0
0
0
0
0
0
0
0
0
0
0
0
0
0
0
0
0
0
0
0
0
0
0
0
0
0
0
0
0
0
0
0
0
0
0
0
0
0
0
0
0
0
0.421091
0.519024
0.795531
0.418058
0.475383
0
0.521767
0.850347
0.217892
0.475559
1.94928
1.23898
0.335729
0
0.495921
0.805339
0.28441
0.606588
1.36631
0.52389
0.541088
0.240838
0.499618
1.04101
0.158246
0.5318
0
0.413239
0.498919
0
0.570897
1.68365
3.45126
0.78224
1.15949
0.987839
0.449321
0.125529
1.23507
0.690042
0.160634
0.856019
0
0.263272
0.727685
0
0.165877
0.467402
1.7964
0.292228
0.576
0.994081
0.450362
0
1.84862
0.678583
0.209566
0.911245
0
0.336938
0.821624
0
0.338431
1.72127
0.734087
0.603571
0.601752
0.917714
0.576754
0.393342
0.585531
0.926975
0
1.16634
0.695978
0
0.621495
0.0266468
0.486386
0.680346
0.592141
1.71026
1.26646
1.08789
1.16837
0
0.599733
0.63984
0.660694
0.430429
0
0.666751
1.23042
0.457599
0.448993
0.753343
0.0985351
0.371613
0
0.502703
0.600617
0.637404
0.617431
1.45349
0.483945
0.530516
0.221486
0.425105
0.870168
0.605
1.51726
0.648864
0
0.312923
0.821547
1.75178
0
0.262601
0.272533
0
0.377259
0.599958
0.67178
0.163142
0.0915514
0.576872
1.15087
0.595354
0
0.700605
0
0.514953
0.215817
0.669017
0.593886
0.656823
0.313834
0
0.84064
0.957726
0.534832
0.495137
0.750245
0
0
0.220771
0.568253
0
0.514154
0.70667
0
0
0.756276
0
0
0.317773
0
0.393414
0.556637
0.697507
0.429449
0
0.473132
0.61714
0.265141
0.520999
0.772051
0.314511
0.202879
0.607328
0.92352
0
0
0
0.354412
0.11057
0.306764
0.310834
0.274043
0.298981
0.436934
0.516852
0.564624
0.637804
0.508723
0.538383
0.837917
0
0.709281
0.688396
0.531713
0.508551
0
0.78706
0.491739
0
0.691426
0.194944
0.419192
0.710387
0
0
0
0.540812
0
0
0.525322
0
0.401488
0
0.598708
0
0.852559
0.329187
0
1.77278
1.20066
0.969562
1.0029
1.08036
0.589898
0
0.478406
0
0.365103
0
0.391103
0.240242
0.48433
0.46044
0.553467
0.830623
0.614228
0
0.772954
0
0.748318
0
0.784333
0
1.21691
0.551434
0.533152
0.820741
0.516243
1.63467
0
1.07404
1.16421
0.415955
1.10547
1.07416
0.526661
0.303025
0
0.678375
0.478314
0.428504
0.432952
0
0.392689
0
0
0.262098
0.163071
0
0.564541
0
0.65482
0.872329
0.0403017
0.691644
0
0.361789
0.267733
0.861729
0
0
0.403819
0.656002
0.176448
0.249759
0.511888
0
0.390508
0.124235
0.132509
0
0.367197
0
0
1.07739
0
0.568834
0.781325
0.642077
0
0.413577
0
0.526684
0.525508
0.552357
0.634414
0.305173
0.723652
0.589924
0
0.559654
0
1.04771
1.8569
0.892152
0.857233
0.623851
0.30733
0.538029
1.4706
0.583638
0.455156
0.571934
0
0.775905
0
0.39395
0
0.479895
0.467964
1.84289
0.675847
0
0.286217
0.594474
0
0.640908
0.668554
0.834223
2.30615
1.01221
0
0.568189
0
0.488648
0.154928
0.705944
0.821249
0
0.227719
0.702878
0.67022
0.764222
0.722751
0
0.65325
0.419345
0.800641
0.599823
0.235976
0
0.243197
0.732072
0.475732
0.410009
0.52022
0.245241
0.637101
0.728641
0.781126
0.723111
0.623172
1.70727
0.331774
1.20325
1.09308
0
0.671939
0.708058
0.650378
0
0.389568
0
0.654167
1.08837
0.439301
0.803173
0
0.29522
0
0.39636
0.977634
0.359407
0.560023
0
0.630351
0
0.651371
1.01846
0.51584
0.279101
1.05906
0
0.508628
0
0.595905
0.209847
0.245055
0.420696
0
0.132203
0.730782
0
0
0.228238
0.598424
0.448261
0.397095
0
0
0.629041
1.31193
1.69074
0.380577
1.01349
0.49066
1.33546
0.346101
0.382505
0.540748
0.425883
0.685392
0.552353
0.669303
0.615865
0.627699
0.89264
0.988131
0.798952
0.334411
0
1.11428
1.05363
0.468502
0.751138
0.5315
0.697537
0.348441
0
0
0
0.553661
2.09885
0.570958
0.706577
0.62107
0
0.510429
0
0.38361
0
0.686249
0.375152
0.38604
0.792118
0.470997
0.523882
0
0
0.710204
1.34412
1.03192
1.05085
1.24178
0
0.521786
0
0.753135
0
0.399444
0.324968
0.498463
0.520085
0.325324
0.471313
0.295838
0.547716
0.748605
0.406671
1.44338
0.5052
0
0.260349
0
0.637295
0.689317
0.483162
0.395454
0.448767
0.420087
0.684149
0.667964
0.382049
0
0
0
0.956674
0.704538
0.558216
0.538245
0.801773
0.780755
0
0
0.527438
0
0.595463
0.958812
0.82101
1.35141
1.15199
0.911332
0.443965
0
0.431476
0
1.43368
0.599047
0.801116
0
0
0
0.521619
0.956498
0
0.423139
0
0.832867
0.578928
0.528469
0
0.420883
4.14207
0
0.53528
0.821753
0.688315
0.3887
0.500895
0.528722
0.57909
0.660834
0.914416
1.14061
0.839081
0
0.741265
0.580568
0.455539
0.446303
0.601476
0.271547
0.623864
0.471508
0
0.970627
0.988483
0.604136
1.25187
0
1.1804
0
0
0.731799
0.815094
0
0.397972
0
0
0.584734
0.841774
0
0
0.32762
0.408639
0.595467
0.527445
0.316473
1.15596
0.949641
1.96628
1.98015
0.861824
0.298165
0
0.784196
0.585074
0
0
0
0.491939
0.766673
0
0.445579
0
0
0
0.552272
0
0
0.575566
0
0.840904
1.58458
0.75175
0.377557
0.464805
0.457706
1.83216
0.574977
0
0.416356
0
0.388496
0.147908
0.277254
0
0.498445
0.406329
0.130259
0.182484
0.900883
0.382807
0.56926
0.461395
0.877872
0
0.548808
0
0.515285
0.513829
0.451701
0.507589
0
0
0.738784
0.838507
0.842244
0.291595
0
0.452243
0
0.549407
0
0.729745
0.194959
0.543619
0
0.679462
0.591838
0.92168
1.20269
0.249232
0.602393
0
0.0990804
0.637573
0.825882
0.551159
0.590996
0.490329
0
0
0.941501
0.437326
0.804626
1.09415
0.814865
0
0.536065
0.437873
0.629715
0
0.439107
0.685214
0.717812
0.420545
0.570476
0
0.782732
0.397655
0.556272
0
0.664873
0
1.26245
0.730167
0.407932
0.922625
1.13957
0.893596
0.355303
1.14409
0.669027
0.516515
0
0.345311
0.625213
0
1.0869
0.478799
0
0
1.11173
0.885447
0
0.686586
0
0
1.92523
0
0.643839
0.60167
0
1.54513
0
0.532217
0
0.626952
0
0.848692
0.602331
0.608571
0
0.839969
0
0.501439
0.382705
0
0.515501
0.828127
0.703514
0.558367
0.843277
0
0
0.500546
1.28488
0.912146
0
1.41251
0.674885
2.84069
0.835223
2.23019
0
0.484422
0.364527
1.08383
0.639752
0
0
0
0.798306
0.495358
0.610805
0
0.822705
0.381216
0.721757
0.915431
0.902683
0.620264
0
0.451894
0
0.795922
0.373857
0.52109
0
1.06863
0.41484
0.466278
0.852962
1.09308
0
0.668046
0.433551
0.473574
0.646492
0
0.235511
0.564941
0.883647
0
1.05045
1.10897
0
0.639266
0
0.651845
1.08116
0
0.365541
1.50476
0
0.75015
0.71322
0.937967
0
0.564574
0
0
0
0.701041
0.621697
0.730194
2.091
0.339765
0.546887
0.861637
0
0
0.64273
0.684157
0.479039
0.354403
0.82497
0
0.645592
0.742241
1.0804
0.924424
0.373315
0.608271
1.07617
0.897716
0.536119
0
0.574791
0.879801
0
0.563507
0.410398
0.337693
1.6777
1.42904
0
0
0.925237
0
0
0.748257
0.169919
0.77172
0.518658
0.63384
0
0.620061
0.608643
1.13227
0.987675
0.794858
0.530235
0.700325
0.552559
1.63685
0
0.304985
1.76209
0.954437
2.16414
2.78854
0
1.22373
0.653602
0.628864
0.713655
0
0.884144
0
0.417748
1.04292
1.12354
0.958479
0.239325
0
0.874803
0.820701
1.38865
0.325526
0.0923811
0.883802
0
0.79117
0
1.0608
0
0.715208
0.296068
0.911036
1.02306
0.271613
0.469204
0
0
0.296883
0.594285
0.952122
0
0.522494
0.452102
0
0
0.886699
0.961919
1.26906
1.15704
0.34815
0.280298
0
0.97498
0.254845
1.0971
0.907953
0.907576
0
0.855473
1.53567
0.976336
0.707322
0.337311
1.79225
0
0.686231
1.35126
2.59121
1.16052
1.12469
0.950053
0.559801
1.08207
1.11096
1.43683
0.72323
0.948208
0.541984
0
0.739013
0.743202
1.12764
1.0795
0.335198
0.97237
1.78201
1.21536
0
0.975682
0.690206
0.488717
1.37563
0.554868
0.686205
0
0
0
0
0
0
0
0
0
0
0
0
0
0
0
0
0
0
0
0
0
0
0
0
0
0
0
0
0
0
0
0
0
0
0
0
0
0
0
0
0
0
0
0
0
0
0
0
0
0
0
0
0
0
0
0
0
0
0
0
0
0
0
0
0
0.769965
0
0
0
0
1.6698
0
0
0
0
0
0
0
2.22381
0
0
0
0
1.73771
0
0
0
0
0
1.42986
0
3.80673
0
0
0
0
0
0
0
0
0
0
0
0
0.400722
0
0
0
0
0
0
0
0
0
0
0
0
0
0
0
0
0.624751
0
1.92249
0
0
0.351713
0
0.426006
0.570783
0.523556
1.29549
0.787011
0
0.632104
0.424449
1.35069
0
0.987904
0.290994
0
0
0.436168
0
0.525653
1.35632
0.192217
0
0.372315
0.268865
0.921916
0
0.465766
0.853864
1.39689
0
0
0.301347
0.265146
0.555163
0.762561
0.404382
0
0.852595
0
0.32437
0.345375
1.36493
0.842687
0.533688
0
0.740423
0
0.901809
0
1.39385
0.506084
0.743651
0.439113
0.278359
0
0
0.207259
0
0.700251
0.4392
0.636522
0.450699
0
0
0.543131
0.6003
0.640125
0.911634
0
0.672766
0.276887
0.503856
0
0
0.64023
0
0.342088
0
0.512176
0.557983
0.442448
0.834268
0.625614
0
0.676079
0.583595
0
1.66451
0.334196
1.53752
0
0.364384
0.175084
0.178682
0.754598
0.619516
1.16752
0.498122
1.43438
0.886661
0
0.191834
0.307002
0.867163
0.663501
0.417676
0
0.835574
1.05624
0.756488
0.602565
0
0.543468
0.603945
0.344785
0
0.377078
0
0.528507
0.392653
0.550335
1.27824
0
0
0.328011
0.410762
0.79095
0.668542
0.830667
0
0.52094
0
0.647666
0
1.11051
0
0.590367
0.226412
0.419121
0.524164
0
0
0.303519
0
0.694255
0.748988
0.479592
0.590054
0.246614
0.35425
0.636269
0
1.21381
4.55046
1.2482
0
1.02777
0.343782
0.497669
0
0.837845
0
0
0.0962739
0.849937
0.234371
0.217536
0.902558
0.385712
0.256449
0.680794
0.244237
0.780262
0
0.702944
0.511394
0.594032
0.829609
0.586207
0.13546
1.02316
0.461262
0
1.04605
0.856484
1.46448
1.09305
0.494563
0.437828
0.390979
1.11636
0.854792
0.741907
0.48571
0.351121
0
0.381726
0.345056
0.257466
0.468759
0.739752
0
0.715377
0.545696
0.574764
0.394473
0.885683
0.291844
0.35539
0.631758
0.99711
0.703761
0.570166
0.525309
0.635079
0.591841
0.687378
0.482219
0.402766
0
0.975691
0
0.324152
0
0.536599
0
0.758478
0.625718
0
0.333763
0
0.828591
0.381078
0
0.575362
0.584636
1.65344
0.424485
0.873373
0
1.04721
1.42583
0.545462
0.734857
0.245279
0
0.866511
0.442804
0.564234
0.872573
0.600703
0.314387
0.560004
0.237123
0.717664
1.0933
0
0.388774
0.727092
0
0.43769
0
0.332803
0
0.355901
0.952775
0.655028
0.707006
0
0
0.573478
0.621465
0.462152
0.872173
0.664316
0.477484
1.15415
1.43354
0.846042
0.971426
2.95966
0.646175
0
0.3622
0.279224
0
1.2404
0.829815
0.867871
0
0.606942
0.471995
0
1.48251
0
0
0.780187
0.186774
0
0
0.594395
0.524012
0.396801
0
0.227987
1.07809
0.47476
0.207541
0.718613
0
0.394112
0.760685
1.29671
0.315482
0.860242
0
0
0.582594
0.472092
0.594763
0
0.118316
0
0.449014
0
0.590526
0.515583
0.508193
0.663366
0.476387
0
0.447637
0.551403
0
0.371551
0.551481
0
0.890887
0.242791
0.730209
0.695898
0
0.254612
0.236835
0.370258
1.0356
0.130834
0
0.586001
0.990558
0.551027
0
0.347253
0.583951
0.483247
0.656428
1.02226
0.816959
0.581679
0.178759
1.49599
0.36533
0
0.42852
0.796914
0.435008
0.492934
0.607466
0.460259
0.858188
0.602273
0.539516
0.617569
0.468626
0.531673
0
0.707914
0
1.1058
0
0
0
0
0.688628
0.466237
0.561014
0.540873
0.987224
0
1.06035
0.485278
1.29118
0
0.329825
0.662131
1.19707
0
0
0.761517
0.551957
0.503157
0.311264
0.541897
0
0.698022
0
1.0367
0
1.22206
0.277813
0
0.855008
1.57054
0.52002
0
0.90875
0.498327
0.183579
1.14182
0.572487
0
0
0
0
1.37639
0.913618
0
0.988191
0.735933
0.874524
0.465365
0.863952
0.76478
0
0
1.29689
0.680361
0.61403
0.564553
0.719321
1.56972
0.641402
0.471639
0.410298
0.463762
0.818459
0
0
0.480621
0
0.859193
0.984714
0.310351
0.18187
0
1.38772
1.25139
0.678798
0
0.521362
0
0.289333
0
0
0.162222
0.449531
0.524516
2.35083
0.737087
0.393077
0.570425
0.539794
0.79185
0.584101
0
0.332309
1.16545
0.869292
0.554898
0.500491
0.971897
1.16626
1.02118
0.774337
1.0013
1.00152
0.513209
0.423491
0.924542
0
0.493071
0.500389
0
0
0.719427
0.219346
1.18647
1.11489
0.782267
0.998285
0.872595
2.09426
0
0
0.49897
0.542573
1.18587
0.471782
0.500098
1.09352
0.404619
0
0.725689
0.672086
0.49773
0
0.508458
0
0.692375
0
0.962495
0.870127
0.473802
0
0
0
0.535792
0
0.29075
0.522034
0
0
0.604676
0.679632
0.643385
0.388284
0.711766
0
0.861143
0.608512
0.488705
0.433487
0.436817
0
0.666398
0
1.03426
0
0.55352
0.267765
1.14172
0.903062
0
0.652483
0.85507
0.65973
0
1.09982
0.629832
0.907047
0
0
0.423939
0
0.614472
0
0.840131
0
0.31678
0.70771
0.57017
0
0
0.21163
0.657474
0.715203
0.648603
0.777963
0.640503
0.528186
0.551834
0.489155
0
0.574087
0.899185
1.03638
0
0.893763
0
2.6536
0
1.00236
0.523761
0.455134
0
0
0.576662
0
0.566471
0.568162
0.659844
0
0.658816
0.646822
0.711514
0
0.478054
0
0.83056
0.630992
0.380888
0.462502
0.718513
0.429561
0.101933
0.6096
0
1.3244
0.66575
0.789956
0.686578
1.02609
1.2014
1.03933
0.841274
0.536144
0.626393
0.889779
0.5394
0.667889
0.442652
0.408996
0
0
0.510914
0.830141
0.511133
0
0
0
1.31591
0.362074
0
0
1.02592
0.886406
0.424375
0.546595
0.977777
0.875668
0.708933
0.651506
0
0.414244
0
0.669884
0.76261
0.612783
0.390267
0.5534
1.20998
0
0
0.626131
0
0
0
0.893653
0
0.601974
1.6468
0.610321
0.265803
0.447157
0
0.487181
0
0.626645
0
0.815382
0
0.469623
1.05205
1.01558
0
0.734309
1.09323
0.4263
0.435403
0.749046
0.214336
0.453715
0
0.731209
1.67234
0.357111
0.618742
0
0.861601
0.508806
0.691472
0.10898
0
0.967404
0
0.294606
0
0.676363
0
2.26658
0.720019
0
0.629798
0
1.14159
0.798247
0
1.48678
0.921312
1.13914
1.08974
1.06518
0.760669
0.206805
0.827177
0
0.70399
1.15631
0.55545
1.06245
0.543205
0.473591
0.951537
0.950207
0
0
0
0.476289
1.21994
1.18754
0.453293
0.612717
0.789813
0.365256
0.449676
0.588889
0.982495
1.3273
0
0.886303
0
0.41085
0
0.643094
0.642502
0
0.455148
0.838383
0.870279
1.02064
0.77078
0.130918
0.57636
0
0.670401
0.567822
1.32755
1.15265
0.60387
0
0.84005
0
0
0.524163
1.32028
0
0.697729
0
0.342712
0
0.56776
1.51925
0.536784
0.401603
0.847288
0
0
1.82847
0.560618
0.506468
0.473303
1.607
0.808172
0.935491
1.87808
0.769535
0.441413
0
1.25377
0.968664
0.529491
0.581894
0.930684
0.844639
2.45178
0.451007
0.577856
0.40478
0.207769
0.795721
0.848807
0
0.0856454
0
0.687196
0
0.300998
0.898382
0.913595
0.668519
0
0.687885
1.40252
0
1.13701
1.24378
0.656906
0.506843
0.333952
0.524309
0.986363
1.19072
0
0.342555
0.676819
0
0
0
0.197101
0
0.443723
0
0.467417
0
0.821283
0
0.292943
0.373744
0.215203
1.44446
1.82271
1.12013
0.822365
0
0.941774
1.36268
1.19165
0
0.634824
0.428953
0
0.49112
0.825561
0.745111
0.950618
1.43299
0.711827
1.21006
1.47864
0.563033
0.991841
2.67114
1.86127
1.94572
0.594114
0.410201
0.705623
0.783167
0.578704
1.28251
0.498834
0.594075
0.45949
0.73628
0
0
0.88079
0.465626
0.856835
0.456319
0.432835
0.262672
0.985912
0.528018
0.748673
1.00839
1.12245
0.691437
0
0
0
0
0
0
0
0
0
0
0
0
0
0
0
0
0
0
0
0
0
0
0
0
0
0
0
0
0
0
0
0
0
0
0
0
0
0
0
0
0
0
0
0
0
0
0
0
0
0
0
0
0
0
0
0
0
0
0
0
0
0
0
0
0.453371
0.529633
0
0.385837
0.651486
0
0.691106
1.56374
0.700809
0.608159
0.296109
0.486284
0.420314
0.973425
0.492521
1.01138
0.388593
0.545026
0.607623
0.492525
0.458957
1.88485
0.518061
0.633435
0.234999
0.55746
0
0.497669
0.600912
0
0.487777
0.845649
0.209618
0.819991
0.35646
0.344945
0.660617
0
0.241302
1.39139
1.11127
0.24678
0
0.8202
0.497913
0.281494
1.2398
1.01327
0.30707
0.63999
0
0.493963
0.483813
0
0.386191
0.533934
0.988634
0.782108
0
1.40803
0.298909
0
0.907621
0.574031
0
0.882196
0.414854
0.693478
1.62619
0
0.472941
2.20034
1.24313
0
1.09156
0
1.14863
0.740853
0.59674
0.510167
0.410704
1.07636
0.821054
0.458241
0.832132
0.704299
0.733466
0.604551
1.19762
0
0.740785
0.375476
0.358366
0.786089
0.447838
0.845565
0
0.0713488
0.521862
0.599709
0.897185
1.49803
1.03139
0.508591
0.384037
0.707542
1.08669
0.77564
0.659647
0
0.681188
0.604129
0
0.68976
0.779989
0.28773
0.653585
0.183774
0.430925
0.520607
0.641506
0
0.301968
0.489699
0.526917
0.56623
0.693855
0.421429
0.8142
0
0.956779
0.525567
0
0.684271
0
0.266331
0
0
0.470517
0
0
1.45709
1.10458
0.66496
1.18317
0.639348
1.95006
0
0.502392
0.698333
0
0
0.495105
0
0
0.354792
0
1.02075
0.66777
0
0
0.546805
0
0.706256
1.07643
0.806081
0.0817813
1.06569
0.827069
0.547615
0.6016
0.376874
0
0.457061
0
0
0.759236
0.502018
0.767774
0.404778
0.560887
0.228275
0.0362511
0.574544
0.646346
0.395813
0.619581
0.338412
0.896964
0.535746
0.781568
0.438579
0.729253
0
0.543368
0
1.26255
0.57751
0.871679
0.648936
0
0
0.339627
0
0.520281
1.10038
0.378332
0
0.500191
0
0.400394
0
1.88733
0.866574
0
0
0.986373
0.465063
0.749294
0.525411
0.752864
0.743715
0.492507
0
0.48809
0.260116
0.369808
0.379749
0.51621
0.479656
0.174294
0.466112
0.322661
0.711056
0.514727
0.806288
0.417275
0
0
0.65204
1.16407
0.533274
0
0.535521
1.72961
0
0.395919
1.73666
0.847482
0.163699
0.709556
0.610993
0.654326
0.789695
0.912097
0.496734
0.648592
0.500636
0.328721
0.418812
0.522511
0.24237
0.833918
0
1.06073
0.574137
0.66906
0.488534
0
0
0.564926
0
0.807273
0.824109
0.731545
0.568338
0.216236
0
0.641129
0
0.607296
0.475979
0.641163
1.07866
0.551047
0
0.143218
0
0
0.604315
0
0
0.329218
0.455961
0.712177
0.599888
0.646058
1.55706
0.443077
0.666553
0.343292
0.293218
0.494761
0.665623
0.75971
0.625504
0
0.356516
0
0.419417
0.56943
0.64562
0.865718
0.705608
0.416777
0.235534
0
0.436717
0
0.274864
0.911562
0
0.598823
0
1.08118
0.610801
0.915556
0.491009
0.387064
0.264334
0.282856
0.711835
0
0
0.169279
0.423662
0.698843
0.256126
0.584952
0.333629
0.554602
0
0.716854
1.00146
0.754013
0
0
0.502711
0.591768
0.555897
0.439973
1.03857
0
0.542915
0.199521
0.590861
0
0.681669
0
0.544039
1.37445
0.751507
0.532166
0.427078
0.853312
0.369392
0
0
0
2.82238
0
0.524672
0.647254
0.544621
0.152312
0.414498
1.14538
0.327693
0.307894
0.409059
0
0.238498
0
0.439322
0.845971
0.788465
0.502494
1.01685
0.79372
1.01873
0.346201
0.466999
0.816937
0.814931
0.364051
0.612829
0
0.622807
0.396078
0
0
0.234902
0
0.678072
0
1.53343
1.93293
0.511529
0.445731
0
0
0.481733
0.242264
0.38717
0.240426
1.11197
0.216224
0.43709
0.418466
0.869728
0.385193
0
0
0.375351
0
0.558363
0
0.589019
0
0
0
0
0.800605
0.406311
0.755935
0.364271
0
0.971406
1.0036
0.303759
0.650999
0.302226
0.956482
0.332332
0.125245
0.675142
0
0.576683
0.409799
0.692637
0.413953
0.0613584
0
0.324572
0
0.805797
0
0.328225
0
0.446904
0.443713
0.63534
0.649398
0
0.526383
0.651892
0.528396
0.514254
0.901199
0.851041
1.78674
0.654711
0.716833
0.903501
1.67153
0.506401
0
0.170595
0
0.703027
0
0
0.615247
0.323451
0.429111
0.73262
0.259586
0.23492
0.52277
0.319187
0
0.528454
0.822088
0.521153
0.614441
0.666324
0.444152
0.724423
0
0.317517
0.845013
0
0.48909
0.594027
0.426123
0.207022
0.183069
0.62661
0.733617
0.445725
0
0.507119
0
0.546665
0
0.646828
0.755864
0
0
0.752465
0.556379
0.508083
0.953362
0.174916
0
0.358433
0.399016
0
0.124818
1.32169
0.182223
0.555522
0.82588
0.734277
0.507287
0.383087
0.830884
1.09492
1.159
0
0.787813
0.294203
0
0.651932
1.53068
0.525652
0.86938
0.875069
0
0
0.954695
0.888798
0
1.56297
0.275833
0.16913
0.314665
0.557571
1.16296
0.778174
1.17938
0
0
0.671193
0.631336
0.569316
0.52102
1.01117
0.763674
0.286428
0.524853
0
1.11626
0.986326
0.919229
0.976221
0.676015
0.530275
0.890512
0.673587
0.706738
0.499951
0.747082
0.844884
0.743819
0
0.698726
0.801504
0
0.61803
0
0
0.816979
0.516666
0
1.00187
0
0.611932
0
0.635105
0.759079
1.01041
0
0.464415
0.54821
0.653075
0.349974
0
0
0.616733
0.565735
0.417452
0.313128
0.320785
0.825872
1.08309
0.309637
0.459065
0.638383
2.06415
0.886335
0.469863
0.786671
0.386041
0.407249
0
0.790861
0
0.738859
0
1.05912
0.643084
0
0.405614
0.63565
0.206174
0.417027
0.2851
0.730773
0.0555403
0.80502
0.311993
0
0.474794
0
1.35973
0.31594
0.641642
0.475045
0
0
0.356712
0
0.216785
0.599077
0
0.837688
1.1513
0.634355
0.808189
0.565223
0.466649
0.43069
0
0.585757
0.830727
0.874927
0.119188
0.335388
0
1.58566
0.707398
0.542143
0.267378
0
0
0.45158
0
0.288045
0
0.355365
0.444601
1.1363
0.482626
1.03698
0
0.478611
0.381718
0.683633
0.864156
0.186268
0
0.992148
0.190985
0.555998
0.507653
0.412593
0.621908
0
1.64243
0.857422
0.635248
0.465417
0.973933
0.972898
0.448347
0
1.08675
0.670913
0
0
0.66507
0.242615
0.542265
0.164907
0.177233
0
0
1.05397
0.677686
0.874253
1.40557
0
0.341965
0.48993
1.00923
1.45366
0.666975
0.739304
0.965341
0.646347
0.592779
2.42665
1.0198
3.09362
0
0.451258
0.773812
0.225701
0
0
0
1.19502
0.639675
0
0.763714
0.965502
0.552114
0.803986
0.522
0.389214
0
0
0.755049
0
0.775915
1.14432
0.717135
0.764025
0.625199
0.279662
0
0.854302
0.491014
0
0.518694
0.612462
0
0.847883
0.631868
0.715874
0
0.77778
0.817968
0.76483
0
0.595754
0
0.644007
1.94205
1.95542
0
0
0
1.24503
1.10077
1.18802
1.51891
1.13102
0
0.852779
0.80203
0
1.16853
0.34893
0
0.38248
0.609067
1.2272
0
1.08997
0.806639
0
1.17732
1.0852
0.518964
0
0.754132
0.799565
1.0223
1.01366
0
0.773471
0.778352
0
0.360633
0.527315
0.413832
0
0.369414
0.564869
0.414105
0.28591
0
0.843326
0.925454
0.324464
0.54988
0
0
0.681403
0.706421
0.989774
0.719688
1.03215
0.99794
0.774897
0.704805
1.13571
0
1.58378
0.99285
0.450883
1.70386
1.01338
0
0.82543
1.07641
0.818251
0.547934
0.958682
0.532452
0
0
0.525771
0.297026
1.15927
1.54238
0
0.510043
0.632828
0
0.469354
0.677735
0.672725
0.890756
0.597718
0
0
0
2.2091
0.980968
0.543215
0.557816
0.818358
0.488081
0
0.234514
0.131097
0
0
0.748638
1.07766
0.699169
0.322292
1.22431
1.00615
1.04137
0.832076
2.01736
1.03408
0.508063
0
1.01392
1.48776
0.483923
0
0.507834
1.31735
1.26021
0.815518
0.953393
0.671029
0.704499
0.768493
0
0
0
0.759133
0
0
1.42614
1.32104
0.662102
0
0.737138
0
0.67334
1.07268
0.968744
0.827586
0
0.871613
0.290255
0.412565
0.436942
1.46028
0
0.371195
0.938832
1.07395
1.49588
0.702167
2.09993
1.16595
1.1511
0.464422
0.990994
0
0
0.437416
0.831073
0
0.878405
1.22061
1.12307
0.63919
0.459801
1.03229
0.733256
0.669215
1.30801
0.52517
0
0
0.956212
0
0.935146
0.75019
0.78079
0
0
0
0
0
0
0
0
0
0
0
0
0
0
0
0
0
0
0
0
0
0
0
0
0
0
0
0
0
0
0
0
0
0
0
0
0
0
0
0
0
0
0
0
0
0
0
0
0
0
0
0
0
0
0
0
0
0
0
0
0
0
0
0
0.486476
0.432445
0
0.473314
0.426044
0
0.513146
1.50725
0.507221
0.389348
0.989104
0.481142
0.543198
0
0.57909
0.915462
0.407112
0.522997
0.731257
0.472281
0.548478
3.41873
0.344482
1.24414
0.491361
0.495605
0
0.434659
0.389508
0
0.504199
2.48911
0.798271
0.489622
0
0.589349
0.612182
0
1.47289
0.490549
0.26128
0.771326
0
0.495784
0.848967
0
0.533352
1.10688
0.777173
0.182827
0
0.681784
0.0891389
0
0.697387
0.698058
0.245774
1.79421
0
0.221273
0.570052
0
0.296762
1.00003
0.427589
0.511802
0.558734
0.533417
0.753468
0
0.630488
0.296783
0.339896
1.22362
1.02651
0.693219
0.841154
0.795484
0.597848
0.5537
0.452719
0.518332
1.28647
0.679829
0.370285
0.365426
0.528563
0.611186
0.428767
0.661992
0.54757
0.677515
1.01585
0.528773
0.5866
0.361508
0.746558
0
0.969022
1.25193
0
0.884618
1.19246
1.72181
0.295148
0.408047
0
0
0.448241
0.689679
2.37126
0.474874
0.70709
0
0.667315
0.871446
0.645157
0.639023
0.725287
1.47616
0.395349
0.42483
0.841449
0
0.336315
0
0
0.274951
0.829943
0
0.0335306
0.793385
0.864217
0
1.42424
0.732736
0.565993
0.642228
0
0.844785
0.597244
0.315648
0.848765
0
0.659168
0
1.24242
0
0.480199
0
0.661206