<?xml version="1.0"?>
<VTKFile type="RectilinearGrid">
<RectilinearGrid WholeExtent="0 32 0 32 0 32" Origin="0 0 0" Spacing="1 1 1">
<Piece Extent="0 32 0 32 0 32">
<PointData>
</PointData>
<Coordinates>
<DataArray type="Float32" format="ascii">
0 0.524874 1.04975 1.57462 2.0995 2.62437 3.14924 3.67412 4.19899 4.72386 5.24874 5.77361 6.29849 6.82336 7.34823 7.87311 8.39798 8.92285 9.44773 9.9726 10.4975 11.0224 11.5472 12.0721 12.597 13.1218 13.6467 14.1716 14.6965 15.2213 15.7462 16.2711 16.796 
</DataArray>
<DataArray type="Float32" format="ascii">
-5.03879 -3.62163 -2.20447 -0.787311 0.629849 2.04701 3.46417 4.88133 6.29849 7.71565 9.1328 10.55 11.9671 13.3843 14.8014 16.2186 17.6358 19.0529 20.4701 21.8872 23.3044 24.7216 26.1387 27.5559 28.973 30.3902 31.8074 33.2245 34.6417 36.0588 37.476 38.8931 40.3103 
</DataArray>
<DataArray type="Float32" format="ascii">
0 0.524874 1.04975 1.57462 2.0995 2.62437 3.14924 3.67412 4.19899 4.72386 5.24874 5.77361 6.29849 6.82336 7.34823 7.87311 8.39798 8.92285 9.44773 9.9726 10.4975 11.0224 11.5472 12.0721 12.597 13.1218 13.6467 14.1716 14.6965 15.2213 15.7462 16.2711 16.796 
</DataArray>
</Coordinates>
<CellData>
<DataArray type="Float32" Name="Vector" NumberOfComponents="3" format="ascii">
0 0 0
0 0 0
0 0 0
0 0 0
0 0 0
0 0 0
0 0 0
0 0 0
0 0 0
0 0 0
0 0 0
0 0 0
0 0 0
0 0 0
0 0 0
0 0 0
0 0 0
0 0 0
0 0 0
0 0 0
0 0 0
0 0 0
0 0 0
0 0 0
0 0 0
0 0 0
0 0 0
0 0 0
0 0 0
0 0 0
0 0 0
0 0 0
0 0 0
0 0 0
0 0 0
0 0 0
0 0 0
0 0 0
0 0 0
0 0 0
0 0 0
0 0 0
0 0 0
0 0 0
0 0 0
0 0 0
0 0 0
0 0 0
0 0 0
0 0 0
0 0 0
0 0 0
0 0 0
0 0 0
0 0 0
0 0 0
0 0 0
0 0 0
0 0 0
0 0 0
0 0 0
0 0 0
0 0 0
0 0 0
-0.0430608 -0.106353 -0.0582107
-0.0917997 -0.0334058 -0.037075
-2.31263e-05 0.00803705 0.0129148
-0.136041 -0.0192762 -0.00316271
-0.301261 0.0924038 -0.0763706
0 0 0
0.0526865 -0.291522 0.001072
-0.151145 0.136779 -0.136629
-0.123914 -0.0345039 0.0853362
-0.245795 0.24658 0.0490668
0 0 0
0.00345762 -0.106614 0.0620996
0.00414058 0.0676208 -0.042917
-0.00289275 -0.101317 0.0510816
-0.0236811 -0.0135215 0.0134937
0.149809 -0.0414712 0.0614136
0.0506546 -0.0347391 -0.117734
0.063604 0.211835 0.0528274
0 0 0
0.0258913 0.014099 0.0357195
-0.151909 0.27475 0.156086
0 0 0
-0.109944 0.169821 0.021469
0.0559018 -0.0921079 -0.0286348
-0.0270873 -0.136839 0.0245491
-0.0823077 0.124633 -0.00199094
0 0 0
0.126939 0.0545385 -0.0398711
0.190947 -0.0300582 -0.0226628
0 0 0
-0.0279544 0.0994283 0.0458533
-0.145798 -0.0510038 0.0535052
0.0504917 0.0607008 0.124005
0 0 0
0 0 0
0.258628 0.143853 0.0285996
0.0514902 -0.0116478 0.0965089
0 0 0
0.125843 0.104141 0.0978246
-0.0323387 -0.0141223 -0.0591932
0.00235411 0.00521021 0.00733687
0.0541751 0.0171111 -0.0183704
0 0 0
0.0895728 0.0139048 0.158172
0.0698724 -0.110642 -0.046989
0 0 0
0.0383972 0.00645001 -0.00820782
-0.231701 -0.00628859 -0.0754492
-0.296856 0.152295 0.0765088
0.0814206 0.00986062 -0.0485625
0 0 0
0.332334 -0.126917 -0.00566798
0.0530235 0.0811821 -0.123893
0 0 0
-0.18449 -0.196128 -0.00548236
0.00822785 -0.00529198 0.0250291
0.00893402 0.000910062 -0.00453593
-0.0474269 -0.0327119 0.0286736
0 0 0
-0.0853346 -0.0497005 0.0981611
-0.220815 0.0294488 0.00195157
0 0 0
-0.212655 0.0417151 0.00846276
-0.0180566 -0.00748491 -0.041689
0 0 0
0 0 0
0.112198 0.0919024 0.287913
-0.257889 -0.171232 -0.395912
0.267126 -0.22326 -0.17221
0 0 0
0 0 0
-0.156063 -0.108721 -0.0841856
-0.0696559 0.0472232 0.11108
0.100827 -0.124558 -0.00179054
0.000227084 -0.0381334 -0.0316347
-0.068458 0.141909 0.0402278
0 0 0
0 0 0
-0.269106 -0.165166 -0.00816315
0.0329984 -0.282963 -0.0394028
0 0 0
0 0 0
0.139177 -0.210227 0.0822028
-0.274355 -0.253425 0.0493821
0.0666086 -0.245471 -0.0568888
0.124044 -0.346523 -0.214581
-0.00312975 0.0244172 0.0433683
0.186809 -0.192606 0.237683
0.166141 0.249776 -0.069503
0.244733 0.0987305 0.159834
0.227183 -0.0375158 0.0069823
0.177902 -0.0356703 -0.136095
0 0 0
-0.0844904 0.0545272 0.00743453
0.0932048 0.264225 -0.178597
0.0545103 0.094454 -0.0781152
0.312755 0.0799035 0.0613724
0 0 0
0.0286505 -0.0422418 0.0658616
-0.176099 -0.103257 -0.0647913
-0.499051 0.342929 0.135634
0 0 0
0 0 0
0.0417796 -0.025006 0.12679
0.268614 -0.00539637 -0.0369937
-0.0808694 0.00218438 -0.0171415
-0.0463292 0.0889544 0.116409
0 0 0
-0.00855056 -0.00313085 0.0325702
-0.0121803 0.0297953 0.000768698
-0.164969 -0.17877 0.0319858
-0.128909 -0.111568 0.0355468
0.0962473 -0.622665 0.0372371
0.458202 -0.167196 -0.235021
0 0 0
0.437314 0.176092 0.232093
0.110471 -0.188888 0.181822
0 0 0
-0.108045 -0.271364 -0.529785
-0.0438717 -0.348837 -0.055228
-0.0476278 -0.02843 0.0379329
0.0493631 0.0844011 0.325151
0.220769 0.295097 0.123736
0.0435511 -0.0826256 0.0981924
0 0 0
-0.048166 -0.110586 0.0114963
9.34019e-05 0.236957 0.139108
0 0 0
-0.111957 -0.34064 0.0207526
0 0 0
0.187832 -0.219938 0.219053
0.00153516 0.120188 -0.252131
-0.0710254 0.00558999 -0.185938
0.100309 0.152728 -0.000730897
0 0 0
0.0854408 0.257842 -0.0527207
0.0674864 -0.00715368 -0.129043
-0.00681465 -0.0478657 -0.189023
0.0247352 0.196723 0.157598
-0.185279 0.0245487 -0.222131
-0.206128 0.47106 -0.0424356
-0.441544 -0.356237 -0.469403
-0.102595 -0.224151 0.142712
-0.209939 -0.115672 0.0343038
0 0 0
0.11217 -0.159304 -0.0156121
0 0 0
0 0 0
-0.0769197 0.363545 -0.213135
0 0 0
-0.142786 -0.656127 -0.0742007
-0.00181412 -0.0342386 -0.0239961
-0.0500637 -0.106706 0.259389
-0.140051 0.0676482 -0.0930503
0.0979656 0.0567907 -0.013807
-0.00281119 0.143765 -0.0802431
-0.0199911 0.0324093 0.0948646
0.16294 -0.121 -0.28049
0.141119 -0.33144 -0.147658
-0.0141895 -0.00713041 -0.0209619
0.28418 0.235834 -0.145087
0 0 0
-0.121023 -0.255382 0.151776
-0.00616148 0.00830853 -0.00230643
-0.119945 -0.181982 0.0383728
0.00234843 -0.0491658 0.14212
-0.0576102 -0.0933396 0.05142
0.000875575 -0.0888867 -0.100778
0 0 0
-0.0243782 -0.00984832 -0.000568636
0 0 0
0.0319023 0.0225417 0.00216018
0 0 0
0 0 0
-0.188855 0.150937 -0.0728188
-0.0826043 0.0140005 -0.0392236
0 0 0
-0.292746 0.000296942 -0.0820392
-0.072272 -0.127606 -0.115862
0.048122 -0.0675078 -0.407731
0 0 0
-0.363232 0.182931 0.0011165
-0.0113854 -0.0132398 0.00208495
0.188426 -0.173562 0.0777214
0.177322 0.192548 -0.0279853
0.0367198 -0.0658746 0.119005
-0.000325612 0.00730196 -0.00590305
-0.213184 -0.420682 -0.331637
-0.0136189 0.0289155 -0.00405168
0.1573 0.00234066 0.00258439
0.0342555 -0.0335044 0.0106524
0.0532759 0.0385302 -0.000708167
-0.0706562 -0.0408726 0.0583585
-0.40912 0.552719 0.00888367
0.00992765 0.00269502 -0.000507753
0.172097 -0.0551192 -0.354852
0.0318701 -0.216599 0.0098032
0.309533 -0.335931 -0.201583
0 0 0
-0.128861 0.0813787 0.312057
0 0 0
0.187748 0.122436 0.325171
0 0 0
-0.0541371 0.0743168 0.0663416
0.112306 -0.0830593 -0.000871716
-0.0603164 0.0531011 -0.0528202
-0.322702 -0.184028 -0.162874
-0.523993 -0.00154993 0.0225846
-0.206499 0.05312 -0.122466
0.080872 0.01618 -0.0246139
-0.0556384 0.308419 -0.0543227
-0.220548 0.154744 0.171572
0.0867277 -0.0677805 -0.00100628
-0.0426615 -0.0103316 0.120842
0.342591 -0.0564953 0.257312
0.257816 0.100156 -0.0706111
1.05987e-05 -0.0363717 -0.0262916
0.175336 -0.0457771 -0.290951
0 0 0
-0.0351576 0.186027 0.0537382
0 0 0
0.0333102 -0.0382868 0.0113217
0.0522618 -0.0981435 0.105856
-0.0767171 -0.211133 -0.215906
0.000741928 -0.11655 0.172005
-0.0825001 0.093594 0.119374
-0.425895 -0.173774 -0.0805987
0.146821 0.366365 -0.323429
0.0894369 0.304452 0.0769389
-0.0679037 -0.184875 0.00232833
0 0 0
-0.211882 -0.29087 -0.121715
7.49901e-05 0.241417 0.105193
0.0619417 -0.156264 0.485878
-0.00107516 0.118397 0.00415293
-0.245081 -0.0684132 0.0676388
0 0 0
-0.141875 -0.0949962 -0.527705
0.0400591 -0.098342 0.171107
0.0304927 0.193244 0.205554
-0.0407782 0.0551359 -0.000605843
-0.00108509 -0.254597 0.205472
-0.145193 -0.0608622 -0.199139
-0.116368 0.392443 0.131681
0 0 0
-0.0188003 -0.00150641 0.0693713
0.00179181 0.0164533 0.0405444
-0.23305 -0.0951775 -0.0979341
0.0056428 0.0305777 -0.0215562
0.040111 -0.0651248 0.0836857
0.0992106 -0.215568 0.194408
0.338074 0.137838 0.10124
0 0 0
-0.0325411 -0.0750924 -0.324339
-0.0754725 -0.205401 0.0668433
0.00119584 -0.0653907 0.20054
0.334262 0.0789571 -0.116327
0.00149245 0.0647323 -0.0843063
-0.138462 0.271219 0.00756945
-0.114296 -0.0377007 -0.0731789
-0.116976 -0.228908 -0.444773
0.082588 -0.119819 -0.0989507
0 0 0
0 0 0
-0.276865 -0.0125662 0.058484
0 0 0
0.145375 -0.00968182 0.0585189
0.383552 0.0320797 -0.181951
0.0470138 -0.0764584 -0.191432
-0.0488558 0.05571 -0.134747
-0.0801846 -0.171457 0.245933
0.0278331 0.020191 0.0362554
-0.122942 0.142727 -0.0778342
0 0 0
0.0684228 0.311052 -0.348761
0 0 0
0.0402111 0.45644 0.19483
-0.0610545 0.00890386 0.000793172
-0.129603 -0.0272961 0.0194098
-0.116206 0.0479804 0.164785
0 0 0
0 0 0
-0.0139313 -0.00220941 0.013275
0 0 0
-0.140015 0.137592 0.0235813
-0.0157901 0.0800849 0.132114
-0.0600301 -0.320114 0.0179004
0.020691 -0.00396661 -0.00460604
0 0 0
0 0 0
0.0589163 0.286926 0.0861103
0.170951 -0.124402 -0.0232307
0 0 0
-0.0299648 0.000211284 0.000854203
0.129902 -0.084769 0.044902
-0.0480391 0.00428291 -0.0636335
0.125092 -0.0327037 -0.368943
0.00152901 0.0904642 -0.155445
-0.114207 -0.147472 -0.0829095
-0.0162852 0.0863646 0.0466139
0.0469699 -0.0929099 0.191371
-0.00863648 0.0107024 0.00441047
0.441534 0.376249 0.340954
-0.159483 0.279511 0.0208956
0.271133 0.227104 0.0153404
-0.00617256 0.100593 -0.01225
-0.0269147 0.154173 -0.200902
0 0 0
-0.0775087 0.195893 -0.522099
0 0 0
0.23803 0.0667079 -0.118359
0.0115892 -0.0262337 -0.432877
-0.18694 0.11203 -0.219129
-0.0159359 0.0404682 -0.00122394
0.0462628 0.244115 -0.231613
0 0 0
-0.198512 0.0778618 0.00600246
-0.0878628 0.0581147 -0.116923
0.0397725 -0.162189 -0.304663
0.00167505 -0.0466916 -0.0148713
0.0272063 -0.0845967 0.0467468
0.173945 0.0853219 -0.186514
0.0529875 0.101836 -0.000761347
0.246828 -0.395715 0.00520195
0.163556 -0.286344 0.122507
0.0351056 -0.0253692 0.0267281
-0.174955 -0.0287556 0.184181
-0.21031 0.307183 -0.10721
-0.116736 0.513047 0.292118
-0.291311 -0.107651 -0.096431
-0.454028 -0.0641885 -0.119379
0 0 0
0 0 0
-0.00494655 0.139481 -0.0200801
-0.161465 0.224249 0.236313
0.0528012 -0.174173 -0.0831657
0.027064 0.401542 0.284847
-0.0263104 0.265469 0.0578703
0 0 0
-0.0631496 0.10822 -0.527868
0.0099738 0.0882089 -0.129788
0.0832711 0.0044466 -0.2172
0.0352012 -0.0458204 -0.1257
0.00308523 -0.259452 0.0557635
-0.160942 -0.112059 -0.116173
0.058352 -0.203533 0.163107
0 0 0
-0.00418493 -0.0704319 0.10876
0.0514211 0.110326 0.145877
0 0 0
0 0 0
0 0 0
-0.166393 0.0517342 0.0223014
0 0 0
0.274081 -0.215903 0.174821
0.0227059 -0.433744 -0.265748
0.0212461 0.063071 -0.104535
0.149059 -0.0641554 -0.22372
0 0 0
-0.143302 0.553282 -0.111177
0 0 0
-0.212337 0.181851 0.0158635
-0.171621 0.159614 -0.0856588
-0.0329326 -0.0224409 0.0325255
0.28943 -0.187749 -0.22214
0.066625 -0.0157612 -0.0927787
-0.00300353 0.266148 0.0789647
0 0 0
0.00131761 0.223851 -0.199053
-0.14202 -0.0444703 0.0683606
-8.99014e-05 -0.0324913 -0.0201703
0.338891 -0.0534438 -0.21264
0.00207628 -0.0691194 0.04578
0.0676812 0.0421007 -0.00037123
0 0 0
0.0375507 -0.685135 -0.214906
0.0274586 -0.0404389 0.0100982
0.126214 -0.461157 0.402138
0.107603 0.043554 -0.0108456
0.0368413 -0.425762 0.0975297
0 0 0
0.0440373 0.269852 -0.167921
-0.0824602 -0.174661 0.076331
-0.116579 -0.507847 -0.16103
-0.0106794 0.0464517 0.0284469
0 0 0
0.0551158 0.175421 0.00498639
0 0 0
-0.263195 -0.048817 -0.150927
-0.137527 -0.017873 0.19625
-0.101459 -0.0478314 0.146269
0 0 0
0 0 0
-0.279915 -0.239621 -0.0378084
-0.117466 0.0932386 -0.106761
-0.141004 -0.145114 -0.019652
-0.148793 -0.289749 -0.347246
-0.287158 0.00624561 -0.0958334
-0.0141804 0.0246451 -0.0582914
-0.0749102 -0.0219314 -0.0831195
0 0 0
0.544393 0.41646 0.106955
0.117409 0.0275427 0.0249564
0 0 0
0.117248 0.0473878 -0.0197609
0.109142 0.256654 0.158877
0.0470495 0.0405561 0.00702807
0.177875 0.00963768 -0.0414677
0.0348087 0.00621334 0.0578562
-0.048168 0.33712 -0.202282
-0.209327 -0.509245 0.0192858
0.00136731 0.0102296 0.0495027
0.219322 0.0789177 0.0386548
0 0 0
0.0921625 0.0711443 0.418361
-0.0803037 0.155137 -0.0399989
-0.334328 -0.077502 0.112233
-0.164759 -0.0524248 0.0867146
-0.203378 0.102065 -0.0313048
-0.109541 -0.0417737 0.122112
0 0 0
-0.210708 -0.103313 -0.0632845
-0.0578298 0.00135265 -0.222969
-0.248572 0.0489114 -0.0566919
-0.0868043 -0.100822 -0.170511
-0.00108052 -0.0461426 -0.0301745
-0.375113 -0.244373 -0.385646
0.120996 -0.308359 0.125881
0 0 0
-0.0193268 0.0599175 -0.0535474
0 0 0
-0.36989 -0.309269 -0.0648892
-0.0916408 -0.18078 0.306956
0.00264447 0.000307021 -0.0263989
0.195879 0.119131 -0.177897
0 0 0
-0.0677164 -0.313972 0.236062
-0.0769055 0.104704 -0.137448
0.126891 -0.0301548 0.0908123
0 0 0
0.398922 0.568592 -0.195372
0.111936 0.00753517 -0.0136669
0.240653 0.238404 -0.285388
0 0 0
-0.0923412 -0.313478 -0.178847
0 0 0
-0.290425 0.169099 0.174459
-0.103988 0.0959624 0.0474281
0.0137215 -0.0792467 0.000278055
-0.12757 0.167766 -0.13735
-0.344698 -0.119052 0.241242
-0.335242 -0.055592 -0.0903905
-0.0447543 0.0186449 0.142402
0 0 0
0 0 0
-0.230287 0.0113127 0.00201489
0 0 0
-0.0679437 -0.0268493 -0.0328742
0 0 0
0.034151 -0.237286 -0.0268276
0 0 0
0.124286 -0.0501493 -0.191097
0.00812911 0.0500962 0.0561533
0 0 0
0 0 0
0.0599449 0.118308 -0.416189
0 0 0
0.0402978 0.275616 0.0214225
0 0 0
0.0781259 0.0617644 0.0703128
0.00326006 -0.223204 -0.00183596
-0.0251582 -0.0332589 -0.0159207
-0.108485 0.316944 -0.289079
-0.0032781 0.174922 -0.00080934
-0.116622 -0.25977 -0.138329
0 0 0
-0.34106 0.00895852 -0.0253911
0 0 0
-0.102229 -0.195066 0.345131
0.00150723 -0.0271496 0.0333727
0.0289243 0.15141 0.116862
-0.0693982 0.0244054 0.0980559
0.330456 0.243938 -0.0584675
0.180611 0.282586 -0.0569298
-0.0872146 0.0305456 0.0237636
0.0148559 -0.027414 0.0130319
0 0 0
0 0 0
0 0 0
0.325517 0.0956355 0.463544
0.237155 0.160828 -0.164908
-0.0347271 0.25395 0.112939
0.0255491 0.0133412 -0.0669785
0 0 0
0.0248689 0.0377186 -0.0603309
0.114333 0.157349 -0.249018
0.0603407 -0.0681301 -0.215016
0 0 0
-0.237502 -0.175605 -0.0650787
0 0 0
0 0 0
0.109533 0.129452 -0.0766261
0.198781 -0.0786507 -0.0907322
0.0777604 -0.169987 -0.116362
0.0546872 -0.158378 0.153697
0.0189962 0.0201106 0.0329152
-0.13309 -0.167754 -0.00280797
0 0 0
0.327491 -0.134848 -0.168574
0 0 0
-0.133956 -0.21011 0.0813464
-0.417384 -0.108992 -0.0140387
-0.00826791 -0.125335 0.120803
-0.133698 -0.0421389 0.403129
0 0 0
-0.00457449 0.11335 -0.00344571
0.0831976 -0.0966969 -0.236655
-0.487293 -0.102167 -0.361279
-0.00189963 -0.00932696 -0.0800174
-0.394553 -0.142982 -0.408077
-0.00612193 -0.00354202 0.0157565
-0.294704 -0.145393 0.102147
-0.128509 -0.0354031 0.0519401
-0.236338 -0.110754 0.236527
-0.433803 -0.0572911 -0.027328
0.0231573 0.0432677 0.193812
0.0137409 0.0141276 -0.00263779
0 0 0
-0.0383883 0.139681 -0.118071
0 0 0
-0.281228 0.00632331 -0.104712
-0.137349 -0.147353 0.0696844
-0.333181 -0.0726187 0.384852
0 0 0
0.0179353 0.480529 -0.0185935
-0.176527 0.0278277 0.245539
0.0369231 -0.052699 0.00224009
0.193004 0.215879 0.420387
-0.0057594 0.11873 -0.0211266
0.176455 0.0267152 -0.310451
0 0 0
-0.0388067 0.0498774 0.0872547
0 0 0
0.113673 -0.290987 -0.0391505
0.0846021 -0.278341 -0.0254359
0 0 0
0.0318953 0.0179442 -0.0918678
0.00833007 0.0312774 0.0922227
0.0985822 -0.00575443 -0.245097
-0.00282229 0.0464324 -0.0385501
0 0 0
-0.200676 -0.12012 0.0882548
0 0 0
0.0276428 -0.0236478 -0.0037954
0 0 0
-0.0496287 0.24119 0.00793107
0.0374131 0.173019 -0.0596753
-0.13964 0.048842 0.0717804
0 0 0
-0.133425 -0.147908 -0.307343
0.0140882 -0.0515938 -0.333031
0.0466296 -0.290127 0.171214
0 0 0
-0.0383905 -0.292464 0.14079
-0.198613 -0.0192366 -0.000434088
0 0 0
-0.0361753 0.249724 0.142591
-0.0618179 -0.0167807 0.0617724
0.267518 0.249884 0.0519405
-0.0257403 0.000962082 0.0214913
0.0967104 -0.0458772 -0.0894393
-0.0502273 0.048977 0.0177735
0.135631 0.144889 -0.0949726
0.227963 0.0465354 0.223522
0.0758935 -0.219819 0.324744
0 0 0
-0.0375458 -0.0457001 -0.0129746
0 0 0
-0.0130742 -0.254611 0.036882
0 0 0
0.0117853 -0.472261 -0.0155542
0.00333327 0.192181 0.157895
0 0 0
0.0271813 0.233992 0.0956591
-0.137499 0.0790998 0.0462127
-0.0960243 0.0588332 -0.144713
-0.170961 0.0953961 0.289991
-0.0743975 0.0438941 -0.130522
0.00219827 -0.029528 -0.000503411
0 0 0
0.0243864 -0.342631 0.0510597
-0.0670018 -1.10841e-06 -0.0725121
-0.181098 0.00925872 0.302811
0 0 0
-0.0474562 -0.399678 0.0350841
0 0 0
0.092395 0.205706 0.0176544
0.123047 -0.0512036 -0.045251
0.0940839 0.501769 0.254096
0 0 0
-0.0213826 0.147587 0.00488185
-0.152783 -0.213332 -0.0674851
-0.385735 0.00166076 0.000783354
-0.17012 0.19305 0.0885769
0 0 0
-0.305313 -0.00101297 -0.154507
0.0877744 0.249234 -0.105328
-0.20693 -0.116679 0.11722
-0.094702 -0.0304607 0.0848215
0 0 0
0 0 0
0.0308753 -0.359207 -0.216387
0.0552398 -0.0155129 -0.0308574
0.124875 0.110842 -0.283645
0 0 0
-0.0969119 -0.0209881 0.0252669
-0.371394 0.101462 -0.0766716
-0.181444 0.0552666 -0.476336
0 0 0
-0.0675131 -0.0683883 -0.00097475
-0.00355102 -0.305965 -0.103487
0.172045 -0.29694 0.202691
-0.0838126 -0.0112572 0.139832
0 0 0
-0.0702028 -0.180106 -0.0931494
0 0 0
-0.154095 -0.290604 -0.024784
0 0 0
-0.191243 0.00990283 -0.172752
0 0 0
0.0373398 -0.266633 0.235121
0 0 0
0.0764021 -0.254278 0.113458
0 0 0
0.14202 0.192219 -0.0777087
-0.0360608 0.0312114 0.0485234
-0.244776 -0.0292506 0.0287785
-0.229379 -0.134258 0.0425118
-0.278969 0.0935879 0.166091
0 0 0
0.0707397 -0.271714 0.0702966
-0.183418 -0.0975131 -0.0667566
0 0 0
-0.0731011 0.10907 -0.00125188
-0.0951883 -0.0555127 0.00521457
-0.0450748 0.00218276 -0.00484338
0 0 0
0.0251901 0.0731112 0.0487967
0.0417255 -0.0564464 -0.000827382
0.253326 -0.0523237 -0.0499805
0.10774 0.00950885 -0.0212112
-0.0527084 -0.152849 0.116977
0.0322311 0.0645951 0.194769
-0.144581 -0.10001 -0.017237
0.211113 -0.0759559 0.142692
0 0 0
0 0 0
-0.145526 0.20466 -0.154489
0.00170822 -0.023172 -0.0138122
-0.207999 -0.0766345 -0.127832
-0.116962 0.127223 -0.0174546
0.0869392 -0.0360559 0.294714
-0.260484 0.00944257 -0.128376
-0.354753 -0.0352701 -0.463694
0.251875 -0.135827 -0.11568
0.0316194 0.00895336 -0.0100969
0 0 0
0.0343017 0.226647 -0.0750237
0.322614 0.100049 0.279048
0.301478 0.0914244 -0.182437
0.00695437 -0.0210553 -0.141078
0 0 0
0.0821098 0.0420656 0.0457987
-0.0196495 7.89477e-05 0.102702
0 0 0
0 0 0
0 0 0
0.220714 0.0530234 -0.0805806
0.225798 0.184767 0.154445
-0.0769513 0.0485401 0.106858
0.275443 0.197483 0.472927
0 0 0
-0.00399719 -0.00112717 0.0343127
0.00170398 0.0268924 -0.0106304
0.279163 -0.163988 0.0720691
0.0910375 -0.0531792 0.17748
0.0665227 -0.401959 -0.381558
-0.279144 0.265343 -0.360318
-0.0505247 -0.0711234 -0.0841521
-0.651808 -0.139874 -0.0161637
-0.320617 0.0684485 0.032101
-0.279032 -0.296325 -0.247051
0 0 0
-0.277824 0.0853118 0.231758
0 0 0
0 0 0
-0.111037 -0.120331 -0.229542
-0.14764 0.394393 -0.287233
0.00657352 0.242726 0.0657749
-0.00735064 -0.000578684 0.0147272
-0.00365688 0.0712775 -0.0947321
0 0 0
0.00235688 0.0517804 -0.15429
-0.0312678 0.0470477 0.0540508
-0.0122725 -0.313797 0.0469255
0.000855449 -0.0764709 -0.0732348
0.0787801 0.0388809 -0.0438789
0.0812839 -0.000851892 -0.0450682
-0.0391588 0.168395 0.0509922
-0.0958745 0.202851 -0.0232435
0 0 0
0 0 0
0 0 0
0.219098 -0.119866 0.135151
0 0 0
-0.0471482 0.048179 0.210846
-0.00185345 -0.137841 -0.147185
-0.0436291 -6.26029e-05 0.150101
-0.218764 -0.0400329 -0.0178185
0 0 0
0.0637909 0.0746343 -0.240504
0.097766 0.220799 0.150533
-0.0965448 -0.0337912 0.207837
-0.0294073 0.00158294 -0.198321
0.0373011 -0.0238413 -0.0275024
0 0 0
0.0379944 -0.019996 0.0165223
-0.21207 -0.121298 0.0848908
0.0577325 -0.0216682 -0.246392
0.000352703 0.00591517 -0.0453473
0.0500876 -0.179656 -0.025467
0.0190793 -0.288032 0.27423
-0.00076254 0.066579 -0.10793
-0.0624828 -0.133039 0.357443
-0.0767476 -0.0126599 -0.00148734
-0.0351377 0.0495195 0.0107753
0.0392866 0.0166518 0.155349
0.00185872 -0.0254671 0.0117904
-0.0657899 -0.297219 -0.123725
-0.101412 -0.0678199 -0.059154
-0.0547771 0.181367 -0.163011
-0.0421505 0.206853 -0.15154
0 0 0
0.00228912 0.104894 -0.166485
0 0 0
-0.0257097 -0.0145922 -0.00764971
-0.203008 -0.0144335 0.083116
0.152109 -0.187623 0.00580686
-0.340674 -0.242144 0.298006
0 0 0
0.16201 0.126819 -0.00333804
-0.0621238 0.0892243 -0.380638
0.67468 0.250247 -0.456561
0.277399 0.16282 -0.0995975
-0.0104671 -0.0228653 -4.77411e-05
-0.173754 -0.15611 0.0933399
0.0131829 -0.159035 -0.0249421
0.0481562 -0.0731233 -0.106001
-0.0188668 0.0131506 0.115842
0 0 0
-0.0683003 -0.0759027 -0.36433
0.0020911 -0.0542995 -0.118331
0.276397 -0.0389282 -0.128186
0 0 0
0 0 0
0 0 0
0.279874 0.137201 0.0275602
-0.00128477 -0.0782757 0.0684213
0 0 0
0 0 0
0.0249655 0.328456 -0.176083
0.00926549 -0.135378 0.108124
-0.349437 0.185216 -0.21542
0.114552 0.00289395 0.0123431
0.301557 0.0473714 -0.280147
0.127443 0.0661956 0.167485
0 0 0
-0.0277321 -0.411731 -0.0282566
0 0 0
-0.169675 0.0411636 -0.0764586
0 0 0
-0.153709 -0.478356 -0.106421
0 0 0
0.075378 -0.00133117 0.00285332
0 0 0
0 0 0
0 0 0
0.413141 -0.137115 0.204976
0 0 0
0.00463338 -0.20547 -0.00625356
0 0 0
0.21268 -0.366421 0.0128733
0.0132338 -0.0347363 0.127663
0.0306376 -0.00661098 0.0448491
0 0 0
0 0 0
0.239054 -0.193595 -0.0735465
0.0166051 -0.0253336 0.0698765
-0.262914 -0.087188 -0.0956371
-0.184746 0.0763757 -0.388543
0 0 0
0 0 0
0 0 0
0.194566 0.0879912 0.216639
0 0 0
0.0740668 0.0472971 -0.000446638
0.278406 -0.0570673 0.340588
-0.0589505 -0.0231899 -0.0942996
0 0 0
-0.112814 0.161483 -0.00831043
0.00217512 0.0296537 0.037215
-0.0791405 0.044376 0.101765
0 0 0
-0.204761 -0.541837 -0.417435
0 0 0
0 0 0
-0.105119 0.245864 0.250613
-0.227601 -0.158539 0.390122
-0.0521325 0.115214 0.131956
-0.129891 0.0203927 -0.0358007
-0.195065 -0.0905407 -0.0235307
0 0 0
-0.159063 0.0872074 -0.0596873
0.0791339 -0.0267165 -0.0535565
0.0524126 0.0448818 -0.525398
0 0 0
-0.225085 0.384503 0.062573
-0.0128401 0.00962251 0.015546
-0.26204 -0.250565 -0.0144232
-0.419111 -0.252935 0.291158
-0.0497968 -0.107014 0.109248
-0.109948 0.672837 -0.360628
0 0 0
-0.204555 -0.234482 -0.0419008
0.207781 0.205894 -0.0236656
0.115258 0.0427881 0.00700698
0.171122 -0.114353 -0.0275305
0 0 0
0.196462 -0.0431353 0.00277162
0.124932 -0.430843 -0.0625317
0.109908 0.00580423 -0.0838617
-0.110894 0.109674 0.128654
0 0 0
0.20355 0.0938711 -0.0541621
0.107248 0.0218765 -0.0287003
0 0 0
-0.0895583 0.0121048 -0.237032
-0.408856 0.0921769 -0.00817825
-0.106476 -0.244724 -0.193338
-0.0425718 -0.0102952 -0.0426619
-0.197405 0.0732214 -0.0269341
-0.00576729 0.00811592 -0.0631865
0.276596 -0.225048 0.308647
-0.129093 -0.103075 -0.0655913
-0.0391361 0.047415 0.0111613
0.0762503 -0.0304241 -0.00371673
0.000718785 0.259232 0.428711
-0.234326 0.309282 -0.0472522
-0.0403648 0.0286852 -0.050303
-0.0310968 0.0321119 0.289985
0.000616041 0.00630509 0.126448
0.0618832 0.00724275 0.0395433
0.11697 0.083923 0.302494
-0.149223 0.257665 0.214329
0.249718 -0.0766421 0.0779681
0.0210173 -0.0505553 0.010533
-0.01136 0.111124 0.142984
0.0600345 0.403035 -0.0526051
0.460711 -0.0915921 0.174653
0.0617901 0.117822 -0.0248688
-0.225226 0.108042 -0.471662
-0.00695577 -0.0151894 -0.0311557
0.000100736 -0.157712 -0.0428885
0.045685 -0.0337403 -0.121857
0.00389099 -0.00224982 0.0167219
-0.0873232 0.206097 0.332211
0 0 0
-0.220678 0.0995777 0.0802132
-0.0202118 0.187125 0.461391
-0.0510177 -0.28234 -0.165733
0 0 0
0.0590265 -0.107834 -0.0477526
0.203573 -0.0567156 -0.109363
0.145827 -0.144257 0.0196081
-0.116584 0.0842652 0.338207
-0.0303705 -0.0237046 0.0717677
-0.00827819 -0.0316159 -0.136887
0 0 0
-0.067259 -0.0612704 -0.0229147
-0.000738869 -0.0534559 -0.0644209
0.126628 -0.2002 -0.303374
0.00214658 -0.0487504 -0.0186977
-0.00788262 -0.0903286 0.113929
0 0 0
-0.203936 0.319174 0.456691
0.0182702 0.0317539 0.0536829
-0.129367 0.043769 0.28409
-0.00660457 0.0148391 0.0681834
0 0 0
0 0 0
0.0722031 -0.0189286 0.0739097
0.15287 0.0570502 -0.116926
0.179034 -0.0341921 0.00487211
-0.0362925 0.116533 0.0458086
-0.179202 0.313375 -0.0779935
0.00317473 0.120727 -0.0138428
-0.0936734 0.185643 0.409295
0.0513334 0.289363 -0.00101419
0.135855 0.287239 -0.127785
-0.168646 -0.04723 -0.0263145
0 0 0
0.168699 -0.489036 -0.263927
0.0923074 -0.0570051 -0.0621333
-0.0182922 -0.0426741 -0.0299618
-0.0745667 -0.135114 0.0595215
0.00619264 0.0147153 0.0820759
0.240739 0.124032 -0.196079
0 0 0
0 0 0
0.012249 0.021821 0.223146
0.0579935 0.0585874 0.101893
0.0120273 -0.000333776 -0.0131887
-0.0501737 0.292449 0.0528692
-0.202261 0.0583808 -0.0600498
0 0 0
-0.0531033 -0.0088877 -0.0648648
-0.0108105 0.0104867 -0.0583403
-0.0254274 -0.0272386 0.000555706
-0.0915625 0.0367931 -0.0048299
0.0517653 0.0352536 -0.260426
0 0 0
-0.170731 0.209062 -0.0397045
-0.0785851 0.102641 -0.0671856
-0.277711 0.45002 -0.245557
-0.061492 0.0595929 0.0681253
-0.302402 0.180205 -0.0490159
-0.0158994 -0.0148551 -0.00326576
0.000462599 0.0114033 -0.00326599
0.0518637 0.0545454 0.166687
0 0 0
0.0636243 0.00694147 -0.22693
0.084048 -0.153266 -0.0489721
0.125746 -0.321199 -0.0144631
0 0 0
0.0209618 0.0267428 0.24451
-0.0827504 0.0794519 -0.058213
-0.104155 -0.184444 0.220097
0 0 0
-0.0955857 -0.141088 -0.0713021
-0.0530548 -0.00651677 -0.00319771
0 0 0
-0.00580061 -0.00134759 -0.0109563
0 0 0
0.135775 0.05191 -0.0858121
0.113492 -0.0853178 0.125089
-0.00194741 0.00346195 0.0629975
0 0 0
0.0295629 -0.0537369 -0.147066
0.0429065 0.0646807 -0.102071
0.135269 0.0807124 -0.291521
0 0 0
0 0 0
0 0 0
0 0 0
0 0 0
0 0 0
0 0 0
0 0 0
0 0 0
0 0 0
0 0 0
0 0 0
0 0 0
0 0 0
0 0 0
0 0 0
0 0 0
0 0 0
0 0 0
0 0 0
0 0 0
0 0 0
0 0 0
0 0 0
0 0 0
0 0 0
0 0 0
0 0 0
0 0 0
0 0 0
0 0 0
0 0 0
0 0 0
0 0 0
0 0 0
0 0 0
0 0 0
0 0 0
0 0 0
0 0 0
0 0 0
0 0 0
0 0 0
0 0 0
0 0 0
0 0 0
0 0 0
0 0 0
0 0 0
0 0 0
0 0 0
0 0 0
0 0 0
0 0 0
0 0 0
0 0 0
0 0 0
0 0 0
0 0 0
0 0 0
0 0 0
0 0 0
0 0 0
0 0 0
0.0202707 0.0999928 -0.0563623
-0.0276165 0.0364061 -0.0533715
0 0 0
-0.0447227 -0.021609 -0.0335682
-0.00422649 -0.124504 0.0408338
0 0 0
-0.229755 -0.103975 0.0256803
0.0336968 0.0140073 0.120742
0.101619 -0.00371531 -0.135681
0.0552868 0.0656727 -0.0415203
0 0 0
-0.00921965 -0.132487 -0.0211199
0.143832 -0.0878581 -0.055143
-0.036324 0.0280483 0.022785
0.0840064 -0.040945 0.0212968
-0.0192144 0.0246852 0.0395956
0.018964 0.0334705 0.0293999
-0.00178101 0.0659888 0.0530655
0 0 0
0.126519 -0.0136738 -0.034053
-0.0958297 -0.0902791 0.0202894
0.00442088 0.0494525 -0.00197656
-0.0149175 -0.0571936 0.0822556
0.0179556 0.228158 0.206237
0.00395928 -0.298463 -0.0441833
0.00503131 0.00484228 0.086704
0 0 0
0.0493467 0.119763 0.086402
-0.0469638 0.0618709 0.0786942
0.00405433 -0.0274482 0.044099
-0.0268017 0.160979 -0.12525
-0.0249382 -0.135756 0.00286416
-0.0139309 0.000164938 0.0122022
0.0267244 -0.00707762 0.0165634
0 0 0
-0.0587033 0.00547174 0.0552291
-0.0317028 0.0177619 0.0356819
0 0 0
0.07579 -0.00466536 -0.0244304
-0.00165989 0.00395846 0.0861053
-0.0373385 -0.100984 -0.0145695
0.035176 -0.000989681 -0.0884343
0 0 0
0.077738 -0.162095 0.112893
-0.156666 -0.00668706 -0.073234
0 0 0
-0.066759 0.0360616 0.0320153
0.0166329 -0.00399348 -0.00917996
-0.0100158 -0.0015573 0.00743711
-0.0749158 0.0313166 -0.0772291
0 0 0
-0.124195 -0.00106546 -0.01043
0.0185175 -0.0635226 0.032953
0 0 0
0.104491 0.000749343 -0.0137084
-0.0347759 -0.182129 0.07107
-0.0105727 0.107434 -0.0693548
-0.0266351 0.00010467 0.0244318
0 0 0
-0.0212667 -0.0905683 -0.0374093
0.0258801 -0.000359788 0.0320418
0 0 0
-0.0943885 0.0351195 0.0670474
0.0210473 0.00190336 0.07387
0.00570227 -0.0539096 0.00439162
0.312238 -0.0783862 0.028618
0.178668 -0.256986 0.149209
0.336735 0.0319749 -0.236293
0 0 0
0.0530291 0.0561178 -0.183326
0.0689824 0.162708 0.212319
0 0 0
0 0 0
0.142569 -0.165361 -0.0159307
-0.184341 0.0971682 0.17158
0 0 0
0.0780307 -0.0593725 0.112562
-0.0318105 0.0253784 0.014799
0.0106546 0.548567 -0.226131
0.00156673 -0.0876701 0.104113
-0.052702 0.610803 -0.0594125
0.285721 0.0270116 0.142316
0.0140999 -0.0390136 0.119784
0.00179976 -0.00560608 0.00722243
0 0 0
0.0692415 0.0919081 -0.0606702
-0.00779422 0.0271566 0.126179
-0.178008 -0.00740394 0.306687
0 0 0
0.162757 0.118533 -0.123439
0.0861967 0.00353484 -0.142835
0 0 0
-0.366969 0.656809 0.140665
-0.00385973 -0.192571 -0.00491724
-0.238844 -0.167857 -0.061064
-0.0133686 0.0641257 -0.0864356
0 0 0
0 0 0
0.177526 -0.156101 0.288871
0.0105992 0.002762 0.000128665
0 0 0
-0.115487 -0.00133834 -0.148884
0.073471 -0.0777306 -0.0203199
0.0585494 -0.0287636 -0.111394
-0.275065 0.243097 -0.341208
-0.213559 -0.0481194 0.0266445
-0.131431 0.0284758 0.102459
-0.247166 0.155121 -0.0188597
-0.297976 0.365976 0.248842
-0.386826 0.14179 0.0230315
0 0 0
0.336118 -0.0688335 -0.2545
0.0813248 -0.00716679 -0.0729127
0 0 0
0.158995 -0.284018 0.252507
-0.118604 0.00745026 -0.155018
-0.0491171 -0.0253084 0.239761
-0.0194387 0.134 -0.0937704
0.0207749 -0.0906848 -0.0494502
-0.122098 -0.00214343 0.0263675
0 0 0
0 0 0
0.158992 0.11315 0.191347
0.0794252 0.122375 0.0379727
0.0301858 0.0561031 0.0927208
0.0498909 0.107694 0.0244504
0.0306971 -0.138489 0.0605448
0.0622055 0.122095 -0.0985763
0 0 0
0 0 0
-0.0336679 -0.0929503 0.0174439
0 0 0
0 0 0
-0.164734 -0.424872 -0.0113242
0.153038 0.328663 -0.2454
-0.162713 0.0193108 0.0396327
-0.021952 -0.148143 0.0191693
0 0 0
0 0 0
-0.145612 -0.0404035 0.0684468
0 0 0
0.124932 -0.211425 -0.156489
-0.0782534 0.123563 -0.187747
0.385105 -0.0596319 -0.202682
-0.0120952 -0.112186 -0.0272657
0 0 0
0 0 0
0.15453 -0.159557 -0.0811667
0 0 0
0 0 0
-0.0474761 0.159242 -0.333576
-0.00712356 -0.000698301 -0.00721382
0 0 0
0.135029 0.0383353 0.278112
0.100717 -0.151282 -0.354633
0.277042 0.204365 0.0578851
0.159628 -0.0662585 -0.0346055
-0.12909 -0.0184601 -0.0906
0 0 0
-0.195811 0.445325 -0.176153
0.026402 0.211659 0.0983467
0 0 0
-0.00796893 -0.0027156 0.0125308
0 0 0
-0.0814395 0.269693 0.106835
0.118163 -0.169746 0.118993
0 0 0
-0.040062 -0.0332298 0.146529
-0.0217776 -0.061967 0.0571921
-0.130894 0.00105111 -0.165231
-0.144544 -0.299242 -0.102508