<?xml version="1.0"?>
<VTKFile type="RectilinearGrid">
<RectilinearGrid WholeExtent="0 32 0 32 0 32" Origin="0 0 0" Spacing="1 1 1">
<Piece Extent="0 32 0 32 0 32">
<PointData>
</PointData>
<Coordinates>
<DataArray type="Float32" format="ascii">
0 0.524874 1.04975 1.57462 2.0995 2.62437 3.14924 3.67412 4.19899 4.72386 5.24874 5.77361 6.29849 6.82336 7.34823 7.87311 8.39798 8.92285 9.44773 9.9726 10.4975 11.0224 11.5472 12.0721 12.597 13.1218 13.6467 14.1716 14.6965 15.2213 15.7462 16.2711 16.796 
</DataArray>
<DataArray type="Float32" format="ascii">
-5.03879 -3.62163 -2.20447 -0.787311 0.629849 2.04701 3.46417 4.88133 6.29849 7.71565 9.1328 10.55 11.9671 13.3843 14.8014 16.2186 17.6358 19.0529 20.4701 21.8872 23.3044 24.7216 26.1387 27.5559 28.973 30.3902 31.8074 33.2245 34.6417 36.0588 37.476 38.8931 40.3103 
</DataArray>
<DataArray type="Float32" format="ascii">
0 0.524874 1.04975 1.57462 2.0995 2.62437 3.14924 3.67412 4.19899 4.72386 5.24874 5.77361 6.29849 6.82336 7.34823 7.87311 8.39798 8.92285 9.44773 9.9726 10.4975 11.0224 11.5472 12.0721 12.597 13.1218 13.6467 14.1716 14.6965 15.2213 15.7462 16.2711 16.796 
</DataArray>
</Coordinates>
<CellData>
<DataArray type="Float32" Name="Vector" NumberOfComponents="3" format="ascii">
0 0 0
0 0 0
0 0 0
0 0 0
0 0 0
0 0 0
0 0 0
0 0 0
0 0 0
0 0 0
0 0 0
0 0 0
0 0 0
0 0 0
0 0 0
0 0 0
0 0 0
0 0 0
0 0 0
0 0 0
0 0 0
0 0 0
0 0 0
0 0 0
0 0 0
0 0 0
0 0 0
0 0 0
0 0 0
0 0 0
0 0 0
0 0 0
0 0 0
0 0 0
0 0 0
0 0 0
0 0 0
0 0 0
0 0 0
0 0 0
0 0 0
0 0 0
0 0 0
0 0 0
0 0 0
0 0 0
0 0 0
0 0 0
0 0 0
0 0 0
0 0 0
0 0 0
0 0 0
0 0 0
0 0 0
0 0 0
0 0 0
0 0 0
0 0 0
0 0 0
0 0 0
0 0 0
0 0 0
0 0 0
-0.00982389 -0.139201 -0.0148847
-0.109514 -0.164863 0.114223
0 0 0
-0.0917711 0.17459 0.00813044
0.0348213 0.0271297 -0.00015969
-0.000246951 0.00561371 0.00589544
-0.0920712 0.246105 0.0188114
0.11426 -0.135752 0.0374922
0.0484168 0.196367 -0.0366863
0.216515 0.171074 0.0728696
0.0282975 -0.0302317 0.0156405
0.098933 -0.100232 0.0460032
-0.0457773 0.11597 0.0279055
0 0 0
-0.061823 -0.0406549 0.0445653
-0.000635071 0.0666542 -0.0284528
-0.0145649 -0.0435252 0.000947565
-0.124357 -0.104442 -0.172628
0.00128372 0.0250109 0.0156563
-0.119516 0.225345 -0.0664596
0.167997 0.0326486 0.0336638
0 0 0
-0.200928 0.130521 0.00158368
-0.0128123 0.0371998 -0.100338
-0.0182423 -0.149807 0.051466
-0.221105 -0.0698458 -0.0481613
-0.0282054 0.0031291 -0.0492344
-0.306923 0.166275 0.0837853
0.168745 0.0559552 -0.12363
0.0113956 0.00260246 -0.0132588
0.00079954 0.170357 0.0302881
-0.0533597 -0.0750284 -0.00045768
0.0976479 -0.0102503 -0.0919582
0.0161945 0.00940836 -0.102914
0 0 0
-0.135077 0.070302 0.014928
-0.0852303 -0.0212219 -0.0491401
0 0 0
-0.111671 0.115674 -0.00669897
-0.0352563 0.017656 -0.0361712
-0.0290779 0.00954782 0.00986085
-0.0483866 0.172855 -0.0460221
0 0 0
0 0 0
0.0509 0.112449 0.0307716
0 0 0
0 0 0
-0.0248047 0.395367 0.0151863
-0.0640492 0.031122 0.0750311
-0.0868567 -0.000632172 0.0917195
-0.000179335 0.0332214 0.01181
0.113478 -0.0889181 0.00454847
-0.032328 5.40416e-05 -0.0313957
0 0 0
0.141655 0.03904 0.000328967
0.0727567 0.00206707 0.038566
0.0082921 -0.00350322 0.00346555
0.100049 0.0314797 -0.00221771
-0.0151069 0.00042216 -0.0376711
0.148117 0.0195038 0.0815775
0.05853 0.00996333 0.063099
0 0 0
0.00561725 0.0240202 -0.0319084
0.0745474 0.0865383 0.173423
-0.393651 -0.343049 -0.117739
-0.227148 0.10476 0.110669
0.00306241 -0.119483 0.161577
0.0326116 0.252685 -0.0101971
0.148162 -0.0133714 -0.0702087
-0.00536476 -0.0202145 -0.0452147
-0.229244 0.381197 -0.359137
-0.103491 -0.357059 0.0633271
0.0647451 -0.0985337 -0.33405
-0.39525 0.0100474 -0.0969475
-0.0535935 0.00420702 -0.0647025
-0.0802934 0.38275 0.108128
0 0 0
0 0 0
0.0264392 0.0151117 -0.157751
0.0676641 0.163048 0.0220166
0 0 0
-0.0999648 -0.0180948 0.133617
0 0 0
0.0295734 -0.0556999 -0.169002
-0.184396 0.0329043 0.00918523
-0.0366467 0.031539 0.0146098
0.179505 -0.158163 0.0186937
0 0 0
0.179803 0.030633 -0.172614
0.494341 -0.00493369 0.188642
0 0 0
-0.106603 0.471394 -0.110324
-0.03386 -0.020316 0.182417
-0.193557 -0.166108 0.126675
-0.176479 0.00337512 -0.317835
-0.127716 -0.327013 -0.205144
0.173398 0.039707 -0.128292
0 0 0
-0.0873175 0.255729 -0.0988935
0 0 0
-0.178177 0.294923 -0.269829
0 0 0
-0.108698 0.0257687 -0.0708995
-0.201024 -0.240666 0.137093
-0.28941 0.0271354 -0.170378
-0.319368 0.0352381 0.359018
0 0 0
-0.218736 0.00780532 -0.268276
-0.0722379 0.0190823 -0.0269717
-0.0869375 -0.155084 0.138477
-0.0317392 0.00593451 0.184152
-0.0420916 0.0296863 0.175757
0.15246 -0.0176239 0.0422646
-0.111769 0.0377011 -0.054337
-0.00847955 -0.0671127 0.311314
-0.0563314 -0.211641 -0.00921062
0.0769296 0.114618 0.252551
0.332683 0.128031 0.0530721
0 0 0
-0.150087 0.130259 0.338245
0 0 0
-0.134749 0.332173 0.0240137
-0.00575821 0.0257545 0.00161156
0.00271785 0.401971 0.186573
0.0429739 0.00881862 0.0326422
0.0306843 0.134352 0.057347
0 0 0
0.162681 0.203564 0.10008
0.152719 0.127868 -0.0999829
0.0148844 -0.0482556 0.00585961
0 0 0
0.0988474 -0.167304 -0.0924055
-0.27304 -0.507145 0.40223
-0.0031833 -0.000738951 -0.00414582
-0.123721 0.0658828 -0.097235
0 0 0
0.0874453 0.313801 0.205781
-0.0795159 0.063195 -0.231118
0.0206176 0.129106 -0.133187
-0.00497784 0.0111712 -0.0126011
0 0 0
-0.151898 -0.184528 0.188669
-0.254132 -0.0199405 0.185895
-0.206018 0.0598065 -0.122837
0.0581435 0.0053868 0.0035892
0.0585425 0.014285 -0.267836
-0.0145604 0.0768499 -0.00520188
-0.125816 -0.136375 -0.150806
-0.242604 0.181608 0.232539
-0.0489751 0.00309081 -0.000194315
0 0 0
-0.358747 0.170536 0.197282
0 0 0
-0.0162778 0.0398484 0.0831031
-0.0958606 -0.00137542 0.00588236
0 0 0
-0.0662932 0.0284536 0.0694143
0.132302 -0.0202781 0.24947
-0.154818 0.166432 0.210817
0.132118 0.286016 -0.310064
0.00318501 -0.00441726 0.0140611
0.104388 -0.0237241 0.199219
0.0555623 0.0171065 0.0514202
0.318503 -0.402532 0.453065
0.0666675 -0.032311 -0.0196337
0.128102 0.303357 0.164194
0.219815 0.180798 0.0205807
0.116821 0.277183 -0.284027
0.0395009 -0.0903687 0.000896823
0.164776 0.151426 -0.235841
0.103808 -0.0466636 -0.0200521
-0.158956 0.170438 -0.119398
0 0 0
-0.00606217 -0.091703 -0.124955
-0.0813095 -0.177555 -0.123037
0 0 0
0.275295 -0.237244 -0.139789
0.116101 0.0844025 0.120707
-0.0253464 0.384194 0.0140357
-0.0387296 -0.0750345 -0.104762
0.00606813 0.0129374 -0.00263392
0 0 0
0.09487 -0.0267785 -0.10532
-0.0679841 0.00877888 -0.00280876
0.0178306 -0.0580133 0.00328321
0 0 0
-0.188691 0.105422 -0.352258
-0.0589944 -0.058375 0.141444
0.00106253 -0.00216666 -0.0126477
-0.0160212 0.00875113 0.00882695
0 0 0
-0.0124148 0.0829356 0.00178896
0.0640981 -0.022837 -0.0163301
-0.00111852 -0.0228713 -0.230226
-0.0218727 0.408062 0.322413
-0.163642 -0.227653 0.236782
-0.210694 -0.179573 -0.00668402
0.0568976 -0.0367724 -0.0295062
-0.202944 -0.0532511 -0.392376
-0.154936 0.170554 0.00723771
-0.446125 0.538262 0.119506
0 0 0
0 0 0
0 0 0
0.253476 -0.194905 0.190178
-0.000513758 -0.104342 0.00825806
0.053478 -0.177182 -0.0969774
0 0 0
0.00852728 -0.0105957 -0.000976124
-0.265191 -0.240691 -0.310077
0.101154 -0.250131 0.387541
-0.0749289 -0.103519 -0.0791598
0 0 0
0 0 0
-0.0555454 0.144472 -0.2234
-0.0740644 0.0129222 0.0647751
0 0 0
-0.130982 0.0536579 0.0837986
-0.0806709 -0.0291265 -0.189393
-0.0492292 -0.189565 0.0987471
-0.357615 -0.357418 -0.298434
-0.0794032 0.0401738 0.00531729
-0.198308 0.183464 -0.326531
0.0511615 -0.00803494 -0.0472604
-0.165231 0.137837 0.128927
-0.00188295 -0.0664088 -0.0576639
-0.135173 0.0205596 0.0589521
-0.15543 0.250725 -0.118283
-0.134831 -0.0983758 -0.168839
-0.0587065 -0.133637 0.188999
-0.235341 -0.157415 0.112443
0 0 0
-0.000841184 0.109032 -0.0666479
0.086013 -0.0118683 0.166932
-0.108776 0.0520708 0.0631524
0 0 0
-0.00405286 -0.0357112 -0.00995504
0.326513 -0.0202394 -0.288915
0 0 0
0 0 0
-0.20898 -0.23719 0.160627
-0.17606 -0.152059 0.0092968
-0.432312 0.445022 -0.175075
-0.223275 -0.187531 -0.0908203
-0.53037 -0.192519 -0.0427622
-0.488614 0.0707528 0.0544792
-0.229043 -0.282045 0.0053944
0.0810887 0.0115623 0.00326288
0.0500618 0.00286403 0.0152197
-0.00584876 0.0156395 -0.0412534
-0.0885584 -0.0290931 -0.0872793
0 0 0
0 0 0
0 0 0
-0.0962815 0.141754 -0.152363
0 0 0
0.314099 0.221357 0.159887
0.241487 -0.0539877 0.156085
0.32285 0.0910668 -0.101093
0.0612749 0.153016 0.101473
0 0 0
0.23081 0.0652131 -0.0466851
0.00275329 -0.00310892 -0.00567158
0.104818 0.15846 0.0572134
-0.0176144 0.0519549 0.0313175
0.0362077 -0.0736373 -0.0297357
0 0 0
0.139354 0.0594295 -0.295671
0 0 0
-0.0973436 -0.174759 -0.123279
0 0 0
0.109778 -0.0709601 0.526075
0 0 0
0 0 0
0 0 0
-0.0692163 0.0157789 -0.266215
0.158707 0.18448 -0.00511108
0 0 0
0.164408 -0.175021 -0.0942301
0 0 0
0.105704 -0.11611 0.186856
-0.297496 -0.206021 -0.0647545
0 0 0
-0.338701 -0.107852 -0.256419
0 0 0
-0.0177739 0.0117341 -0.0317232
0.000541095 0.0390049 -0.16799
0 0 0
-0.121802 -0.00787746 -0.135111
0.252572 -0.0533934 0.0575283
0.388938 0.080553 -0.0406708
0.180223 0.108527 -0.0127702
0.172417 0.19887 0.177622
0.194293 0.0350224 -0.00674855
0.0903967 -0.0276774 0.00343714
0 0 0
0.151916 0.206532 4.95446e-05
0.0479504 0.0106611 0.0426833
0.240957 -0.0555655 0.480143
0.0290913 0.055611 -0.0383315
-0.0457194 0.174615 0.00107299
-0.349933 -0.315004 0.315625
-0.00226935 -0.0476165 0.00854309
0.012086 0.0333909 -0.0215024
0.0410024 0.0974586 -0.115544
0 0 0
-0.152828 0.126268 0.142371
0 0 0
0.109891 0.276037 -0.0439487
0 0 0
-0.368408 -0.0765661 -0.111264
0.0240622 0.0333149 -0.0441649
0.23109 -0.234782 -0.210689
0 0 0
0.136731 0.0744853 -0.132138
-0.121803 -0.331914 0.0413635
-0.376927 -0.0349173 -0.331249
-0.286834 0.0352774 0.102742
0 0 0
-0.163572 0.153251 0.00480756
0 0 0
-0.235793 0.0683743 0.000404226
0 0 0
0 0 0
0.142148 0.20512 0.00439458
0 0 0
0.0400845 0.00526598 -0.137763
-0.220166 -0.161297 0.255226
-0.127786 -0.23439 -0.120574
0 0 0
0.0320114 0.0325389 0.0947929
0 0 0
-0.0530346 -0.0176665 0.0456727
-0.0923864 0.246608 0.502578
0.0126807 0.00115524 0.0548809
0.24693 0.261201 0.0964909
0.140024 0.089851 -0.0949006
0.342687 -0.402011 -0.220212
0.0431695 0.0182199 0.113823
0.115594 -0.0247349 0.28007
0 0 0
0.234849 0.569623 0.0270969
-0.00171092 -0.0316696 0.11682
0 0 0
0.151916 0.138472 0.134518
-0.011478 0.0575612 -0.111445
-0.184845 -0.209816 -0.146395
0.00233456 -0.189012 -0.0890916
0 0 0
-0.265454 0.0873157 0.00455852
-0.121542 -0.286129 -0.247775
-0.0873227 -0.298801 0.140112
0 0 0
-0.0873196 -0.212913 0.152781
0 0 0
0 0 0
0.10631 0.00838084 -0.128979
0.161557 -0.032227 0.128372
0.0583002 0.0149192 -0.108927
0.116409 -0.017278 -0.111458
0 0 0
0.128774 -0.038588 -0.515816
0.130538 0.0146009 -0.103472
0.284012 0.620159 0.0430883
0 0 0
0.100812 0.251524 -0.180912
-0.00132614 -0.0504885 -0.0173946
0 0 0
-0.0701569 -0.0472685 -0.168481
0 0 0
0.580789 -0.408709 -0.00316779
0.00184239 -0.0922206 -0.155144
-0.276344 0.33926 -0.244389
-0.0885884 0.281477 0.314656
0 0 0
-0.00470614 0.0262015 0.00115605
0.0621668 0.178773 0.346118
0.0792795 0.195857 -0.0298473
0.0549226 0.113509 0.131611
0.200219 -0.213885 0.165938
-0.0215163 -0.0160494 -0.0838327
0.274216 -0.0617052 0.126344
0 0 0
0.132258 -0.357755 0.0497516
0.123715 0.0909874 -0.158399
-0.00458695 -0.164456 0.167107
0.051349 -0.279942 -0.011567
0.00821858 -0.0721598 -0.0108159
0 0 0
0.162004 0.130756 0.175873
0.00454139 3.65869e-05 0.044646
0.084993 -0.0835067 0.00613701
-0.18134 -0.0489595 0.202901
-0.107956 -0.0752771 -0.0774429
-0.188771 0.0669321 0.158467
0 0 0
0.138192 0.146255 -0.20444
0.186605 0.108242 0.119421
0 0 0
0 0 0
0 0 0
0 0 0
-0.0437487 -0.150193 0.173723
0 0 0
-0.0824639 -0.094751 0.123461
0.00186869 -0.145121 -0.080624
-0.073925 0.353491 0.103673
-0.0666751 -0.0985175 0.0588272
-0.0323146 0.182357 -0.0579307
0 0 0
-0.0156888 -0.00892502 0.0118591
0.00836151 -0.00131926 0.0179079
-0.078666 0.0456409 -0.088132
-0.00417106 -0.0865016 0.119668
0.221925 -0.155739 -0.0471654
-0.107069 -0.0110132 -0.0607764
-0.0176036 -0.00482234 0.0136218
-0.19676 0.0449263 -0.105518
-0.0448952 0.0117814 -0.120544
-0.0831767 -0.231313 -0.238658
0.117092 -0.0479288 -0.126295
0 0 0
0.0739113 -0.00416236 0.000118983
-0.273843 0.00894251 -0.0450763
-0.000509508 0.0702723 -0.253409
0 0 0
0 0 0
-0.172958 0.0304489 -0.096274
-0.0255087 -0.024067 0.0283775
-0.414492 0.114606 -0.0697968
0 0 0
0.0549954 -0.0276234 0.0392974
0 0 0
-0.101587 -0.0241331 0.0260415
0 0 0
0.0470062 -0.102995 0.263816
0 0 0
0.0489349 0.0797561 -0.0362505
-0.0273547 0.0483845 -0.040384
-0.222307 0.189553 -0.0418402
0 0 0
0.0138716 0.0427077 0.0384658
0 0 0
-0.0631803 -0.0735937 -0.110526
0 0 0
0 0 0
0.338171 -0.168177 -0.105213
0.0185469 0.00137196 -0.0143197
0.0211287 -0.0763397 -0.137588
0.245893 0.095287 -0.127142
-0.00169117 -0.0502128 -0.0281143
0.18939 0.00194537 -0.227074
-0.105173 0.250324 0.143178
-0.0552971 0.0382757 -0.0492592
-0.211681 0.413925 0.329408
0 0 0
0 0 0
-0.15261 0.205554 0.369842
0 0 0
-0.0245087 -0.00240309 0.00172178
0 0 0
0.177361 -0.146552 -0.00529971
0.0943947 0.073333 -0.0677489
0.210545 -0.249754 -0.181406
0.0327383 0.00760096 0.120729
0.195554 0.293615 -0.103484
0.0108138 -0.00257809 -0.00199398
0.145683 -0.22854 -0.112487
0 0 0
-0.0221082 -0.298927 0.00139169
-0.114278 0.00402374 -0.14118
0.199933 -0.200513 0.0466149
-0.000779682 -0.00890782 -0.0991286
0.387704 -0.39618 -0.188292
0 0 0
0.117413 -0.10941 0.375352
0 0 0
0.142259 0.347134 0.0488768
-0.109645 0.156153 -0.0921803
-0.0308004 0.025244 -0.040307
-0.071719 0.0444954 0.00504177
-0.397037 0.356006 0.114767
-0.00159792 0.0697503 -0.00504883
-0.281083 -0.163983 -0.00392193
-0.0659474 -0.072898 -0.116632
-0.0104393 0.0689805 0.297336
0.0492172 0.0763417 0.0137202
-0.00339868 -0.0032836 0.000402134
-0.0689167 -0.190119 0.0387866
0.0372887 -0.0292961 -0.0254137
-0.0341983 -0.321643 0.0824275
0 0 0
0.00434553 -0.16003 0.2388
0 0 0
0.274665 -0.324526 0.181716
0.216674 0.105789 -0.161098
0.148839 -0.301026 0.100837
-0.107623 0.0406087 -0.127546
-0.158447 -0.0634562 0.0449213
0 0 0
-0.0392453 0.21047 -0.0698241
0 0 0
-0.0931255 -0.0623664 -0.0279904
-0.148235 -0.231419 -0.13084
-0.103824 -0.369455 0.158011
0 0 0
-0.287516 0.210238 0.0799261
-0.00603328 0.122353 -0.0813144
0 0 0
-0.136576 0.0900849 -0.0756673
0 0 0
0.224523 0.192388 -0.296236
-0.0135133 -0.102607 0.295658
0.00366814 -0.11011 -0.0797272
0.0486703 0.0947768 0.107801
-0.396526 -0.147272 -0.130264
-0.235713 -0.0627368 0.100233
-0.33629 0.00574579 -0.0269294
-0.172752 -0.114148 -0.166209
0.00543198 -0.134862 0.0368231
0.177088 -0.0705718 0.174146
-0.0514302 -0.032533 -0.0285654
-0.0656153 0.0262712 -0.126727
-0.00157504 -0.0737019 0.0484814
-0.19799 -0.414909 0.112463
-0.0556966 -0.175705 0.203442
-0.0973287 -0.146176 -0.102667
-0.296036 0.269559 0.114632
-0.172484 0.043165 0.24713
-0.161977 0.0176129 0.0286993
-0.0299606 -0.0660859 0.207333
0 0 0
0.0199652 -0.0473388 -0.255109
0.283644 0.016105 -0.19283
0.0010844 -0.125284 -0.245913
0.105087 0.122771 -0.239074
0 0 0
0.156213 0.340301 0.0774818
0.0574508 -0.0436365 0.0214346
0.00990329 0.0246939 -0.0130774
-0.170698 0.0700866 0.0538961
0 0 0
0.0964732 0.135296 -0.292947
0 0 0
0.40064 0.136463 0.24647
0.0170123 0.196483 -8.25123e-05
-0.165736 0.339245 -0.458575
0 0 0
-0.24489 -0.0032792 -0.126224
-0.360616 -0.198569 0.0535628
0.0500333 0.0625918 0.0375456
0 0 0
-0.0128949 0.0530381 -0.182129
0.104191 -0.141709 -0.140847
0 0 0
0 0 0
0 0 0
0 0 0
-0.00565535 0.354116 0.200715
0.0036941 -0.127924 -0.00492227
0.0773313 -0.284414 0.14723
0 0 0
-0.005662 -0.158568 0.141844
-0.0632003 -0.226542 -0.104226
0.0464325 0.185467 -0.356683
0.0819738 -0.0451521 -0.022504
0.00340159 0.0246582 0.243866
-0.0764279 0.00510153 0.039565
-0.0491758 0.0920924 -0.336593
-0.172621 0.0323143 -0.0298709
0.119889 -0.0547945 -0.00543287
0 0 0
-0.00090702 0.379631 -0.0464223
-0.0138849 -0.0149698 0.023478
0.127437 -0.0470988 0.00166275
0.142031 0.0643257 0.228797
-0.190289 0.136818 0.220311
-0.019695 0.00798681 0.000802176
0.191903 0.285492 0.52674
0.145762 0.056375 0.122914
0.0209986 -0.075823 0.00241678
0.0506804 -0.0732604 0.153855
-0.0213154 -0.246127 -0.0856533
0 0 0
-0.0650037 -0.032667 -0.115793
0 0 0
0.048516 0.0661164 -0.0628327
0.0138833 -0.0117659 0.0634547
0.0364333 -0.158368 -0.0446525
0 0 0
0.0527675 -0.0341773 -0.120506
-0.00109041 -0.0238094 0.000601772
-0.0990364 -0.156112 -3.33555e-05
-0.114491 -0.0246532 0.140254
0.105127 2.28199e-05 -0.269954
-0.02105 -0.0109951 0.000123605
-0.159636 -0.0967961 0.000905255
-0.0771595 -0.20062 0.291724
-0.0819127 0.0516616 -0.0462617
-0.0571448 -0.00734286 -0.0115804
-0.00991474 0.148406 -0.00758938
0.00344533 0.0129373 -0.0448162
0 0 0
-0.161871 0.335401 -0.347159
-0.357823 0.0323602 0.109559
-0.199745 -0.292871 -0.23961
0 0 0
-0.0621504 -0.0385781 0.0193954
-0.48427 -0.0148104 -0.217639
-0.185244 -0.0898263 0.175503
0 0 0
-0.17439 0.358441 0.0467968
-0.0349227 0.0235538 0.0440763
0 0 0
0.0563505 -0.473518 0.0692189
0 0 0
0 0 0
0.126473 -0.219889 -0.507963
-0.0258037 0.0252076 0.0231721
-0.252979 -0.273868 -0.210119
0 0 0
0.262102 -0.545047 0.171056
0.173859 -0.22531 0.0780569
-0.0462041 0.0591322 0.101255
-0.0535157 -0.230748 0.0373006
-0.2088 -0.158583 -0.0689645
-0.115826 0.124647 -0.158171
-0.0416694 -0.00220161 0.0353719
-0.201717 -0.236711 0.0579152
-0.057641 -0.102787 -0.131336
-0.140047 0.0894567 -0.0441193
-0.202311 -0.00644212 0.20539
0.219768 -0.0418445 -0.0636132
0 0 0
-0.223764 -0.0972144 -0.174117
0 0 0
-0.205596 -0.0168088 -0.00518297
-0.000286348 -0.074343 0.0393326
-0.162871 -0.340883 -0.217583
0.0363876 0.123243 0.0459562
-0.0126242 -0.117034 0.123103
0.0170754 -0.648928 -0.175509
0.00263365 0.0372091 0.0960366
0.120365 -0.0194985 -0.0363049
0.0226541 -0.0153327 0.160737
0.194901 -0.525081 -0.0389132
0.0828404 -0.584003 -0.274973
-0.0837521 -0.269994 0.101633
0.00608753 0.0127198 -0.00581716
0.0482242 -0.129712 -0.000765125
0.140702 -0.363623 0.0709167
0.112824 -0.0177072 -0.17908
0.160487 0.0383367 -0.186804
0.127152 -0.131897 0.0311477
-0.308876 -0.205258 -0.121817
0.00306261 -0.0868329 -0.113192
0 0 0
-0.222829 -0.20016 -0.410053
-0.156458 -0.00215696 -0.0830798
0.215197 0.0644792 -0.0275392
0 0 0
0.111926 0.0268736 0.036872
-0.0951237 0.207236 -0.0472672
0.167682 0.243595 0.0133053
-0.0191613 -0.0105218 0.0078887
-0.0343456 -0.173306 -0.129185
-0.128503 -0.200721 0.159581
-0.171756 0.105901 -0.159421
0.0247179 0.174077 -0.255841
-0.0984025 -0.168208 0.0820037
0.0222198 -0.131617 -0.0372217
-0.133715 -0.135696 0.13445
0 0 0
0.00534614 -0.023888 0.0628809
0 0 0
-0.0489 -0.0157864 -0.217716
0 0 0
0 0 0
-0.177636 -0.118215 0.230216
-0.231828 -0.0187298 0.0400035
0 0 0
0 0 0
-0.146268 -0.236173 0.157459
0 0 0
0 0 0
0.256989 0.106585 0.427669
0.0529367 0.0926611 -0.283585
0 0 0
0 0 0
-0.0846641 -0.10404 -0.480113
-0.326474 -0.177199 0.0731803
-0.0796438 -0.103307 0.203692
-0.100524 -0.140136 -0.0711178
0 0 0
0.219037 0.0909076 -0.112583
0.0388213 0.144156 0.00958989
0.0804603 -0.0298421 -0.14454
0 0 0
-0.0494971 0.0131435 0.101471
-0.182176 -0.185922 0.270321
0.0280717 -0.0509332 -0.000273826
-0.07499 0.17523 -0.104141
0.0827846 -0.192977 0.15196
0.0688244 -0.0991109 -0.0285259
-0.0264743 0.0159163 0.00497415
-0.136147 -0.216966 0.364934
0 0 0
-0.106767 -0.108078 0.125437
0 0 0
0 0 0
0 0 0
-0.0848113 -0.0860922 0.179027
-0.0409469 0.135866 0.0578625
-0.000372173 -0.0598716 0.0351403
-0.277154 0.124554 -0.00201505
-0.0192778 -0.0241266 -0.0118749
-0.487472 0.155371 0.0473329
0 0 0
-0.0930272 0.0903431 -0.114724
-0.000350749 -0.0504747 0.0458015
0.0117187 0.0781812 0.176801
0.0272673 -0.0385996 0.0129813
0.000971824 -0.00865523 -0.0114652
-0.000999017 0.0629874 0.0229442
-0.142218 -0.16832 0.117541
-0.043724 -0.127112 -0.0673622
-0.197694 0.0135709 -0.0512885
0.0214973 -0.133649 -0.307461
0 0 0
0.0375546 0.109983 0.00175345
0.0167458 -0.195117 0.257613
-0.0282354 -0.0436001 0.134646
-0.228127 -0.000494378 -0.005636
-0.215887 -0.904005 0.35249
-0.138124 -0.182646 0.129314
-0.175732 -0.242438 0.096969
0 0 0
0.12056 0.00802319 -0.0447679
-0.00694073 -0.336418 -0.12666
0.0399252 -0.0354236 -0.0740565
-0.000116289 0.185706 0.173319
0.0577565 -0.173955 0.171405
-0.199987 0.121636 0.163189
-0.134951 0.223642 -0.0405982
0 0 0
-0.245128 0.129926 0.19139
-0.111595 -0.108736 0.037397
-0.0425266 -0.00145906 0.436281
0.152668 -0.0968989 0.105814
0 0 0
-0.384576 0.0151217 0.297687
-0.207335 0.0983549 0.0718378
-0.256786 -0.195098 0.127148
-0.0141694 0.0395222 0.0168125
-0.218027 -0.117919 0.080699
-0.081016 -0.353549 0.392499
0.00320485 -0.00678233 0.00881274
0 0 0
0 0 0
0.172891 0.166959 0.0329379
0 0 0
0 0 0
0.0136452 0.123193 0.27803
0.00362024 0.0979816 -0.0501599
-0.0752691 0.0699722 -0.186468
0 0 0
0.0410705 0.0914226 0.256986
0.00921877 -0.00648506 -0.0115245
0 0 0
-0.000510534 0.0780936 0.0974091
0.137395 -0.00530287 -0.238172
0.336269 -0.0206304 -0.290397
0.100261 -0.197666 -0.288022
-0.0766918 -0.0121793 -0.206619
-0.0586118 -0.0529513 0.0368102
0 0 0
-0.504725 0.994197 0.17336
-0.179703 0.0646104 -0.0355908
-0.199988 -0.160398 -0.267693
0 0 0
0.0567819 -0.259221 -0.338613
0.0869355 -0.191916 -0.106977
0 0 0
0.233848 -0.040224 0.289108
0.436336 -0.220975 -0.521023
-0.0510792 -0.0990375 0.169236
0.148338 -0.0220391 0.296095
0.00353401 0.074859 -0.126065
0 0 0
-0.143243 -0.0891806 0.0360149
-0.0558485 -0.0385562 -0.0170928
0.0398616 0.0272117 -0.0569244
-0.0390484 -0.107398 0.000321428
-0.0687254 0.0320501 0.402221
0 0 0
0.385786 0.0468815 -0.17364
0.00862985 -0.0787046 -0.112438
-0.0203378 -0.00203348 -0.0935201
0 0 0
0.0977744 0.0692041 0.152638
0.0233358 -0.0204637 0.0193519
0.0517962 -0.105679 0.299927
0 0 0
0.0734694 0.2071 0.377747
0 0 0
0 0 0
0.170177 -0.299636 0.130269
0.011223 -0.00746479 -0.0279074
0.199293 0.384645 -0.138927
0.0133073 -0.00174755 -0.0253301
-0.0791187 -0.0574373 -0.208094
0.0654585 -0.161333 -0.208484
0 0 0
0.25971 0.870765 -0.0517104
0 0 0
-0.0327067 -0.00266493 0.0279297
0.00158828 -0.0859969 0.0157879
0 0 0
-0.0430703 0.0599201 -0.0486723
0 0 0
-0.0115242 -0.0265939 -0.034738
-0.0378537 0.427821 0.00955104
-0.258061 0.0813449 -0.000735118
-0.282809 -0.131806 -0.315803
0.456707 0.0612086 0.285098
0.326661 0.0376648 0.158542
-0.00076272 0.116167 0.0756081
0 0 0
-0.27007 -0.390234 -0.339726
-0.241223 -0.0034951 -0.109676
-0.355381 -0.150028 0.15947
0 0 0
-0.157758 0.202395 -0.124125
0.0637125 -0.0389998 8.03703e-05
0 0 0
0 0 0
0.277283 -0.110885 -0.00356379
0.110523 -0.00275252 -0.00935219
0.0959964 0.143033 0.239617
-0.00127967 -0.0559327 0.0724945
-0.068819 -0.0392051 -0.292455
0 0 0
0.107969 -0.0325443 0.107196
0.00167291 -0.0206112 -0.0358499
0 0 0
0 0 0
-0.0156416 -0.0152198 0.0162989
-0.320103 -0.0133027 0.355629
0 0 0
-0.0125218 -0.292392 0.00254039
-0.125968 0.1747 -0.145552
0.172132 0.0835665 0.00263981
0.0606176 0.00921286 -0.0330471
0.173169 0.0568333 0.11667
0 0 0
-0.121437 -0.101965 -0.501258
-0.151631 0.0912729 0.14131
-0.0272209 0.112715 0.0808322
0.10815 0.00603785 -0.0502955
0.0652726 0.0878858 -0.0372206
0 0 0
0 0 0
0.157404 -0.229629 -0.167325
0.468459 -0.236554 0.439521
0 0 0
0.048932 0.0362902 -0.122921
0.0565209 -0.0181234 0.0139598
-0.0399967 0.0157283 -0.0553897
-0.0543161 0.0862597 -0.056416
-0.169117 -0.185096 0.0684356
-0.0428349 0.0809276 0.311924
0.151555 -0.327098 0.185588
0.0434398 -0.255137 -0.0316029
0 0 0
0 0 0
-0.0726084 -0.106253 0.132881
0 0 0
-0.118145 0.0995343 -0.350042
0 0 0
0.0123039 0.0417307 0.000496272
0 0 0
0.160602 -0.168622 -0.116994
-0.0831099 -0.0154466 -0.164396
-0.1113 0.172806 -0.126255
0 0 0
0.0199485 -0.0626824 -0.309701
-0.047851 0.101717 -0.115912
0 0 0
0.381724 -0.0431614 -0.253873
0.0103219 -0.00511536 0.00269384
0.0490949 0.00974981 -0.00727675
0 0 0
0 0 0
-0.202402 -0.0101133 0.271485
-0.248733 0.0643741 -0.0907424
0 0 0
0.457099 0.0666066 0.368842
0.00426885 -0.0219553 -0.0786572
-0.111734 0.0497435 -0.126426
-0.00704281 -0.047637 0.00494914
0 0 0
-0.0378085 -0.0427254 -0.0690106
-0.00384715 0.108297 -0.111896
-0.179764 -0.434328 -0.185186
-0.373008 -0.169362 -0.126597
0.000604339 0.116931 0.129449
0.103453 0.392662 -0.295745
0 0 0
0 0 0
0 0 0
0.159005 -0.235194 -0.00179927
0 0 0
0 0 0
0.109182 -0.00787509 -0.0530568
-0.00528823 0.187485 -0.000370152
-0.228199 0.382681 0.214204
-0.000212566 0.0459432 0.02684
-0.243162 0.215899 0.107255
0 0 0
-0.0783387 0.201322 -0.097416
0.0262917 0.061116 0.234102
-0.0505555 0.413523 -0.258138
0.336064 0.282877 0.0210084
-0.047739 0.00428029 0.028752
0 0 0
0.0134887 0.0655653 0.159756
0 0 0
0 0 0
-0.238571 0.310127 -0.00107858
0 0 0
0.0312079 -0.0128031 0.0569127
0.152795 0.0133532 0.224859
-0.196353 0.216864 0.0177817
-0.0252743 0.0668346 0.0777371
0.045359 -0.0399846 0.0393364
0 0 0
-0.0907171 0.627057 0.0108825
0 0 0
0.153833 0.00525267 0.123401
0.402004 -0.0188825 0.16766
0.12794 -0.0304808 -0.0984078
0.406894 -0.00146491 0.0883104
0.174612 -0.178246 0.17895
0.0757667 -0.00556686 -0.137294
0.139775 -0.0249475 0.0852524
0.0196456 0.209052 0.283441
-0.227815 -0.0729328 0.0667205
-0.134567 0.0380612 -0.0956232
-0.0760549 -0.145463 0.120603
-0.267727 0.140419 -0.200577
0.140671 0.00934782 -0.0246846
-0.0655019 0.12179 0.260297
-0.0323085 0.0325431 -0.0605394
-0.24736 0.0868805 -0.27762
0 0 0
0 0 0
-0.242882 -0.0275799 -0.226456
-0.00134183 0.163844 -0.0513491
0.189622 -0.00184868 -0.00965577
0.0145481 0.00738551 0.00167587
0 0 0
0 0 0
0 0 0
0 0 0
0 0 0
0 0 0
0 0 0
0 0 0
0 0 0
0 0 0
0 0 0
0 0 0
0 0 0
0 0 0
0 0 0
0 0 0
0 0 0
0 0 0
0 0 0
0 0 0
0 0 0
0 0 0
0 0 0
0 0 0
0 0 0
0 0 0
0 0 0
0 0 0
0 0 0
0 0 0
0 0 0
0 0 0
0 0 0
0 0 0
0 0 0
0 0 0
0 0 0
0 0 0
0 0 0
0 0 0
0 0 0
0 0 0
0 0 0
0 0 0
0 0 0
0 0 0
0 0 0
0 0 0
0 0 0
0 0 0
0 0 0
0 0 0
0 0 0
0 0 0
0 0 0
0 0 0
0 0 0
0 0 0
0 0 0
0 0 0
0 0 0
0 0 0
0 0 0
0 0 0
0.026709 0.0377556 -0.0837611
0.111827 0.0591912 0.0981546
0 0 0
0.0563905 -0.0992836 -0.0957924
-0.0190157 0.0191014 -0.0805292
0 0 0
-0.00040154 0.00477048 0.130488
0.077481 -0.139044 0.0634599
0.0315461 0.095251 -0.103346
0.045893 0.0208525 -0.0676402
0 0 0
0.035937 0.0634402 0.0478129
0.0964038 0.0513941 0.119988
0 0 0
0.0565207 0.00394194 0.0108088
-0.0317754 0.135742 0.00984012
-0.0325332 -0.0760192 0.0181858
0.0255385 0.00504783 0.0797827
0.00429462 0.092094 0.0600688
-0.234076 -0.0103747 -0.0883132
-0.00730603 0.145057 0.0246788
0 0 0
0.198604 -0.00639543 0.0589123
-0.020001 0.0552357 -0.134526
0.00234215 0.0180955 0.197981
-0.0666151 -0.0201002 -0.129031
-0.00021527 0.00133121 -0.0608277
0.151911 -0.149047 0.133655
0.21474 -0.132435 0.0128296
0.00280485 0.121846 0.0156914
-0.0176641 0.0871261 0.0201241
0.00802371 -0.0526238 0.149531
-0.0482279 -0.00134282 -0.00773817
0.0219297 -5.87435e-05 -0.0850851
0.000107688 -0.016915 -0.00821222
0.093886 0.0382449 0.209274
-0.00314135 0.0304706 0.0758266
0 0 0
-0.07285 -0.00355277 -0.0226449
0.0140801 -0.0149855 -0.252148
0.00308013 -0.00751663 0.255434
-0.214802 0.000171953 0.0971952
0 0 0
-0.01296 0.0031862 0.0554592
-0.0143854 0.0174793 -0.217315
0 0 0
0.0314916 -0.0483086 -0.0297242
-0.0583694 0.0267561 0.152499
0.0111815 -0.0295953 0.0153227
-0.105282 -0.0653973 -0.0640012
0 0 0
0.155448 0.00076811 -0.0582583
-0.0180699 -0.00261242 -0.0523813
0 0 0
-0.0211419 -0.0123221 -0.101493
-0.000941034 0.192905 -0.00175391
-0.0252278 -0.113067 -0.0328191
-0.0184571 -0.0600059 0.0115424
0 0 0
0.0609451 -0.0775244 -0.0553611
-0.326021 -0.0629444 -0.0319817
-0.0711361 0.0624026 -0.00432514
0.00167745 0.0526439 -0.0452895
0 0 0
0 0 0
0.0814132 0.0515723 -0.124968
0 0 0
0.108936 0.102129 -0.0197394
0.00175566 0.0508378 -0.229503
-0.0175651 0.0471339 -0.0488404
-0.132275 0.030861 -0.182084
0 0 0
-0.116355 -0.11236 -0.262839
-0.00135943 -0.0189281 0.030137
-0.046756 -0.063711 -0.393522
0 0 0
0.156164 0.299093 -0.0838869
-0.0955972 -0.0593932 0.224163
0 0 0
0.036742 0.226018 0.253645
-0.0479429 -0.111049 -0.22985
-0.00502223 -0.0091098 0.00530555
0.102038 -0.216752 -0.161975
0.00154711 0.101144 0.083405
-0.155348 0.147332 -0.015442
-0.000533946 -0.0354673 -0.0662889
-0.312314 0.251566 0.134425
0.245395 -0.384692 -0.128119
0 0 0
-0.0608516 -0.154507 0.138438
0.000401288 -0.0972006 -0.0871574
0 0 0
0.231821 0.0545263 0.0267382
0.0996227 0.181772 0.186334
-0.0676462 -0.034771 0.0777967
-0.204487 -0.121875 -0.0179951
-0.00984633 0.215126 0.0439667
0.0580848 -0.156303 0.0798862
0.0848661 0.104369 0.0280777
0.123853 0.17552 -0.469266
0.00281489 -0.0259052 0.164877
0.22689 -0.0437717 -0.220621
-0.0997251 0.170222 0.170225
0.114016 -0.0323807 -0.121689
0 0 0
-0.000302076 0.00127502 0.0173858
-0.11378 -0.0596656 0.00405097
-0.106811 -0.0214341 -0.031658
-0.0770533 0.221859 -0.184221
-0.389799 -0.30134 0.117355
-0.342598 -0.113369 0.128636
0 0 0
-0.476881 0.293314 0.136814
-0.00954381 0.040891 0.00100723
0 0 0
0 0 0
-0.0102658 -0.100894 0.0138594
0 0 0
0.019213 0.0157203 -0.0780635
0.0975114 -0.153943 0.241541
0 0 0
0 0 0
0.040427 0.0915005 0.525117
0 0 0
0.345168 0.0585829 0.0321896
0.169655 -0.217357 0.115536
0.505494 -0.442664 -0.142961
0.366259 -0.161713 -0.252345
-0.0628015 -0.159806 0.0128153
0.213813 -0.23296 -0.361221
0 0 0
-0.0969185 -0.328043 -0.0229077
-0.0525727 -0.156025 0.021821
0.260068 0.104738 -0.0357699
0.058308 -0.209088 0.117013
0.0588545 -0.00111261 -0.0682264
-0.0999943 0.0302901 0.0244003
0 0 0
0 0 0
0.106686 0.018276 0.00582132
0.0443363 -0.0795377 0.330413
-0.330874 0.0700282 0.125883
0 0 0
0.127158 0.256969 -0.261915
0.359125 -0.0146259 -0.024475
0.066326 -0.110117 -0.0578701
0.0494125 0.180248 0.00889187
0.0732764 0.0921475 -0.134235
0 0 0
0.136942 0.435583 0.307068
-0.155109 0.180707 0.0452803
-0.00158117 0.174864 0.032587
0.1812 -0.246262 -0.049414
0.142764 -0.233441 0.229148
0.503184 0.249149 -0.102486
0.416116 -0.0259317 0.288249
0.300677 0.0582334 0.0517795
0.0331413 0.0158714 -0.0400417
0.0155901 -0.0138602 0.0389668
-0.0702591 0.200956 -0.214651
-0.0527184 -0.0650875 -0.0126027
-0.264721 0.142402 0.351779
-0.00942134 -0.014479 0.0220892
-0.245053 -0.592748 0.203118
0 0 0
-0.139952 0.242107 0.0247214
0 0 0
0.0108185 -0.0341052 0.00570852
0.0177792 0.418906 -0.0383411