<?xml version="1.0"?>
<VTKFile type="RectilinearGrid">
<RectilinearGrid WholeExtent="0 32 0 32 0 32" Origin="0 0 0" Spacing="1 1 1">
<Piece Extent="0 32 0 32 0 32">
<PointData>
</PointData>
<Coordinates>
<DataArray type="Float32" format="ascii">
0 0.524874 1.04975 1.57462 2.0995 2.62437 3.14924 3.67412 4.19899 4.72386 5.24874 5.77361 6.29849 6.82336 7.34823 7.87311 8.39798 8.92285 9.44773 9.9726 10.4975 11.0224 11.5472 12.0721 12.597 13.1218 13.6467 14.1716 14.6965 15.2213 15.7462 16.2711 16.796 
</DataArray>
<DataArray type="Float32" format="ascii">
-5.03879 -3.62163 -2.20447 -0.787311 0.629849 2.04701 3.46417 4.88133 6.29849 7.71565 9.1328 10.55 11.9671 13.3843 14.8014 16.2186 17.6358 19.0529 20.4701 21.8872 23.3044 24.7216 26.1387 27.5559 28.973 30.3902 31.8074 33.2245 34.6417 36.0588 37.476 38.8931 40.3103 
</DataArray>
<DataArray type="Float32" format="ascii">
0 0.524874 1.04975 1.57462 2.0995 2.62437 3.14924 3.67412 4.19899 4.72386 5.24874 5.77361 6.29849 6.82336 7.34823 7.87311 8.39798 8.92285 9.44773 9.9726 10.4975 11.0224 11.5472 12.0721 12.597 13.1218 13.6467 14.1716 14.6965 15.2213 15.7462 16.2711 16.796 
</DataArray>
</Coordinates>
<CellData>
<DataArray type="Float32" Name="Vector" NumberOfComponents="3" format="ascii">
0 0 0
0 0 0
0 0 0
0 0 0
0 0 0
0 0 0
0 0 0
0 0 0
0 0 0
0 0 0
0 0 0
0 0 0
0 0 0
0 0 0
0 0 0
0 0 0
0 0 0
0 0 0
0 0 0
0 0 0
0 0 0
0 0 0
0 0 0
0 0 0
0 0 0
0 0 0
0 0 0
0 0 0
0 0 0
0 0 0
0 0 0
0 0 0
0 0 0
0 0 0
0 0 0
0 0 0
0 0 0
0 0 0
0 0 0
0 0 0
0 0 0
0 0 0
0 0 0
0 0 0
0 0 0
0 0 0
0 0 0
0 0 0
0 0 0
0 0 0
0 0 0
0 0 0
0 0 0
0 0 0
0 0 0
0 0 0
0 0 0
0 0 0
0 0 0
0 0 0
0 0 0
0 0 0
0 0 0
0 0 0
0.014726 -0.138505 0.00923641
0.0124684 0.111369 -0.0168163
0.00373723 -0.0507882 0.0987271
0.195533 0.154045 -0.016132
-0.0321728 0.0126778 0.0215983
0 0 0
0.126403 -0.111778 -0.00112593
0.0576177 0.144686 0.00484049
0.130338 -0.215925 -0.0393595
0.257076 -0.101266 -0.014898
0 0 0
0.0276735 0.163289 -0.0736898
-0.26351 0.0862437 0.139682
-0.0121123 0.0111806 0.0236957
0.128247 0.278172 0.0568704
0.0236604 -0.0596488 0.0477877
0.0186155 0.143838 -0.0230926
0.0181576 0.0318474 -0.0139021
0 0 0
0.072861 0.118562 0.0910502
0.0453695 -0.164774 -0.0731909
0 0 0
0.0741586 0.232869 -0.0621934
-0.0542717 0.120449 -0.124459
-0.0691657 -0.0885668 0.176529
0.306609 -0.364854 0.0588597
0 0 0
0.0425112 0.0172143 0.106492
0.156736 0.131346 0.0699009
0.0550613 0.00475648 -0.0214329
0.0266261 -0.0650545 -0.00847788
-0.0931087 0.0330563 -0.00497217
0.204868 -0.16768 -0.141688
0 0 0
0 0 0
-0.00827336 0.0447202 0.00232446
-0.0124671 -0.00452457 -0.0315446
0 0 0
0.151062 0.0869175 0.0400337
0.0260475 0.0115385 0.0278589
0.0156864 -0.00353939 -0.0130515
-0.135335 -0.061945 -0.045693
0.0355843 -0.0690697 -0.0987589
0.234112 -0.037131 0.0542319
-0.0810002 0.322086 -0.00174136
0 0 0
-0.0347335 0.0729392 -0.0820026
0.00455271 -0.00458908 0.0374911
0.0529475 0.113278 -0.0210631
0 0 0
0 0 0
0.118229 0.0175619 -0.0257956
0.0789484 -0.00222355 0.2521
0 0 0
-0.104252 0.243773 0.0395614
0.000131468 -0.0220309 0.0872859
0 0 0
0.277067 0.198499 -0.00413933
0 0 0
-0.0273255 0.068643 -0.136221
-0.375653 -0.0360848 -0.00146895
0 0 0
0.165794 0.0401802 0.0615791
0.178882 0.00798133 0.148404
0.0612441 -0.407418 -0.159702
-0.111378 0.206437 -0.0433983
0 0 0
0.11939 0.144999 -0.135251
0.161595 0.0673754 0.076135
0.120884 -0.00240769 -0.276984
-0.307154 0.170204 -0.147514
-0.161079 0.179479 -0.0260626
-0.0553025 0.712884 -0.118097
-0.0300198 0.19078 -0.119813
-0.0997597 -0.301223 -0.0300095
-0.189857 0.0226959 0.131503
-0.000371435 0.00798278 0.119196
-0.357844 0.255708 0.163421
-0.17663 -0.0288805 -0.201513
0.111569 0.159901 -0.132102
0.0115762 0.0597488 -0.123285
-0.149845 -0.0791628 -0.194866
-0.140424 -0.00870531 -0.214635
-0.332314 0.203262 -0.134127
-0.29133 0.182546 -0.0406906
0.0685441 0.132639 0.0518059
0.1691 0.078688 -0.00651618
-0.10945 -0.0260652 0.0587537
-0.0298383 -0.0231743 -0.12238
0.0475846 0.00905327 0.0382659
0 0 0
-0.123492 -0.107869 -0.000105443
0.00483846 0.0735654 0.0640882
-0.255014 -0.0247264 0.010219
0.0435931 0.0691281 -0.0449578
0.0566364 -0.0370764 -0.123499
-0.00787986 -0.00485918 -3.70065e-05
0.158836 0.19559 0.2613
0.000318447 -0.119252 -0.0442212
-0.0331301 -0.0756194 -0.0134667
0 0 0
0 0 0
-0.037862 -0.140669 0.00226929
0.0933831 0.00843695 0.0626977
0.00150293 0.0209847 -0.066594
0 0 0
0 0 0
-0.0491475 0.144272 0.121271
-0.102338 0.247953 0.205489
-0.0146513 0.012135 -0.000634494
-0.00253665 0.0785215 -0.000895747
0.00236697 -0.00752304 0.000180924
0 0 0
-0.211974 0.217058 0.411993
0 0 0
-0.0411318 -0.0522588 0.287624
0 0 0
0 0 0
0.182776 0.15929 0.436984
0 0 0
-0.0832371 0.180767 0.11933
0 0 0
-0.236493 -0.284095 0.255151
0.257069 -0.272129 0.0273726
-0.406921 0.166206 -0.164377
-0.161653 -0.184435 -0.0449515
0.100022 -0.0654932 -0.0161136
0.0865173 -0.0933084 -0.00365986
0 0 0
-0.240945 -0.0868396 -0.0183554
-0.305048 -0.153605 0.0787746
-0.0585556 -0.136029 -0.127796
0.0017674 -0.0917456 0.0303241
-0.511081 -0.687345 -0.33377
-0.166859 0.0850094 -0.034966
-0.0529728 0.00516964 -0.121912
0.341011 0.328408 -0.133716
0 0 0
0.0772124 -0.0471625 0.369093
-0.248132 0.0148422 0.146994
0 0 0
-0.0419359 0.0588554 0.525866
0 0 0
-0.0527712 0.259198 0.120064
0 0 0
0.0848747 0.217475 0.0437806
-0.018513 -0.0436419 -0.0207406
-0.241871 -0.0448457 0.368681
0 0 0
0 0 0
0.226596 0.240926 0.0318222
0 0 0
0.115797 -0.0640536 0.209506
6.99148e-05 0.0414505 0.0215951
-0.267836 -0.4275 0.0536109
0 0 0
-0.00110241 -0.0985674 0.0197421
-0.0971782 0.0397293 -0.150303
0.044954 -0.0477628 0.0163637
0.00364912 0.00360147 -0.0012344
0.0547843 0.105796 -0.254514
0 0 0
-0.0239469 -0.0799546 -0.0214827
-0.127124 0.000522114 0.144773
0 0 0
-0.00917466 0.00251536 0.0395365
0.00430098 0.0900692 -0.0489533
-0.0231624 0.00809412 0.0685003
-0.0723026 -0.0427792 0.350611
-0.0606718 -0.0334049 -0.154559
-0.242336 -0.07567 0.0156447
-0.23567 0.107091 0.168441
0.10187 -0.231307 -0.0533166
0 0 0
0.00775295 0.050812 0.0349339
0 0 0
0.0558261 0.0761656 -0.0493177
-0.0477468 0.0658968 -0.0175988
0 0 0
-0.0711087 -0.121362 -0.417054
0 0 0
0.0854887 -0.166403 -0.0375549
0.198098 0.085075 0.0299522
0.00543785 0.01948 -0.0254024
-0.0145209 -0.0256193 0.030424
0.0545017 0.115154 -0.0479632
0 0 0
0.266545 -0.390821 0.137531
0.220618 -0.0308875 0.150358
-0.116661 -0.0111651 -0.0535314
0.142265 0.0319536 -0.0402116
0 0 0
0.119961 -0.160049 -0.289624
0 0 0
0 0 0
0.0152862 0.00590658 0.0140926
0 0 0
0.242138 -0.255071 -0.0116145
0 0 0
-0.0178332 0.0254007 -0.00251096
0.0556993 0.102798 -0.00822671
-0.202933 -0.165835 0.270825
-0.0525829 0.037878 0.17355
0.080163 -0.200796 -0.00286194
0.0266945 -0.127229 0.130595
0.00198576 -0.175114 0.236417
0 0 0
0.243705 -0.371507 0.012086
0.510453 -0.308022 0.00946466
0.319214 0.129414 0.06069
0.0771216 -0.0695318 -0.138079
-0.0104062 -0.166962 0.0441113
0 0 0
0.223813 0.18584 -0.0710273
0.32335 -0.129555 -0.241661
0.191608 -0.157516 0.0268446
0 0 0
0 0 0
0.333556 0.59113 0.109876
0.19876 0.0889785 0.00552152
0 0 0
0.155219 0.125478 -0.050692
0.186534 0.105349 0.0569321
0.122221 -0.337788 -0.0448567
0.101169 -0.0447034 0.173464
0.193004 0.0637349 -0.304039
0.0444867 0.0438035 0.000312332
-0.104638 0.0396781 -0.0896244
0.0765274 0.0714298 -0.0965039
0.168931 -0.140753 0.121186
-0.248314 -0.139759 -0.292842
0 0 0
0 0 0
-0.0790345 -0.0910867 -0.146209
-0.268091 -0.161908 0.159166
0 0 0
0 0 0
0.0893812 -0.455156 0.315132
0 0 0
0.255831 -0.235934 0.297785
-0.0678282 -0.0286276 0.209356
-0.0133361 -0.11935 -0.0965733
-0.110437 0.00848933 0.000103981
-0.00516418 -0.156629 -0.447743
-0.00208871 -0.01358 0.0749938
-0.0963902 0.032855 -0.101566
-0.176097 0.0695729 -0.378665
-0.077377 -0.108836 -0.0226274
-0.202248 -0.235308 -0.169644
0.00403386 0.269405 0.120749
0 0 0
-0.140645 -0.21766 0.000131113
0 0 0
-0.147665 -0.144435 -0.0265499
0.0941259 -0.0473668 -0.0739171
0.0995147 0.10971 0.0720462
-0.146692 0.060534 0.117925
-0.054761 -0.00112639 0.0222642
-0.0448893 0.0594793 0.0564671
0.0598635 0.000886959 0.030231
0.0896394 0.0165157 -0.0080798
0.360389 -0.156925 0.212257
0.373919 -0.182522 -0.0675337
0.0309776 -0.0965991 0.325113
0.156588 -0.0354268 0.324127
0.145096 -0.0715723 0.193537
0 0 0
-0.0391571 -0.157705 0.0192277
0 0 0
-0.0735346 -0.308404 -0.561153
-0.00156928 -0.179718 0.226306
-0.326467 -0.373218 -0.0528932
0.319142 -0.202159 -0.371726
-0.174574 -0.340941 -0.174849
0 0 0
0.170848 -0.299484 -0.12825
0 0 0
-0.08498 -0.10694 -0.176255
-0.248304 -0.0779808 0.13831
-0.14744 -0.0935748 0.112675
0.0891752 0.168331 0.0838509
-0.000253937 0.18098 0.158963
0.107499 0.108516 0.216781
-0.0796288 -0.101286 0.0106622
0 0 0
-0.000505763 0.0361914 -0.0468217
0.0405821 -0.143123 -0.0755365
-0.298652 0.229471 0.0241429
0 0 0
0.105823 0.0743079 0.192715
-0.00209981 0.0633585 0.00260462
-0.258783 -0.121227 0.204443
0 0 0
0.291636 -0.0326781 0.00202893
-0.0720845 0.188726 -0.137173
0 0 0
-0.372665 -0.204938 0.240087
-0.000815972 0.0386296 0.00753402
0.224174 -0.0311985 0.0858997
-0.164897 -0.239524 -0.146356
0 0 0
0.425273 0.203523 0.143556
0 0 0
0.0641896 -0.768387 0.252628
0 0 0
-0.276645 0.240607 -0.299384
-0.138911 -0.185447 0.0270045
0.0169524 0.194009 0.175095
0 0 0
-0.0627513 0.0728497 0.0013072
0.048519 -0.0341352 0.053833
-0.0114781 -0.0906723 -0.0359272
0 0 0
0 0 0
-0.0564115 0.000273817 0.0293779
0 0 0
0.313489 0.0757282 0.198342
0.135549 0.00485057 -0.131142
0 0 0
0.145395 0.169665 0.239177
-0.184767 0.442571 -0.0790529
-0.0334646 0.103127 -0.17169
0 0 0
-0.0929798 0.107302 -0.0589294
-0.0600942 -0.142396 -0.106366
0.00280941 -0.0136921 -0.033602
0.118096 0.206659 0.126871
0.0271611 0.0106674 0.0302306
0.000785721 -0.0357257 0.0629423
-0.0235647 -0.112143 -0.022448
0 0 0
0.0610152 -0.011288 0.0182821
-0.054487 -0.347548 -0.29323
-0.00149584 0.00449087 0.290894
-0.0642631 -0.138108 0.0916887
-0.200566 -0.187476 0.267085
0 0 0
0.250592 0.0682325 -0.156587
0 0 0
-0.168846 -0.703702 -0.0734014
0 0 0
0.185195 0.173079 -0.0513031
0 0 0
0 0 0
0.162446 -0.156093 -0.21265
0.0177199 -0.0470564 -0.0581659
0.173765 -0.501908 -0.00729511
0 0 0
0.0197782 0.260253 -0.346695
0 0 0
0.202665 0.0851919 0.0127957
0.00371204 0.163186 -0.0272989
0.00311611 0.128873 -0.161698
0.217744 0.02845 -0.177975
0.0198911 0.210399 0.000760429
-0.0049369 -0.0177556 0.013568
0.0538627 0.0615834 -0.238155
0.192542 0.00496995 -0.342833
0 0 0
0 0 0
-0.0137896 0.00688618 0.0111587
0 0 0
0 0 0
0.169184 -0.436666 -0.0905105
-0.019663 -0.043666 0.207303
-0.00529298 0.0401037 -0.13687
0.0451913 -0.102788 0.0109408
0.0498328 -0.0948259 0.178754
-0.196326 -0.0849816 -0.130027
0.129089 0.0714932 -0.167116
0.230494 0.295722 -0.181408
0 0 0
-0.0072267 0.00787676 -0.00360497
0.0886579 -0.0161491 -0.160924
0.246838 0.170009 -0.0923075
0 0 0
-0.0639959 -0.0333146 0.191853
-0.0985073 -0.041371 -0.00583588
-0.00472453 -0.0439728 -0.0198091
-0.0135908 -0.0185765 -0.0706309
0.000944943 -0.0299169 -0.0249037
0.0347041 -0.0942454 0.203004
0 0 0
-0.163826 0.165436 -0.0465156
-0.175147 0.141233 0.127931
-0.130456 0.0235727 0.0694742
-0.135381 0.0517108 -0.349601
-0.00146486 -0.00719834 0.0045802
0.198469 0.0305425 -0.0794953
0 0 0
0.188062 -0.0728877 -0.356722
0 0 0
0.0374763 -0.0607219 0.072322
-0.0254217 -0.0285931 -0.0282719
-0.225049 -0.374537 0.136956
0.0159987 -0.199119 0.225731
0.0302605 0.0362228 0.049245
-0.0327275 -0.0277174 -0.000276643
0.175696 -0.347616 -0.453785
0 0 0
0.0233966 -0.361157 -0.140276
0 0 0
0.00842065 -0.0986539 -0.117264
0.369671 -0.23666 -0.281576
-0.000598434 0.154109 -0.131322
-0.0650702 -0.500219 0.287058
-0.317464 0.259041 -0.004721
-0.157395 0.164173 -0.207136
-0.171747 -0.0512574 0.118554
-0.322641 -0.188926 0.0228169
0 0 0
-0.0683757 -0.493407 0.377978
-0.0314938 -0.097264 -0.000825782
-0.0600895 -0.251761 0.107072
0 0 0
-0.114613 0.0830809 -0.168257
-0.0292899 -0.272965 -0.0445786
-0.296618 -0.205552 -0.153215
0 0 0
0.172066 -0.389352 -0.00195593
0 0 0
-0.138119 0.0111356 0.147779
0.122512 0.08337 0.143109
0 0 0
-0.162935 -0.235758 -0.0712938
0 0 0
-0.17153 -0.561198 0.0620815
0 0 0
0.411682 -0.373983 0.0771946
-0.12384 -0.0983506 -0.165476
0 0 0
0 0 0
0.0183928 -0.0488311 -0.0151128
0 0 0
0.117891 -0.19 0.0592624
0.0609606 -0.0434343 0.00211891
0.0666111 0.0887153 -0.0889386
-0.0228012 -0.08649 -0.0483807
0 0 0
0 0 0
0.426187 -0.288066 -0.329518
0 0 0
0.116382 -0.13446 0.523567
0.0696546 -0.137349 0.169852
-0.00475488 -0.0146687 0.118692
-0.122412 -0.294381 0.0250416
-0.602118 -0.219144 0.26707
0 0 0
0.000517411 0.0025435 -0.00254757
-0.0159634 -0.040111 0.00424925
0 0 0
-0.0922313 0.16738 -0.0547249
0.0283198 -0.000300107 0.263867
0 0 0
0.101404 0.0663026 0.130245
0 0 0
-0.0313974 0.170021 0.0630986
0 0 0
0 0 0
-0.112401 -0.0195774 -0.0592693
-0.197619 -0.137892 0.0541228
0.00945292 0.214631 -0.098032
0.0842573 0.201511 -0.0375046
0 0 0
0.00343665 -0.181379 -0.0982589
-0.182226 -0.140871 0.182221
0.0197967 -0.0383845 -0.0208688
0.121184 -0.109421 -0.00416055
0 0 0
0 0 0
0.0351782 -0.458508 0.121127
0.0402791 -0.102908 -0.151401
0.058969 -0.115103 0.0220541
0 0 0
0.0113942 0.0130814 0.121082
-0.33066 0.182666 0.170034
-0.102581 -0.0190608 0.0500378
-0.0189761 0.00408216 -0.0037236
-0.214676 0.162639 0.102047
0 0 0
0 0 0
0.20476 0.0280497 0.180066
0 0 0
0 0 0
0 0 0
0.00768783 0.0119733 0.0146958
0.127679 -0.167684 -0.185101
0 0 0
-0.481462 -0.008331 -0.0239253
-0.187024 -0.0354605 -0.0789491
-0.132531 -0.00580791 -0.304969
0.171861 0.261643 0.174349
-0.0869258 0.198976 -0.311179
0 0 0
0 0 0
0 0 0
-0.0120968 0.00392864 0.0424991
0.228843 0.114728 0.180763
0.0240609 -0.55412 -0.203989
0.0544935 -0.236927 -0.228094
0 0 0
0.105377 -0.113456 -0.156066
0 0 0
0.102 -0.0703706 0.00841742
0 0 0
-0.078975 0.00763357 0.0409311
-0.0604258 -0.107946 -0.287742
-0.114504 -0.15414 -0.000624007
0 0 0
0 0 0
0 0 0
0.0481736 0.109858 0.249821
0.0585531 0.338586 -0.203496
-0.00413425 -0.0214661 0.018033
-0.0275258 0.256051 -0.182804
-0.024563 0.00655093 -0.0888064
0.0955116 -0.179349 0.493084
-0.355348 -0.216828 -0.0048574
0.103061 -0.045114 -0.0293022
-0.161395 -0.117621 0.130685
0 0 0
0.143206 -0.510032 0.00790221
0 0 0
-0.0995622 -0.162421 0.161038
0 0 0
0 0 0
-0.208325 0.0375623 0.192661
-0.169419 -0.030018 -0.0652849
-0.0021604 0.00154535 -0.0136844
0 0 0
0 0 0
0.0635401 -0.183547 0.119234
0.477608 0.216064 0.154661
0.100496 0.1802 -0.24007
-0.0268994 0.0633387 0.0132924
-0.0341718 0.171637 0.0721195
-0.0129766 -0.0161762 0.0233832
0 0 0
0.0178085 -0.264905 -0.130354
0.0477361 -0.0293116 -0.0137943
0.400492 -0.0220223 -0.0982687
0.012444 -0.310628 0.105476
0 0 0
0.0516153 -0.159192 0.0495737
-0.000624944 0.061603 -0.0542333
-0.0558523 0.071739 0.0475987
-0.0450965 0.144309 0.269054
-0.12054 0.263396 -0.091743
0 0 0
0 0 0
0.0916142 -0.258147 -0.194709
0 0 0
-0.0302558 0.012978 -0.0502312
-0.119592 -0.116757 0.0761445
-0.0583104 -0.0248264 -0.0126116
0 0 0
0 0 0
0 0 0
-0.332485 6.07747e-05 -0.292283
0 0 0
-0.0341728 -0.514407 -0.0622801
-0.126264 -0.242262 0.00468144
0.00906576 0.0463314 -0.175279
0.242312 -0.0246493 -0.0537546
-0.0356816 0.00827353 0.0895673
-0.319905 0.137387 -0.0900144
-0.49875 0.0859162 -0.112015
0.00148829 0.0606303 0.0742274
0 0 0
0.230542 -0.00961346 -0.0453369
0.11866 -0.187199 0.082695
0 0 0
0 0 0
0.0363789 0.0219556 -0.000361395
0 0 0
-0.00590438 0.0013707 -0.0578025
-0.24155 -0.129856 0.0102958
0 0 0
-0.304337 -0.326386 -0.104642
0 0 0
0.081927 0.12839 -0.00186575
0.00358559 -0.0169467 0.0358737
-0.00604215 -0.170192 0.0138816
-0.00225486 -0.119988 0.0404416
0.0473952 0.0530304 0.170373
0 0 0
0 0 0
0.00909588 -0.127083 0.293304
-0.0246012 -0.000439635 0.0185367
0 0 0
0.045444 0.0196211 0.465449
-0.287606 0.0033174 -0.430092
0 0 0
-0.350864 -0.0363497 -0.217663
-0.345601 0.00488576 0.0086015
0 0 0
0.05857 -0.0815178 -0.164183
0 0 0
0.231518 0.112839 0.0672224
0 0 0
0 0 0
0.134542 -0.288877 -0.00560892
-0.0055281 -0.00120127 0.00995066
0 0 0
-0.0187335 0.00944573 -0.298375
-0.0892266 0.0649577 0.0509021
-0.0193027 0.00810516 -0.00125964
-0.161916 0.0345375 -0.0417513
0.131476 0.120482 -0.161865
0.0163823 0.309725 -0.0166814
0.141541 -0.0129949 0.280974
0 0 0
0 0 0
-0.221057 -0.100503 0.0879123
0 0 0
0.0286477 -0.0330585 -0.151665
-0.164777 0.639508 0.128111
-0.00165115 0.100009 -0.402525
0.141118 -0.0209652 -0.233833
0 0 0
0.104002 0.0442351 0.137266
0 0 0
0 0 0
0.104761 -0.442879 0.163488
0.0384542 0.257655 -0.258766
-0.0437754 0.0806654 0.0556675
-0.00882439 -0.107756 0.101691
-0.301959 -0.159611 0.164332
-0.425318 0.0578848 0.289211
0 0 0
0.267641 -0.449641 0.000837535
0.262379 -0.235173 0.346384
0.194057 -0.146144 -0.0930148
0 0 0
0 0 0
0 0 0
0 0 0
0.271869 0.233419 0.273005
0.0910345 0.133214 -0.144544
0.0909539 0.0928237 0.327585
-0.185471 0.34844 -0.147184
0 0 0
-0.224941 0.0821021 -0.155335
0.0229452 0.274159 0.0575581
0.0234303 -0.0124029 -0.213565
0.0786754 -0.041182 -0.345653
-0.432466 -0.25513 -0.102873
-0.117245 0.145686 -0.199719
-0.289261 0.247557 0.183778
-0.00113826 -0.292451 0.0246451
0.0328893 -0.245839 0.0580827
0 0 0
0.0741226 -0.103092 0.0376357
-0.138905 -0.0931037 0.164916
-0.0843313 0.176347 -0.285269
-0.125894 -0.236147 0.0198465
-0.0219098 0.0021792 -0.0646952
-0.125144 0.0993471 -0.129176
-0.124195 0.0328478 0.0980141
-0.108111 0.00120205 -0.0635283
0 0 0
0.0562259 -0.0675863 0.198213
0.0846342 -0.143676 0.0366076
0.00572671 -0.0389906 -0.0158302
0 0 0
0.0483738 -0.0703043 0.116973
0 0 0
-0.0157526 -0.0495637 0.414431
-0.109576 0.103084 -0.0134298
-0.167718 -0.274007 -0.0170319
-0.0780703 0.0909517 -0.0607031
-0.205209 0.281681 -0.081791
0.0368566 -0.0977415 0.00221676
-0.157528 0.222768 0.106931
-0.0913102 -0.0347716 -0.0600917
-0.264135 0.649454 -0.0764013
-0.156586 0.113125 -0.0232269
0 0 0
-0.278203 -0.0370653 -0.394846
0 0 0
-0.00269067 -0.524484 -0.36828
0 0 0
0.0418561 -0.0698213 0.198465
-0.118901 0.158185 -0.00169543
0 0 0
-0.0311677 0.0975261 0.226629
0.0876672 0.0127618 -0.0303985
0.0245071 -0.0517174 -0.152477
0.0860737 -0.120871 -0.0552002
0 0 0
0.423996 -0.350387 0.352972
0 0 0
0.286919 -0.0895025 -0.308319
0 0 0
-0.0885593 -0.0687919 -0.00872034
0 0 0
0.126278 0.127426 0.0598336
0 0 0
-0.00549361 0.0951304 0.110721
0 0 0
0 0 0
0.161931 -0.282328 0.00010769
0 0 0
0.0226052 0.408474 -0.00438099
0 0 0
-0.135605 0.104931 -0.0349413
0.121387 -0.0084634 0.0823315
0.00688344 0.173835 0.193073
0.104518 0.301704 -0.00125305
0.0484154 -0.0261302 0.0299569
0.268745 0.129327 0.311821
0 0 0
0.120489 -0.184022 0.0745332
0.0661029 -0.0977745 0.00369323
0.061625 0.000288647 0.0120884
0.0588029 -0.120096 0.372344
-0.119884 -0.0811379 0.0383322
-0.211488 0.107048 0.0436664
0 0 0
0 0 0
0 0 0
-0.260336 0.0489685 -0.33697
0 0 0
0.0582349 -0.0507153 -0.11424
0.0642111 -0.174255 -0.100213
0.189945 -0.088583 -0.416546
0 0 0
0 0 0
0 0 0
0.0701388 0.0818257 0.163013
0.141188 -0.0285408 0.449072
0 0 0
0.0237017 -0.163114 0.304782
0.13231 -0.070221 0.139559
0.0339164 -0.0963409 0.0202946
0.0159113 -0.222416 0.0566194
0.0250352 0.0355492 0.103659
0.0790169 -0.246976 0.108829
0.145081 -0.0336141 -0.0829667
0.167554 -0.274584 -0.124988
0 0 0
-0.00807219 -0.276053 -0.190134
0 0 0
0 0 0
0.157199 -0.241324 0.173161
0.0968056 0.0624941 0.0541419
0.0577843 0.123853 0.0917759
-0.108097 0.0152759 0.0538334
-0.241487 0.0495894 -0.192366
-0.0200117 0.106538 -0.275842
-0.0935813 0.176621 -0.126496
0.0871384 0.167632 -0.224117
0 0 0
-0.0177903 -0.0313083 0.0454193
-0.00325303 0.0126006 0.000720604
-0.0677145 0.033676 0.231646
0.276223 -0.071705 -0.0593202
0.10123 -0.0314566 0.00697579
0.193476 -0.513989 0.119375
0.114632 0.0548893 0.115961
0.0375769 -0.162047 -0.352634
0.0207356 -0.0440238 -0.00208108
0.00303508 0.0207816 0.045336
0 0 0
-0.0894777 -0.0201938 0.190097
-0.131496 -0.102967 -0.13224
0 0 0
0 0 0
0.131826 0.0499771 -0.181351
-0.167664 -0.00117812 -0.0483477
-0.24553 -0.134243 0.0437506
0 0 0
-0.406743 0.0547085 -0.126064
-0.23933 -0.144001 -0.180694
0 0 0
-0.000629515 -0.02447 -6.37739e-05
0.0228102 -0.340742 0.178641
0 0 0
-0.0362978 0.120408 -0.0375872
0 0 0
0.311951 0.0847883 0.0499888
0 0 0
0.266671 -0.206893 0.0552194
-0.312309 -0.197168 0.35297
-0.0517623 -0.00770775 0.0109633
-0.0215687 -0.00428275 0.140512
0.198501 0.0633649 -0.448907
0.202229 0.0040157 0.178274
-0.0858621 0.120438 -0.0369069
0.138191 -0.0563495 -0.0208037
-0.00985972 -0.149015 0.0821082
0.0314246 0.0852014 0.151925
0 0 0
0 0 0
-0.0504239 -0.333738 -0.254374
-0.0860647 0.185026 -0.0983175
0.427831 -0.0583131 -0.17449
0.0231321 -0.093611 -0.0841448
0 0 0
-0.000203488 0.022439 0.0117827
0 0 0
-0.0971289 -0.172305 -0.339707
0 0 0
-0.19108 0.41512 -0.399483
0 0 0
-0.0324484 0.02661 -0.00304962
0.0855176 0.236416 -0.0010412
0 0 0
-0.343293 -0.106439 0.145837
-0.000185398 -0.0768941 0.0901527
-0.0500316 0.13526 -0.0759164
0.295943 0.38231 -0.122939
0.191089 0.21945 -0.502655
0 0 0
0.00159102 0.0875328 0.0157809
-0.00188987 0.0371138 -0.0117023
-0.150905 -0.190386 -0.00176274
-0.0230212 0.0364613 0.0171793
0.119446 0.0714212 -0.183471
0.0444703 0.099493 0.0204005
0.0452414 0.0222159 0.026482
0.310466 0.180181 -0.162429
5.56615e-05 -0.00708631 -0.0265687
0.162929 0.267686 -0.0177571
0.0369262 -0.12938 0.022434
0.0299643 -0.313575 0.144488
-0.0262011 0.000568714 0.0205146
-0.0318621 -0.141344 -0.0639107
0.0816788 -0.12839 -0.119152
-0.288441 0.356583 -0.0357755
-0.100778 0.168473 -0.27835
0.145002 -0.109029 0.00176034
0.549387 0.443331 0.124525
0 0 0
0 0 0
0.266624 -0.0641268 0.0905603
0.362549 0.23965 -0.12988
0.142234 0.141061 -0.0369317
0.00830213 0.0670519 -0.115193
0 0 0
0 0 0
0.186742 -0.00143118 0.000396673
0.172533 0.358252 0.282787
-0.0430303 0.419933 -0.193288
0.116264 -0.0415476 -0.202902
0.344328 0.0665514 -0.0206182
-0.126041 0.0426138 -0.0634396
-0.0863165 0.130848 0.277657
-0.125719 0.00901592 -0.121871
-0.17667 0.124229 -0.0211892
-0.0558825 0.149937 -0.0042524
-0.0774032 -0.157935 -0.026481
-0.00528643 -0.00765381 -0.0155551
0 0 0
0.409672 0.307929 -0.452283
0.037176 0.00183747 -0.0162772
0.484238 0.0437073 0.0410106
0.337102 0.0898706 0.0816474
0.293537 -0.0153215 -0.0169843
0.0497334 0.0308872 0.0184056
0.0432841 0.067973 -0.0601296
0.0707894 0.0150933 -0.197782
0.0730135 0.00142641 -0.0087713
0.00634552 0.00711802 -0.0098236
0.342175 0.397511 -0.443171
0.0366022 0.0615837 0.0726564
-0.0488641 0.0941533 0.0914495
-0.00689838 -0.0279262 0.0360375
0.00246168 0.000548308 -0.0377647
-0.378741 -0.0877078 -0.316271
-0.178214 -0.0190116 0.197735
-0.511276 0.00890431 0.23703
-0.180699 0.045343 -0.0838084
-0.194169 -0.19084 0.152039
-0.1809 0.113596 0.160149
-0.392062 -0.29039 -0.0723605
0 0 0
0.365984 -0.00797327 -0.0488573
0.128548 -0.0521575 0.118605
-0.0293913 0.0568389 0.0366426
-0.0485945 -0.0868312 0.119029
-0.277361 0.501821 0.333113
0.0585006 0.0382981 0.0501159
-0.285662 -0.112849 0.11822
-0.0320759 0.0650721 -0.0903924
-0.0266274 -0.155325 -0.219709
-0.103053 0.0252545 -0.347136
-0.129039 0.176993 -0.297689
0.00197523 -0.103163 0.019256
-0.177745 -0.0574318 -0.0982123
0.0191072 0.00806745 -0.0021224
-0.151395 -0.0348309 -0.11685
0 0 0
-0.298122 -0.306975 -0.224373
-0.277917 -0.0375172 -0.0577463
0.0346342 -0.0197115 -0.163253
0 0 0
0 0 0
0.0137152 0.154788 -0.025849
-0.318811 0.133666 -0.105929
-0.211279 -0.00856461 -0.00387574
-0.189403 0.099177 0.0918095
-0.380441 -0.22489 0.0989794
-0.0772613 -0.0142361 -0.524507
0 0 0
-0.124039 -0.066313 0.305817
-0.246722 0.180647 0.107805
0 0 0
-0.0195728 -0.0683558 -0.181466
0 0 0
0.151148 0.0585019 0.356063
0 0 0
-0.169721 -0.000688867 -0.191925
0 0 0
0.0190952 0.00898618 -0.0898573
-0.077266 0.114362 0.0596303
0.00662877 0.323417 -0.426712
-0.101146 -0.299355 -0.157625
-0.161271 -0.162413 0.0582396
-0.0851495 -0.0118902 -0.00139972
-0.307207 0.160914 -0.428993
-0.0521378 0.0531589 0.00300519
0.127315 0.152075 -0.0167414
0 0 0
0.203425 -0.275912 -0.153297
0.00142303 -0.103391 0.152536
-0.0211043 -0.285579 0.120334
0.0113231 -0.00761468 -0.00827957
-0.00920003 0.0583656 0.00526413
-0.470889 -0.11069 0.14169
-0.299757 0.115454 0.169446
-0.311255 0.120263 -0.188898
-0.214722 0.157969 0.134323
-0.30347 -0.144946 0.0494795
-0.171115 0.020965 -0.524091
0 0 0
0 0 0
-0.144952 0.00923693 -0.0106623
0.32865 -0.0658481 -0.040857
-0.000321277 -0.102655 -0.139297
0.0306324 -0.10961 0.145717
0.0229413 0.10823 -0.0362508
0.136308 0.0197801 -0.0817001
0.078959 -0.0509665 0.043686
0.109683 -0.0276669 0.389705
0.0106551 0.0931429 -0.259766
0 0 0
-0.0783778 0.285936 -0.00274871
0 0 0
0.389005 0.0342159 0.179088
0.158001 0.000315566 -0.0653088
0.563667 -0.207187 0.187402
0.0538437 0.0590147 0.0764776
-0.388917 -0.15713 0.241592
-0.0715988 0.209894 0.118877
-0.189197 0.161433 0.179201
-0.0207816 -0.0100269 0.158148
-0.0142126 0.0440169 0.422497
0 0 0
-0.0737543 -0.0157157 0.00675272
0 0 0
0 0 0
0 0 0
0 0 0
0 0 0
0 0 0
0 0 0
0 0 0
0 0 0
0 0 0
0 0 0
0 0 0
0 0 0
0 0 0
0 0 0
0 0 0
0 0 0
0 0 0
0 0 0
0 0 0
0 0 0
0 0 0
0 0 0
0 0 0
0 0 0
0 0 0
0 0 0
0 0 0
0 0 0
0 0 0
0 0 0
0 0 0
0 0 0
0 0 0
0 0 0
0 0 0
0 0 0
0 0 0
0 0 0
0 0 0
0 0 0
0 0 0
0 0 0
0 0 0
0 0 0
0 0 0
0 0 0
0 0 0
0 0 0
0 0 0
0 0 0
0 0 0
0 0 0
0 0 0
0 0 0
0 0 0
0 0 0
0 0 0
0 0 0
0 0 0
0 0 0
0 0 0
0 0 0
0 0 0
0.120327 0.230049 0.0725378
0.0961915 -0.0116021 0.102341
-0.0243164 0.0413633 0.0266838
0.0479106 -0.0503013 -0.0761854
0.080444 0.00562094 -0.0699227
0 0 0
-0.106435 -0.166718 0.0130961
-0.0641639 0.00185531 -0.0873355
-0.0221268 -0.0933488 0.00730955
-0.0154782 0.027888 -0.0288224
-0.00516627 -0.0729064 -0.124875
-0.0277817 0.0238411 0.0975265
-0.104489 -0.00695551 0.0968202
0 0 0
-0.0678038 0.135303 0.0876792
0.00587207 -0.205687 -0.1473
0.0683126 0.174717 -0.135274
0.0157051 -0.114738 0.0487867
0.00673491 -0.00701272 -0.00281711
0.24621 -0.00490194 0.119432
0.0713229 0.114893 -0.0654627
-0.000601561 -0.00125903 0.00401445
0.192511 -0.0801658 -0.0459491
0.0275503 -0.0393073 0.113346
0.0164307 -0.0507415 -0.0701534
-0.031103 0.000774888 0.063245
0 0 0
-0.0944285 -0.0522255 0.13503
-0.0285395 0.0825979 -0.0288775
0 0 0
0.0569781 0.0563323 -0.0983406
0.131976 -0.127302 -0.00722794
-0.0920506 0.0513803 -0.0364561
-0.0100424 -0.0474988 0.0273004
0.0251893 0.00909758 0.00333827
0.0378271 -0.0143451 0.0178761
0.0116981 -0.06172 -0.0286788
-0.000296386 -0.00069995 -0.00262806
-0.00893013 -0.0509596 -0.00110319
0.00315473 -0.0733084 -0.0715197
0.0394253 0.0732692 0.0977985
-0.205005 -0.0146679 -0.0324934
0 0 0
-0.0586592 0.056029 -0.0475442
-0.0642245 -0.00258939 0.0115459
0 0 0
-0.0746306 0.03009 -0.0112972
-0.0245106 -0.0474514 -0.114337
-0.063024 0.0427199 0.188086
0.0386068 0.0373972 0.0848218
-0.00768352 -0.027351 -0.0355152
-0.147543 0.0300924 -0.171462
-0.0700025 -0.0696398 0.101295
0 0 0
-0.19511 0.00844579 0.0734147
0.0132725 -0.239892 -0.150024
0.00224571 0.241962 0.132894
-0.0482562 -0.0267116 -0.0155781
0 0 0
-0.0106554 0.0920557 -0.0407209
-0.0523328 0.00135012 -0.0399834
0 0 0
-0.00693767 0.0717904 0.00455161
-0.130474 -0.0494253 0.162335
0.04463 -0.0477019 -0.178202
0.142731 -0.196431 -0.283499
0.388615 -0.224008 -0.314019
0.0559032 -0.142963 0.153239
-0.102012 -0.102316 0.0412683
-0.106525 -0.207484 0.144844
0.150355 0.275592 -0.231783
-0.123565 -0.0858203 -0.143868
0 0 0
0.25651 -0.0233574 -0.189402
-0.38413 0.100662 0.076127
0 0 0
-0.16412 0.0780025 -0.16678
-0.0037716 -0.012742 0.0025023
0.0833994 -0.370112 -0.251253
-0.0727929 -0.196572 0.0176352
-0.0537765 0.0167245 -0.0932516
-0.192088 0.118243 0.140101
-0.228783 -0.336122 -0.291587
-0.000557224 0.0782459 -0.0125948
-0.0126918 -0.233761 -0.0941644
0 0 0
-0.152345 0.15341 0.0448264
0.0385594 -0.272328 0.415453
0.0129787 -0.00543965 0.000306022
-0.0280233 -0.179226 0.138038
0 0 0
-0.140148 -0.24913 0.341011
0.191734 0.176601 0.127646
0.180393 0.266919 0.159016
0.00291237 0.234187 -0.291923
0.06473 -0.120929 -0.109409
0.0089498 -0.0215558 0.000911009
0.021707 -0.043188 0.0203933
0 0 0
-0.0510139 -0.206897 0.0604515
-0.24036 -0.177996 -0.174138
-0.285067 -0.273404 -0.0384522
-0.194505 -0.0804481 0.269012
-0.29352 -0.165914 0.208083
-0.0692107 -0.088614 0.0808356
-0.011926 -0.202912 0.0657225
-0.175531 0.0793199 0.0808981
0.0497266 -0.0814156 0.0282718
0.0599639 -0.0996424 0.0299634
-0.0664883 -0.0115593 0.322295
-0.0612349 0.02669 0.121761
-0.327107 -0.244712 -0.368201
0 0 0
0.00930753 -0.131896 -0.000479614
0.0828514 -0.266465 -0.0668468
0.129693 -0.0930784 0.0624878
0 0 0
0.059936 0.0402374 0.0139158
-0.0152595 -0.223818 0.11006
0 0 0
0.121208 -0.118268 0.418653
0.0497699 -0.0231485 0.0197939
0.00129157 -0.0715453 -0.0216679
0.0634232 -0.0399505 0.00155816
-0.036678 -0.0117225 -0.000434888
-0.146748 0.0349531 0.217697
-0.0855973 0.0614312 0.0275126
0.181456 -0.12127 0.0714196
0 0 0
0.0214342 -0.418172 0.0305984
0 0 0
0.0021123 -0.215656 -0.191676
0.00489124 -0.0157317 0.000375868
0.054751 -0.0667675 -0.0104533
0.0548018 -0.122253 -0.302667
0.0735999 0.0121465 -0.215996
0.0145973 -0.0447961 0.0520398
0 0 0
0.331584 -0.187152 0.0107026
0.0124896 0.217771 0.364774
0.0559498 0.0512658 0.110631
-0.0129306 0.00429146 0.0352648
0.379453 -0.141919 0.499054
0 0 0
0 0 0
0.00496668 -0.0384917 0.113411
0.0158387 -0.0463809 -0.00145761
0 0 0
0.244848 0.070202 -0.258878
-0.000811818 -0.0918659 0.00461651
0 0 0
0 0 0
-0.144498 -0.123803 0.187942
0 0 0
0 0 0
-0.0625716 0.0447061 0.1883
0 0 0
-0.0250266 -0.0496041 0.000117629
0.0608899 -0.114246 -0.0907306
0.128898 0.0467838 -0.451914
0.0556738 0.0612033 -0.118297
0 0 0
-0.180732 -0.382256 0.0025228
-0.230494 -0.101367 -0.157112
0.000738816 0.104007 0.076946
-0.201883 0.230227 0.0413613
-0.0996298 -0.129014 -0.161893
-0.0208299 -0.0102772 0.0063239
-0.168317 -0.0672561 0.0061696
-0.0199269 -0.00227727 -0.00332638
0.137054 -0.0955376 -0.00221101
0 0 0
0 0 0
0 0 0
0.0706474 -0.353423 0.158319
-0.00147933 -0.0143807 0.0197157
0.120554 -0.180959 -0.0217618
-0.099861 -0.402755 0.242902
0.289301 -0.133122 -0.0718855
-0.167298 -0.00880687 -0.119966
-0.108272 0.318307 0.256755
-0.238962 0.378179 0.0353018
0.0561511 -0.14031 -0.0556936
0.146086 -0.0923293 0.198706