<?xml version="1.0"?>
<VTKFile type="RectilinearGrid">
<RectilinearGrid WholeExtent="0 32 0 32 0 32" Origin="0 0 0" Spacing="1 1 1">
<Piece Extent="0 32 0 32 0 32">
<PointData>
</PointData>
<Coordinates>
<DataArray type="Float32" format="ascii">
0 0.524874 1.04975 1.57462 2.0995 2.62437 3.14924 3.67412 4.19899 4.72386 5.24874 5.77361 6.29849 6.82336 7.34823 7.87311 8.39798 8.92285 9.44773 9.9726 10.4975 11.0224 11.5472 12.0721 12.597 13.1218 13.6467 14.1716 14.6965 15.2213 15.7462 16.2711 16.796 
</DataArray>
<DataArray type="Float32" format="ascii">
-5.03879 -3.62163 -2.20447 -0.787311 0.629849 2.04701 3.46417 4.88133 6.29849 7.71565 9.1328 10.55 11.9671 13.3843 14.8014 16.2186 17.6358 19.0529 20.4701 21.8872 23.3044 24.7216 26.1387 27.5559 28.973 30.3902 31.8074 33.2245 34.6417 36.0588 37.476 38.8931 40.3103 
</DataArray>
<DataArray type="Float32" format="ascii">
0 0.524874 1.04975 1.57462 2.0995 2.62437 3.14924 3.67412 4.19899 4.72386 5.24874 5.77361 6.29849 6.82336 7.34823 7.87311 8.39798 8.92285 9.44773 9.9726 10.4975 11.0224 11.5472 12.0721 12.597 13.1218 13.6467 14.1716 14.6965 15.2213 15.7462 16.2711 16.796 
</DataArray>
</Coordinates>
<CellData>
<DataArray type="Float32" Name="Vector" NumberOfComponents="3" format="ascii">
0 0 0
0 0 0
0 0 0
0 0 0
0 0 0
0 0 0
0 0 0
0 0 0
0 0 0
0 0 0
0 0 0
0 0 0
0 0 0
0 0 0
0 0 0
0 0 0
0 0 0
0 0 0
0 0 0
0 0 0
0 0 0
0 0 0
0 0 0
0 0 0
0 0 0
0 0 0
0 0 0
0 0 0
0 0 0
0 0 0
0 0 0
0 0 0
0 0 0
0 0 0
0 0 0
0 0 0
0 0 0
0 0 0
0 0 0
0 0 0
0 0 0
0 0 0
0 0 0
0 0 0
0 0 0
0 0 0
0 0 0
0 0 0
0 0 0
0 0 0
0 0 0
0 0 0
0 0 0
0 0 0
0 0 0
0 0 0
0 0 0
0 0 0
0 0 0
0 0 0
0 0 0
0 0 0
0 0 0
0 0 0
0.0493723 0.0798613 -0.0466106
-0.0623152 0.105319 0.0662115
0 0 0
0.0305501 -0.131321 0.0015881
-0.022617 0.0138281 0.0380282
0 0 0
0.0605471 0.0672818 -0.0343768
-0.100923 0.0508499 -0.0401512
-0.134685 0.00365744 0.0415761
-0.166646 -0.167379 0.0319019
0 0 0
-0.265968 -0.160453 0.0515308
0.121675 0.128535 0.0161341
0 0 0
0.170649 -0.16673 -0.0292811
0.0262814 0.0304896 0.109614
0.0526613 0.233308 -0.129968
0.0638386 -0.0724863 -0.271649
0 0 0
-0.132088 -0.0774227 -0.0898249
-0.112347 -0.0229262 -0.0804432
0 0 0
0.0361919 0.00972623 -0.0151879
0.155488 0.0160923 0.0525902
0.174255 -0.0181723 -0.170414
0.0617492 -0.17282 -0.0164562
0 0 0
-0.0682261 0.155844 -0.0382463
0.120363 0.161801 0.0916873
0.0693855 0.0380153 -0.0225262
-0.0847284 -0.155452 0.0787641
0.0115782 0.150333 0.0561267
-0.208441 0.0134343 0.118326
-0.000279601 0.00618678 -0.0727561
0 0 0
-0.0424754 0.407773 0.0166617
0.112566 0.0191914 -0.0527464
0 0 0
-0.0179968 0.351704 0.0022387
0 0 0
0 0 0
0.667523 -0.1495 0.00135485
0 0 0
0.0676322 0.00191694 0.0135763
0.195003 0.279626 -0.00805463
0 0 0
-0.112716 0.0536732 0.0823851
-0.0177623 -0.121212 0.00390106
-0.0476127 -0.665474 -0.056252
-0.0732753 -0.0385515 0.126902
0 0 0
0.214552 -0.112377 -0.0149034
0.00668836 -0.0237269 -0.0435777
0.0543398 -0.0037013 -0.0309487
-0.130663 -0.234275 0.00197403
0.00645543 -0.0502736 0.0585721
0.0453419 -0.00305939 0.0291991
-0.0351588 -0.137237 0.0569543
0 0 0
-0.0145253 0.0153847 -0.00776421
0.198933 0.0226445 0.0115939
-0.000513433 0.023792 0.000977319
0.0868527 0.0381038 -0.0138613
-0.183428 0.087469 -0.0806305
0.221305 -0.00846417 0.130306
0.187551 -0.189078 -0.0272656
0 0 0
0.0363926 -0.137618 0.398419
0.0737501 0.254909 0.248997
0.0873656 0.0124786 0.209567
0.201932 -0.0651793 -0.12074
-0.0883826 -0.0867659 0.0598445
0.00415421 -0.0098648 -0.00321208
-0.0178008 0.021414 0.0648656
-0.135674 0.206975 0.337293
0.0342288 0.143895 0.113496
0 0 0
-0.141953 0.0823428 -0.0478677
-0.147497 0.0914965 -0.0882442
0.0297343 0.00681812 0.000444899
0.309168 -0.282667 -0.32331
0 0 0
0.139438 0.085459 -0.116715
0.0265397 0.035347 -0.187734
0.216487 -0.0479445 -0.183967
0.0375826 0.0449009 -0.0129151
-0.0601177 0.0979537 0.0212511
0.00514293 0.0026 0.00674877
-0.0878228 0.0805087 -0.00695671
0 0 0
0.000458489 -0.0246116 0.00153858
0.0396703 -0.0288897 0.0933805
0.117175 0.125435 0.0113342
0.173357 -0.221029 -0.181557
0.0145432 0.232788 -0.0754801
0 0 0
0.261159 -0.0161759 0.169154
0.00628511 0.00111487 0.000999784
0 0 0
-0.157825 -0.00133115 0.0507194
0 0 0
-0.138951 0.223686 0.151037
-0.0382594 0.0177375 0.00869116
-0.102623 0.301724 -0.0033275
0 0 0
0.0280401 0.223455 -0.233125
0 0 0
0.239684 0.139742 -0.219176
0.0457145 0.103081 0.0468416
0.164951 0.149046 -0.199836
0 0 0
-0.0575652 -0.00546457 -0.249485
0.0295737 -0.0523926 -2.05927e-05
0.0605304 -0.0307824 0.0262058
0 0 0
-0.0198468 0.258699 -0.432388
-0.103869 -0.0389373 -0.0324341
0 0 0
0.0239213 0.0833452 -0.0249402
0.356558 -0.262106 0.292578
0.12887 0.000594032 0.112317
0.405341 -0.216341 0.336606
0.276857 -0.281173 -0.41712
0.0855951 -0.0197152 -0.107307
0.0217813 0.0300787 0.0312155
0.230522 0.086583 0.0629542
0.15567 0.00468015 -0.00108696
0.498426 -0.0516618 -0.133356
0 0 0
0 0 0
-0.0617013 0.0672366 -0.139274
-0.233712 0.346153 -0.194446
-0.101006 -0.0627983 0.0726955
-0.379878 0.268362 0.171604
-0.0020411 -0.017561 -0.0194168
-0.108732 -0.224328 -0.416405
0 0 0
0 0 0
0 0 0
0.0288133 -0.00434218 -0.0285274
-0.0931553 -0.124997 -0.0613191
-0.107654 0.0444316 0.383154
-0.0188327 0.0140577 0.126184
0.234271 -0.115819 0.0425792
0.0311308 0.0646017 -0.250362
0.0802438 -0.337141 0.133889
0.0320002 -0.205675 0.229855
0 0 0
0.131022 -0.0708781 -0.0234339
0.309095 -0.0583438 0.0280105
-0.225531 0.0719401 -0.0265694
0.136415 -0.0341586 0.0699815
-0.33012 -0.0180628 0.227253
0 0 0
0 0 0
0.0170093 0.0428705 0.03385
-0.0393555 -0.141374 0.34724
0.0678524 0.103656 0.118605
0.225174 0.0231889 -0.185678
-0.0766819 -0.00240338 0.0392787
-0.152592 -0.032082 0.126896
-0.302841 0.0104688 0.243359
-0.0847427 0.0577665 -0.102258
-0.0238934 0.514002 0.1727
-0.0648158 -0.203656 0.00499246
0.0334616 0.168018 -0.08419
-0.0485559 -0.166637 -0.202734
0.00385202 0.0766464 0.0972293
-0.361297 -0.0359367 0.118148
0 0 0
0.181132 -0.427486 -0.306761
0.0855803 -0.057961 0.0279049
0.0605498 -0.0632487 -0.0550553
-0.0132252 -0.0234346 0.161987
0.0532302 0.159266 0.137521
0 0 0
-0.0152771 0.00012814 0.0356297
0 0 0
0 0 0
0.00495145 0.0393005 0.0624367
-0.249679 -0.0734007 -0.0596568
0 0 0
-0.028492 0.0567876 0.0489025
-0.195096 -0.263553 -0.241424
-0.160102 -0.0321776 -0.112013
0 0 0
-0.00168401 -0.0522856 -0.3404
-0.00366444 -0.0300417 0.0440268
0 0 0
0 0 0
-0.0282813 -0.117161 0.0258409
-0.245166 -0.0244093 -0.0984842
0.00302394 0.0623552 0.0639731
0.00611795 -0.145903 -0.02275
0.120924 0.0154282 0.00281109
0.0282929 -0.188644 0.0105574
0.0404812 0.0990933 0.166121
0 0 0
0 0 0
-0.0566839 -0.0120452 0.405341
0.295574 0.315603 -0.140399
0.39408 -0.182769 -0.135061
0.0110135 -0.00289692 -0.00216675
0 0 0
0.287277 0.0457839 0.15022
0.0717309 0.0250824 0.000342611
0 0 0
0.0128138 0.0424141 -0.133853
-0.113084 -0.18318 -0.00232862
-0.37027 -0.094609 0.255078
0.049454 -0.00625466 -0.154724
0.112059 -0.0217529 -0.037202
0.066055 -0.00452306 -0.0950701
0.139532 0.395581 -0.304089
0.0255592 0.0955533 0.285206
0 0 0
-0.146364 -0.114458 -0.21054
0.0217792 -5.64594e-05 -0.0253025
0 0 0
0.32119 -0.262727 -0.622347
0.00679614 0.00684992 -0.00583308
-0.121271 0.0282153 0.0667883
-0.0277816 -0.0284985 0.00714524
-0.217032 0.0576129 0.125599
-0.360232 0.345018 -0.0221593
0 0 0
0 0 0
-0.251856 0.0308102 0.125472
-0.424309 -0.0524129 0.0710402
-0.100287 -0.1095 -0.116645
-0.27079 0.154469 -0.200275
0 0 0
0 0 0
0.12638 -0.146897 0.137559
0.215458 -0.0257157 0.16262
0.10647 -0.711623 0.0967089
0 0 0
0.136325 0.186847 -0.00147012
0 0 0
0.061356 0.0282083 -0.344301
0.312883 -0.568804 -0.293315
0.0701564 -0.0772474 0.0702325
0.049325 -0.0312827 0.0734392
0.0227973 0.0283689 0.000438682
0 0 0
0.0433225 -0.00498363 -0.461302
0.171973 -0.116862 -0.0667726
0.0915663 0.164417 -0.377405
0.483106 -0.0646696 0.140147
0 0 0
0 0 0
0.094439 -0.0896554 0.115926
-0.00868957 -0.039766 -0.153215
0 0 0
-0.157931 -0.325354 -0.419081
0 0 0
0.0154329 0.0254589 0.0375353
-0.0932244 0.0814389 0.000252148
0.14122 0.287324 0.116813
0 0 0
0.000889888 -0.0843485 -0.0115354
-0.21068 0.0188502 -0.0297276
0.142155 -0.0729102 -0.278208
-0.438955 -0.027868 -0.315101
0 0 0
-0.0653124 -0.193313 0.079474
-0.0625488 -0.105477 -0.21761
0 0 0
-0.295147 -0.0430793 -0.0134495
-0.268656 0.0742267 -0.0969112
0.0448648 -0.0956049 0.297595
0.10285 -0.17194 0.159543
0.185044 -0.0938281 0.231937
0 0 0
0.306867 0.022399 -0.153627
-0.0855505 0.0254838 0.243829
0.32422 -0.175818 -0.0433084
-0.181084 -0.181433 -0.105593
0 0 0
-0.0747666 -0.0326692 -0.1694
0.020878 -0.121934 0.161663
0.133657 -0.00742809 -0.136686
0.0858964 0.153695 -0.204235
0.221343 -0.385666 -0.0933439
-0.0411293 -0.040018 -0.0159608
0.0673764 -0.025802 -0.0852517
-0.0973316 0.0307337 0.112284
-0.459706 0.457494 0.237915
0.165212 0.234219 0.33108
0.0744212 0.110609 -0.0437023
0 0 0
0 0 0
0 0 0
0.0699789 0.232591 0.144099
0 0 0
0.30192 -0.031098 0.00565799
0.0880946 0.0951584 -0.0542347
0 0 0
0 0 0
-0.0586689 0.0941443 -0.172158
0 0 0
-0.398437 -0.0658202 0.0546429
-0.290109 -0.262012 0.50477
-0.0681461 -0.00283088 0.0371761
-0.118654 0.0411427 -9.5897e-05
0.0047372 0.0453781 -0.229343
-0.216061 0.0694369 -0.0421668
-0.0461929 0.156563 0.107324
-0.0184248 -0.498184 -0.142213
0.000304103 -0.216233 -0.0536866
-0.0513578 -0.058133 0.166508
-0.157559 0.309799 -0.238051
-0.201751 -0.0190776 0.00392161
0.00686705 -0.186311 -0.295807
0 0 0
-0.00282029 -0.00914713 -0.0363622
0.279622 -0.297765 0.0862157
0.0889657 0.0353491 0.0808829
-0.0158853 -0.122305 0.0979541
0 0 0
-0.0348167 0.171252 -0.113343
0.0796455 0.0581346 -0.110655
0.0611928 0.46063 -0.233622
0 0 0
0 0 0
-0.0417836 -0.112439 -0.0249424
0 0 0
0 0 0
0.181085 0.0490664 -0.105057
0.115065 0.0617847 -0.0898991
0.250469 -0.0968336 0.232676
0.106547 0.096214 0.311296
0.117653 -0.246324 -0.137661
0.305092 -0.60553 -0.212967
0.093665 0.152566 -0.311071
0 0 0
0.00836185 0.0363445 -0.00699564
-0.00164609 -0.191907 0.11335
-0.0830237 -0.368721 0.0424341
0.0974493 -0.297861 0.0746534
0.0021304 -0.0416502 0.0354312
0.137661 0.0765816 0.245979
-0.113145 -0.0037006 0.0344996
0 0 0
0.333615 -0.12875 -0.230567
0.00679743 -0.140405 0.0304108
-0.171046 0.158816 -0.0323752
0 0 0
-0.0851305 -0.0471866 0.107797
0 0 0
-0.0397664 0.163702 -0.195726
0 0 0
0.0237648 0.0554521 -0.140119
0 0 0
-0.152417 0.282395 -0.193493
-0.184788 0.11034 0.0521223
0 0 0
0.00312961 0.153219 -0.0817179
0.131738 0.047984 0.0859135
0.0908261 -0.157685 0.000468709
0 0 0
-0.0112527 0.0651174 0.123952
-0.00588347 0.0358542 0.0188421
-0.140614 0.0443475 0.262142
0 0 0
-0.0119919 -0.367995 -0.14005
-0.0218968 -0.0342282 0.0195937
-0.197238 0.273082 -0.0203155
0.105084 -0.00149129 -0.0382361
0.154401 -0.0447901 -0.000410021
0 0 0
-0.0777287 -0.484062 -0.0413213
0 0 0
0.00576475 -0.0313308 0.0650509
0.00138872 -0.0634942 0.0584268
0.00841249 -0.394152 -0.298821
0 0 0
-0.0469821 -0.108703 -0.0660111
-0.0322866 -0.0157219 -0.111814
0 0 0
-0.0574256 -0.011063 -0.0239658
-0.0771195 -0.0359385 0.0247313
0.0019202 0.0810659 -0.000234148
-0.0532239 0.048904 -0.103114
-0.277371 0.161743 -0.112893
-0.263656 -0.0544007 0.263985
-0.174541 -0.127544 -0.17054
0.0013658 -0.103259 0.04479
0.0746571 -0.347163 -0.203314
0.0132957 0.00918145 0.000656783
0.145106 -0.0304599 0.34606
0.0870598 -0.0133865 0.00181958
-0.0762064 0.0358798 0.000565677
0 0 0
0.00321635 0.0165881 0.0147067
0.166561 0.105551 0.21865
-0.143588 0.199407 -0.52983
0 0 0
-0.281762 0.313232 0.174699
0 0 0
-0.412164 0.154969 0.0336885
0.00879957 -0.139293 -0.257958
-0.289322 -0.24232 -0.328318
0 0 0
0 0 0
-0.0515317 -0.0143324 -0.112961
0 0 0
0.00247725 0.0693973 0.0613724
-0.154128 0.539343 -0.0583508
0 0 0
-0.268562 -0.138811 -0.0152222
0 0 0
0.000531383 0.0858147 0.00158519
0.0419351 -0.220262 -0.181144
0.0805087 0.275631 -0.0939425
-0.458162 0.124638 -0.140612
0 0 0
0 0 0
-0.053558 -0.071336 -0.068709
-0.114119 -0.230158 -0.437306
0.0679257 -0.0430617 -0.0878119
-0.00536592 0.0756048 0.0923273
0 0 0
-0.241666 -0.420252 0.417913
0 0 0
-0.298138 0.204483 -0.39902
0 0 0
-0.409414 0.400349 -0.273694
-0.0129979 0.0970522 -0.201811
-0.180182 -0.00855196 -0.0637899
-0.205598 0.0423339 0.0243172
0.174196 0.0741751 -0.0777721
0.204833 -0.219887 -0.0138817
-0.004924 0.0387095 -0.124869
0 0 0
-0.324613 -0.089322 -0.00214027
0.065547 0.207922 -0.000992627
0.144713 -0.33746 -0.0524521
0 0 0
-0.044622 -0.138169 0.491186
0 0 0
-0.0650695 -0.649161 -0.284791
0 0 0
-0.352111 -0.285815 -0.0371757
0 0 0
-0.157449 -0.185745 0.285126
-0.0282533 -0.0400886 0.150179
-0.173731 -0.188841 0.152558
-0.0991098 -0.241856 0.014127
-0.119973 -0.261156 0.07123
0 0 0
0 0 0
-0.212004 -0.0297464 0.242006
0 0 0
-0.206899 -0.595144 0.0970124
-0.0248088 -0.0622771 -0.0750867
0 0 0
0.179087 0.305889 0.0285577
-0.0905348 0.174575 -0.108507
0.0811693 -0.015306 -0.46125
0 0 0
0.12942 -0.191694 0.131534
0.195286 -0.295092 -0.316362
0.0378575 0.0380245 0.0575222
-0.0474109 -0.0466243 0.0858102
0.0767109 -0.193441 0.108309
0.0716993 0.00725472 0.0465028
0.204362 -0.391172 -0.0550618
0.13297 0.0312966 -0.14321
0 0 0
0.419975 0.0421993 -0.205001
0 0 0
-0.0420895 0.0848258 0.431901
0 0 0
0 0 0
-0.11635 0.0282354 -0.0229787
0.005463 -0.0988286 0.0662121
0 0 0
-0.140685 -0.203714 -0.206789
0 0 0
0 0 0
-0.0229906 -0.0188046 -0.0744495
0.0161956 -0.0244727 -0.0440058
0.195782 -0.219407 -0.00668088
0 0 0
0.14685 -0.307604 -0.298976
0 0 0
0.121147 0.0972533 -0.089815
0 0 0
0.095049 0.170649 -0.193178
0.0718807 0.268 0.0626314
0 0 0
-0.0156862 0.0616426 0.0517365
-0.0369183 0.0289317 -0.000209484
0.0269254 0.0617554 -0.0779379
0.0957605 0.0534042 0.0504603
0 0 0
0 0 0
0 0 0
0 0 0
-0.217216 -0.0671082 -0.00207464
0 0 0
0.0199981 -0.206882 -0.0940072
0.00209945 -0.0246641 -0.04645
0 0 0
-0.129791 0.00499249 -0.23007
0 0 0
-0.0276153 -0.0122559 0.00920529
-0.0314846 -0.0739262 -0.116901
0 0 0
0.103795 0.000418714 0.063165
0.113905 0.084923 -0.0832224
0 0 0
0.317994 0.220962 0.158479
-0.000557508 0.145374 0.0309213
0.128862 -0.0617466 -0.0223375
-0.0053904 -0.0198371 0.031775
0.0300378 -0.0623858 0.09009
-0.0299654 -0.115012 0.293654
0.132663 -0.152021 -0.00034475
-0.00494029 0.0528025 -0.0027466
0 0 0
0.126399 -0.0157234 -0.0033783
0 0 0
-0.00419127 0.0280062 0.0755462
0.000971693 -0.0346776 0.0577475
0.071572 0.015856 -0.0087477
0.0745816 0.123126 0.0868018
0.080361 0.220571 -0.0104766
-0.00782142 -0.00131807 -0.0137443
0 0 0
-0.0784572 -0.0566227 -0.00363618
-0.0995769 -0.0363606 0.0696332
-0.0290035 -0.335246 -0.24675
0.367133 0.013745 0.139813
0.0357679 0.282471 0.0368782
0 0 0
0 0 0
-0.00285788 -0.00139376 -0.00122677
0.518537 -0.0200045 -0.218537
0.169956 0.0259179 0.023162
0 0 0
0.383891 -0.165128 0.238285
-0.0199988 -0.063251 0.0870041
0.171712 -0.0700772 -0.0461165
0.212641 0.26514 -0.355286
7.00446e-05 0.0113426 -0.0292089
0.00711534 -0.0299252 -0.188625
0.0015711 0.146983 -0.0596639
0.121393 -0.283173 -0.0457594
0 0 0
-0.0376225 -0.175298 -0.148983
-0.00254155 0.0138589 -0.0548508
0.218858 0.0494618 0.165389
-0.00309486 -0.0466505 -0.107118
0 0 0
0.0185585 -0.0235825 -3.75568e-05
0 0 0
0.156338 0.00203337 -0.0510501
0.129614 -0.0572572 -0.128821
0.0753738 0.0414313 0.0733853
-0.00678983 0.225301 -0.0849751
0.0938076 0.0271726 9.42827e-05
-0.0205568 0.400756 -0.0814017
0.0323876 -0.123971 -0.0202586
0 0 0
0.0632183 -0.00270631 -0.054216
0.29677 0.124355 -0.0273902
0.0678675 -0.03972 -0.079558
0.514222 -0.0257695 -0.136897
0.0509778 0.345029 -0.274326
0.184043 -0.124991 -0.148954
0.0986814 0.0608717 -0.0517831
0.526752 0.351492 0.131784
0.103426 -0.0897267 -0.283004
0.0537126 0.0345412 -0.237199
0 0 0
0 0 0
0.68376 -0.214775 -0.268388
0.235418 0.135396 -0.0235096
0.362437 -0.0589749 -0.0964306
0.0223661 -0.303627 0.00167448
0.528702 -0.335619 0.011636
0.406895 -0.585373 0.104542
0.173174 -0.0628744 0.188142
0 0 0
0.180428 0.384881 0.248182
-0.00713022 -0.00812802 0.0201746
-0.00442084 -0.125442 -0.07231
-0.136753 -0.147591 0.134084
-0.000108173 -0.141342 0.0255955
0.0876778 -0.0913483 0.111511
0 0 0
-0.111336 0.172801 -0.0205419
8.4795e-05 -0.00498174 -0.0104179
0.223685 0.101371 0.0522193
0 0 0
0.217399 -0.22386 -0.0148694
0.102986 0.0139043 -0.0198986
0.00342223 -0.109103 0.0114396
-0.0723631 -0.172339 0.0770582
0.366592 -0.130521 0.0667671
0.00317618 -0.0219308 0.190146
0.0467653 -0.0555512 0.0328649
0 0 0
-0.190801 0.0102064 0.123775
0 0 0
0.0788626 0.167974 -0.102541
0.140428 -0.384412 -0.235263
-0.0651972 -0.0761266 -0.0344145
0.14604 -0.677334 0.241529
0 0 0
0.261818 -0.230854 0.52336
0.377135 -0.248727 -0.0472214
0.169514 -0.0673512 -0.10709
-0.286338 -0.253696 0.063258
-0.0806754 0.0827982 -0.107468
-0.0800182 0.0713467 0.10754
0 0 0
0 0 0
0.0293876 0.0399692 0.0395393
0.319152 0.151692 0.259686
0.000982817 0.00917759 -0.00548556
-0.049737 -0.0718556 0.0165577
-0.0163943 -0.0851262 0.0331922
0 0 0
0.140715 0.000314844 0.0453577
0 0 0
0 0 0
-0.0744437 -0.134724 -0.0602137
0 0 0
-0.272429 -0.63047 0.258959
0 0 0
0.102339 -0.16106 0.0938105
0.375417 -0.207223 0.171545
0.124473 0.0457133 -0.0650359
-0.0896374 -0.0215069 0.105171
-0.055883 0.0595595 -0.103082
-0.105243 0.0144011 -0.0877449
-0.000416073 0.0772757 0.0692246
-0.00302115 0.0776408 -0.0544022
0 0 0
-0.169017 -0.0740765 0.0213754
-0.0962947 -0.179007 -0.0103445
-0.020551 -0.00502971 0.00205422
0 0 0
0 0 0
0.0163513 0.296038 -0.0360837
-0.0202847 -0.0554395 -0.0246839
0.0102073 0.0632634 -0.0386236
0 0 0
0.130052 -0.14635 -0.120098
0.0225061 0.0160992 -0.00796007
0.174988 -0.0459278 -0.105039
0 0 0
0 0 0
0.358824 -0.218809 0.52482
0.0854528 0.0169851 0.0198809
0.0888606 -0.21914 0.0799608
0 0 0
0.046856 0.0413034 -0.00321765
0.104804 0.0136514 -0.0357713
0.381829 -0.269309 -0.412671
0.213806 -0.0533718 0.313874
0.00860947 0.0219585 0.0681226
0.155806 -0.245172 0.0386299
-0.219302 -0.0551368 0.234864
-0.0887645 -0.0459565 0.137351
0.018755 -0.259138 0.140082
0.100298 -0.197773 -0.0167816
0 0 0
0.0984113 0.0241763 0.0774876
0 0 0
-0.360323 0.227204 0.0613919
-0.52814 -0.102831 -0.349493
-0.0385261 0.0828362 0.0715156
0.0845597 -0.168158 0.00184667
-0.3769 0.204938 0.230739
-0.0200743 0.0459149 0.0768828
0 0 0
0.086251 -0.058579 -0.0398399
0.169772 -0.416107 0.173792
0.0909822 0.0744534 0.0799667
-0.292363 0.354966 0.113276
-0.237408 -0.427917 0.270058
-0.00619064 0.0767425 0.420248
-0.0691284 0.0944556 0.00349039
0 0 0
0.229787 0.0127097 -0.189876
0 0 0
-0.0244968 -0.132718 -0.294095
0.0648024 0.0497019 -0.0244662
-0.0977031 0.238009 0.237401
0.000907242 -0.213442 0.0100486
-0.11513 -0.585395 -0.424213
-0.438965 -0.193063 -0.0478691
-0.0602738 0.0279774 0.00486033
-0.0226595 0.378682 -0.091674
0.302343 0.229097 -0.119953
0 0 0
-0.0964105 -0.624071 -0.489946
-0.0380807 -0.0878274 0.00327072
-0.0934037 -0.162289 0.296299
-0.0748479 -0.150297 -0.290261
0.0677255 -0.0115306 -0.062765
0 0 0
0 0 0
-0.246057 0.254962 0.236157
0.281645 0.225416 -0.109058
0.529798 0.170923 0.0731475
0.0388839 0.00843321 -0.0208608
0 0 0
-0.0501407 -0.0782534 0.0115171
0.00647184 -0.116308 -0.0260741
0.0870965 0.0368361 -0.0834436
-0.288221 -0.116135 0.0955956
0 0 0
-0.0832607 0.000420769 -0.00382502
-0.197928 -0.0310172 0.0232001
0.0345527 -0.0192313 -0.0175962
-0.0378454 -0.289881 -0.419505
0 0 0
-0.00902488 0.014852 -0.090995
0 0 0
-0.00903986 0.0412103 -0.0801712
-0.0150963 -0.00335706 0.0121135
-0.079828 -0.0576258 0.0622047
-0.255824 -0.128401 0.000326833
0.154607 -0.00381431 -0.219454
0.237336 0.168092 0.100945
0.00245219 -0.0141592 0.143806
0.0174978 0.0471934 0.167131
-0.128372 0.145825 0.00120717
-0.00647998 0.0137873 -0.000560095
0.00205154 -0.00169885 -0.015773
0.14678 0.0983624 0.0185284
-0.262502 0.129199 0.0774136
0 0 0
-0.0794084 -0.368806 -0.271144
0.479181 -0.310252 0.320736
0.0631709 -0.158804 0.105353
0 0 0
0 0 0
0.128648 -0.0217789 -0.125675
0.120486 -0.071416 -0.0706128
0 0 0
0.222577 0.0280624 -0.167659
0 0 0
-0.0030976 0.00930503 -0.288128
-0.0418195 -0.0216571 0.000649211
-0.344982 -0.0899646 0.19807
0 0 0
0 0 0
-0.0941717 0.266017 0.172076
-0.213908 -0.130943 0.52623
-0.0685274 -0.160158 -0.121349
0.0406105 -0.356631 0.291428
0.216528 0.247765 -0.313694
-0.0478277 0.023934 0.438526
-0.0466789 0.0101913 0.0593495
0.00143097 0.174645 -0.0556592
0 0 0
0.41026 -0.0797255 -0.187856
0 0 0
-0.00805192 0.122996 -0.0985892
0 0 0
-0.171632 0.0190673 0.110553
-0.00208446 -0.00512133 -0.0083207
0.147668 0.218987 0.19108
0.081625 -0.0639494 0.047881
0.0368501 -0.15562 0.00511639
0.112201 0.0207298 -0.0123814
0.166595 -0.191338 -0.156657
0 0 0
0.170176 0.208163 -0.193594
-0.00323241 0.124736 -0.086572
0.0870872 -0.375836 -0.00657418
0 0 0
-0.096511 0.0211764 0.0341076
-0.0890707 0.0185315 0.000878334
0 0 0
0.0667138 0.00747979 0.0792884
0 0 0
0.0603128 0.0485241 -0.103123
-0.0208684 -0.292375 0.0946907
-0.0487041 -0.255503 0.276639
0.00112067 0.147138 0.0502918
-0.0629174 0.029336 0.0480426
0.00195984 -0.00979421 0.000597699
0.195384 -0.0199145 -0.160251
0 0 0
0.13146 -0.0252829 0.0662555
0.0866901 0.0994399 0.265723
-0.129997 0.0398391 0.0880728
-0.0662024 0.4566 -0.00375075
0 0 0
-0.110576 0.120384 0.187219
0 0 0
0 0 0
0 0 0
0 0 0
0.0483415 -0.102841 -0.262246
0 0 0
0 0 0
-0.0332701 0.2541 -0.00250187
0 0 0
0.356491 -0.176511 -0.010145
0.100089 -0.0689852 -0.0547453
-0.126787 0.0822622 -0.147338
-0.304581 -0.0393945 0.061084
0 0 0
0 0 0
0 0 0
0 0 0
0.20077 -0.246685 -0.513255
0 0 0
0.034606 0.106126 -0.0597353
-0.0305261 -0.184444 0.0929436
-0.0641574 0.0046002 0.0792014
-0.192385 0.0640824 -0.0266446
0.00822639 -0.00728617 0.0498448
0.082286 -0.0623942 0.0805694
-0.0816862 0.0893096 -0.000876662
-0.276535 -0.169719 -0.10376
0.0893581 -0.164697 -0.0818862
0 0 0
-0.158066 0.0374695 0.0126063
-0.386248 -0.287505 -0.0835461
0 0 0
0.0720156 -0.0395008 -0.0507773
-0.000132852 0.0934947 -0.0859728
-0.137073 -0.174602 0.0116612
0.266071 0.383194 0.101039
0 0 0
-0.0178902 0.0188053 0.0348055
-0.118898 0.00155985 -0.0775062
-0.147945 0.689116 0.284154
0 0 0
0.0021812 -0.0257693 -0.106899
-0.0844438 -0.0187275 -0.030661
0 0 0
0 0 0
-0.000179696 0.00809293 -0.00692326
-0.0661706 -0.0460231 -0.0687087
-0.0175384 0.0210231 -0.0216608
-0.0383044 0.127493 -0.0537853
-0.165788 0.080732 0.0260975
-0.448105 0.0645249 -0.0302301
0 0 0
0 0 0
0.175845 0.149522 -0.0220388
0.00597722 -0.0865821 -0.0611978
0.0498014 -0.111621 0.0284502
0.115197 0.0210606 -0.0122558
0.215697 -0.187281 -0.0812641
-0.0398233 0.0109889 0.0598594
0.217322 -0.23158 -0.28019
0.125357 -0.0251454 -0.0484161
0.0911424 -0.0899651 -0.298881
0.0995632 -0.108726 0.00955695
0.100834 -0.0669926 0.146195
-0.0421291 -0.127898 -0.00360775
-0.114823 -0.110776 -0.163735
0.0171242 0.0217445 -0.00133211
0.171126 0.142838 -0.0874045
0.299026 0.00795329 0.175399
0.0901858 0.0082995 0.0537853
0.560864 0.256331 0.185015
0.160076 0.125527 0.227314
0.309459 0.0580117 0.160456
0 0 0
-0.199017 0.166385 -0.21868
0 0 0
-0.464693 -0.197231 0.248623
-0.5688 -0.124127 -0.103699
-0.279637 -0.0765127 0.198946
-0.00142625 0.0140853 -0.000769766
0.0703637 0.0974527 0.195802
-0.070898 0.182132 -0.0440497
-0.000604579 0.212682 -0.0423661
0 0 0
0.159691 0.00772832 0.027285
0 0 0
0.117155 0.0450041 -0.0132118
-0.0133377 0.0251848 -0.0944866
0.00856837 0.0897567 0.0748936
-0.0676041 -0.117399 -0.258312
0.0126879 -0.00444318 -0.00321161
0.192822 -0.0241501 -0.0478264
-0.0245793 -0.0305785 0.328867
0 0 0
-0.105375 0.0273854 -0.102066
-0.148761 0.144414 -0.0761263
0 0 0
-0.188661 0.0948833 0.000582977
0 0 0
-0.334146 -0.304279 0.310087
-0.531353 -0.0632346 0.0361324
-0.157314 0.063014 -0.100949
0.0028193 -0.249694 0.278516
0 0 0
0 0 0
-0.0622672 -0.0477308 0.124728
-0.0080381 0.5136 0.236778
0 0 0
0.117459 0.121983 -0.242097
0.116656 0.00536185 -0.0150544
0.0604767 -0.0428053 -0.116272
-0.0698938 -0.0148816 -0.00430758
-0.360648 -0.265603 -0.0179908
-0.0760154 -0.18782 -0.00214614
-0.231274 -0.100899 -0.207069
-0.212237 0.0392426 -0.000189776
0.0822573 0.157435 -0.0404407
0.174357 -0.160919 0.0266779
0 0 0
0.042252 0.100996 -0.108749
0.130224 0.100945 -0.0256338
0.218967 -0.0670504 -0.276289
0.0469307 0.086422 -0.0407346
0.103074 -0.131833 0.210681
-0.012355 -0.315574 -0.0750537
0 0 0
0.0825893 -0.157582 -0.00184287
-0.0868601 -0.0822047 0.172043
0.000670151 -0.185731 0.14073
-0.0484438 0.0230657 -0.22952
-0.40999 -0.240281 -0.139796
-0.0662421 0.118023 0.0319111
0.0599155 -0.181172 -0.117083
0.0451883 0.00621784 0.150471
0 0 0
-0.277855 -0.0488415 -0.120127
0 0 0
-0.22003 -0.0246089 0.2967
-0.0964451 -0.113807 -0.0567439
0.10323 -0.0867817 0.148937
0.19277 0.176779 -0.127981
0.0527849 0.0820936 0.0410234
0.0734576 0.0290816 0.0186696
0.0542474 0.0200454 -0.0489929
0 0 0
-0.0932266 -0.0132132 0.16599
-0.0718384 0.0345054 0.0996189
-0.0484573 -0.0276744 -0.096204
-0.346017 0.161433 -0.0393232
-0.227578 0.0456205 -0.00626875
0 0 0
-0.150968 -0.0388451 0.301977
-0.0378491 0.138673 0.0212749
0.100214 0.00605416 0.0552992
-0.000821549 -0.0109601 0.0119136
0.0637047 -0.281999 0.0641627
0 0 0
-0.115449 0.0629653 -0.0239521
-0.221846 -0.103617 0.0749432
-0.073043 -0.00122062 -0.000455942
-0.0658808 -0.0121326 -0.00196583
-0.151844 -0.0740489 -0.0564605
-0.0928018 -0.274051 -0.245909
0 0 0
0 0 0
0 0 0
0 0 0
0 0 0
0 0 0
0 0 0
0 0 0
0 0 0
0 0 0
0 0 0
0 0 0
0 0 0
0 0 0
0 0 0
0 0 0
0 0 0
0 0 0
0 0 0
0 0 0
0 0 0
0 0 0
0 0 0
0 0 0
0 0 0
0 0 0
0 0 0
0 0 0
0 0 0
0 0 0
0 0 0
0 0 0
0 0 0
0 0 0
0 0 0
0 0 0
0 0 0
0 0 0
0 0 0
0 0 0
0 0 0
0 0 0
0 0 0
0 0 0
0 0 0
0 0 0
0 0 0
0 0 0
0 0 0
0 0 0
0 0 0
0 0 0
0 0 0
0 0 0
0 0 0
0 0 0
0 0 0
0 0 0
0 0 0
0 0 0
0 0 0
0 0 0
0 0 0
0 0 0
-0.143312 -0.0780577 -0.0598836
0.0465624 0.0202138 -0.173659
0 0 0
0.151041 0.0672032 -0.0700444
0.00981318 -0.0303874 -0.134337
0 0 0
-0.181362 0.015158 -0.0841413
-0.0825495 0.234408 -0.000657696
-0.0740198 -0.203139 -0.0680792
0.121744 0.00241482 -0.187894
0 0 0
0.0598728 -0.0551761 -0.0458602
-0.0808063 0.0648941 -0.0951934
0 0 0
0.0382381 -0.0108666 0.0205939
-0.111787 0.122311 0.204781
-0.0591458 -0.080393 -0.0655786
0.0501724 -0.0850621 -0.0211266
0.00123805 -0.00282955 0.0045396
-0.0348303 0.100475 0.0498184
0.0976898 0.0307526 -0.0343543
9.23016e-05 -0.0270532 -0.00448182
-0.0585663 0.0197828 0.00339342
0.0114565 -0.29505 -0.045854
0.0233348 0.427646 0.082715
-0.0477415 -0.177351 0.0198988
0.0119363 -0.0114103 -0.0114142
0.10305 0.0606408 0.0125391
-0.175585 -0.0263304 -0.136637
0 0 0
-0.10113 -0.0331513 0.113752
-0.0901173 0.0178067 -0.0148793
0.0363555 -0.0303742 0.0221314
-0.00195829 -0.0636722 -0.0408892
0 0 0
-0.112687 0.0140462 0.128677
0.0664429 -0.0393505 -0.0342855
0 0 0
-0.0447304 0.00638728 -0.00284194
-0.0349607 0.0453214 0.256317
-0.00196383 -0.0447401 -0.319374
-0.0344844 -0.00385387 0.126186
0 0 0
-0.136407 0.0154003 0.0223144
0.0363074 0.00185471 0.0143558
0 0 0
-0.0240303 0.0766821 0.0463133
0.0450594 0.0404027 -0.0930082
0.0589749 -0.043871 -0.00946671
0.0633691 -0.0884048 0.0667119
0 0 0
0 0 0
0.0513601 -0.00220757 -0.0928791
0 0 0
-0.0525418 0.00542698 -0.138964
0.00243973 0.00917345 -0.258466
0.074547 0.0170432 0.221254
-0.0192194 -0.0630704 -0.034676
0 0 0
-0.00554923 0.02993 -0.0460496
0.130589 0.00151781 0.116207
0 0 0
0.0341518 0.129585 0.00279106
0.0515673 0.025194 -0.00831991
0.0601254 -0.250037 0.0406285
0.078175 0.18412 0.287469
-0.151501 0.176543 -0.28783
0.223833 0.127162 0.131835
0.271138 0.236429 0.0824646
-0.0259037 0.0170611 0.00318093
-0.0582348 0.192102 0.418065
0.000176091 0.261182 -0.0917748
0.115409 0.0787942 -0.0186119
0.0574028 -0.0524323 -0.227734
0.225597 0.200885 0.310849
0 0 0
0.0171819 0.170395 -0.176002
-0.00365356 0.04701 0.120259
0.0584706 0.0489567 -0.175324
-0.0345323 0.0463891 0.0276968
0 0 0
-0.000735062 0.154642 -0.278455
0.031686 -0.202996 0.25907
-0.122086 -0.279282 -0.392322
0 0 0
-0.23449 0.205821 0.048262
-0.19179 -0.0468997 0.288252
-0.14007 -0.0147848 0.118002
-0.410648 -0.0880961 -0.133851
-0.132739 0.191147 -0.0806698
-0.0315856 0.0585451 -0.0360538
-0.00951723 0.0671588 -0.0701899
0.264673 0.098389 -0.293712
0.184483 -0.282378 0.167976
0 0 0
-0.0124766 0.587363 0.10186
0.011919 -0.00748145 0.0112364
0.26074 0.753469 0.337399
0.000287105 0.134938 0.0727102
-0.109985 0.12182 0.109255
-0.39559 0.698795 -0.211205
0 0 0
-0.135938 0.426649 0.0304964
0.0461262 0.286706 -0.0109151
0.0516524 0.307773 -0.0348227
0 0 0
-0.106513 0.000356416 -0.102953
-0.00186517 0.188018 0.046514
-0.190712 0.18609 0.17595
-0.00339803 0.116498 -0.122117
-0.0112132 -0.13025 -0.119915
0 0 0
-0.350214 -0.0675828 -0.296092
-0.00842919 -0.0338559 0.00182419
0 0 0
0.00351578 0.0992121 -0.0948905
0.00367567 0.119643 -0.21426
0.119722 0.0663041 0.180134
0.00852815 -0.0864688 -0.106829
-0.0243524 0.0588997 0.154343
-0.0670417 -0.00227994 -0.15416
0.104247 -0.109804 0.0838434
0.0298607 -0.086908 -0.00215462
0.0809286 0.0948339 -0.322445
-0.0165888 -0.209067 -0.156062
0 0 0
0 0 0
0.236703 0.0573168 -0.102364
0.24042 0.127072 -0.207273
0.0339497 0.183605 -0.0435752
0.45393 0.17385 0.22893
0 0 0
0 0 0
0.212421 0.0269135 -0.147958
0.35886 -0.277886 -0.379639
-0.0905168 -0.00225813 -0.0708785
-0.0243011 0.0306579 -0.0979174
-0.0158863 -0.422508 -0.0993794
0.146202 -0.0632411 0.126564
-0.0025549 0.214044 0.0810956
0 0 0
0.109421 0.0556456 0.335084
0.186558 0.24887 0.155444
0.172303 0.234189 0.0573301
0.0863572 0.151981 -0.0550136
0.429235 -0.17648 0.154622
-0.00211863 -0.0357226 0.0196837
0.164927 -0.28743 0.198271
0 0 0
0.12577 -0.0115116 0.0448892
0 0 0
0 0 0
-0.126574 -0.0442887 0.136153
-0.0148901 -0.029894 0.0132494
-0.321593 -0.0948616 0.27008
0.0702549 0.178395 -0.0384765
0.275878 0.225365 0.00416169
0.226275 -0.101737 0.426876
0.0792501 0.0392365 0.0182255
0 0 0
0.0359909 0.00684492 0.0683525
-0.00265416 -0.113067 -0.0396738
0 0 0
0 0 0
-0.0252864 0.0145329 0.0578778
0.0028649 -0.0268292 -0.109727
-0.243827 0.0665693 -0.0901841
-0.166984 0.345275 -0.329911
0 0 0
0.151387 -0.239597 -0.229959
0 0 0
-0.23541 0.122801 -0.405574
-0.100437 0.0731201 -0.102845
0 0 0
-0.10768 -0.368664 0.270967
-0.483332 -0.455366 0.0696207
0 0 0
0 0 0
-0.0297191 0.437639 0.0735061
0 0 0
0.052272 0.0281565 -0.00465211