<?xml version="1.0"?>
<VTKFile type="RectilinearGrid">
<RectilinearGrid WholeExtent="0 32 0 32 0 32" Origin="0 0 0" Spacing="1 1 1">
<Piece Extent="0 32 0 32 0 32">
<PointData>
</PointData>
<Coordinates>
<DataArray type="Float32" format="ascii">
0 0.524874 1.04975 1.57462 2.0995 2.62437 3.14924 3.67412 4.19899 4.72386 5.24874 5.77361 6.29849 6.82336 7.34823 7.87311 8.39798 8.92285 9.44773 9.9726 10.4975 11.0224 11.5472 12.0721 12.597 13.1218 13.6467 14.1716 14.6965 15.2213 15.7462 16.2711 16.796 
</DataArray>
<DataArray type="Float32" format="ascii">
-5.03879 -3.62163 -2.20447 -0.787311 0.629849 2.04701 3.46417 4.88133 6.29849 7.71565 9.1328 10.55 11.9671 13.3843 14.8014 16.2186 17.6358 19.0529 20.4701 21.8872 23.3044 24.7216 26.1387 27.5559 28.973 30.3902 31.8074 33.2245 34.6417 36.0588 37.476 38.8931 40.3103 
</DataArray>
<DataArray type="Float32" format="ascii">
0 0.524874 1.04975 1.57462 2.0995 2.62437 3.14924 3.67412 4.19899 4.72386 5.24874 5.77361 6.29849 6.82336 7.34823 7.87311 8.39798 8.92285 9.44773 9.9726 10.4975 11.0224 11.5472 12.0721 12.597 13.1218 13.6467 14.1716 14.6965 15.2213 15.7462 16.2711 16.796 
</DataArray>
</Coordinates>
<CellData>
<DataArray type="Float32" Name="Vector" NumberOfComponents="3" format="ascii">
0 0 0
0 0 0
0 0 0
0 0 0
0 0 0
0 0 0
0 0 0
0 0 0
0 0 0
0 0 0
0 0 0
0 0 0
0 0 0
0 0 0
0 0 0
0 0 0
0 0 0
0 0 0
0 0 0
0 0 0
0 0 0
0 0 0
0 0 0
0 0 0
0 0 0
0 0 0
0 0 0
0 0 0
0 0 0
0 0 0
0 0 0
0 0 0
0 0 0
0 0 0
0 0 0
0 0 0
0 0 0
0 0 0
0 0 0
0 0 0
0 0 0
0 0 0
0 0 0
0 0 0
0 0 0
0 0 0
0 0 0
0 0 0
0 0 0
0 0 0
0 0 0
0 0 0
0 0 0
0 0 0
0 0 0
0 0 0
0 0 0
0 0 0
0 0 0
0 0 0
0 0 0
0 0 0
0 0 0
0 0 0
0.0625075 -0.0209005 -0.123636
0.0375822 0.0480109 -0.0310072
0 0 0
-0.289899 -0.0978902 -0.00199394
0.10058 0.158735 0.150052
-0.00226627 0.0213426 0.0150903
-0.121578 -0.0679914 -0.0360927
-0.00752563 -0.0227264 -0.000349373
-0.0576048 -0.167183 -0.00981687
-0.0352124 0.103015 -0.0012141
0 0 0
0.08169 0.0263379 -0.0215148
-0.0610556 0.254389 -0.0340251
0 0 0
-0.130803 0.0580608 0.00653399
0.00583049 -0.0611713 0.00766139
0.0402615 0.130879 -0.0120244
0.0136131 -0.0975641 -0.0847362
0 0 0
-0.0426036 0.202248 0.00650918
0.0760691 -0.101718 -0.0426912
0 0 0
-0.191229 -0.186499 0.00146163
-0.00854573 -0.116362 0.0324791
0.0110697 -0.106041 -0.0409296
0.151803 0.0559209 -0.00602424
0 0 0
0.073222 0.0579159 -0.013557
0.026621 -0.388595 0.0483206
0 0 0
0.299264 -0.0102642 0.0650193
0.00681734 -0.49049 0.212348
0.0848765 0.0403681 -0.156743
0 0 0
0 0 0
0.148713 -0.608927 0.00436809
-0.0534497 0.0177608 -0.171177
0 0 0
-0.0659927 0.0728189 0.0601973
0 0 0
-0.00191342 -0.0390888 0.0691144
0.0848287 0.23117 -0.00676961
0 0 0
-0.100659 -0.0133187 0.0563724
-0.247757 -0.0538017 -0.0666732
0 0 0
0 0 0
-0.0562232 -0.041477 -0.0988815
-0.0791992 0.10056 0.09623
0.0387007 0.00846695 0.115168
0 0 0
-0.0773142 -0.0786555 -0.00027439
0.00986371 -0.00238433 -0.102384
0 0 0
0.300124 0.0258883 0.00127561
0 0 0
0.0198297 0.00141329 0.0172429
0.0145365 0.186144 -0.000922404
0 0 0
0.0507966 0.0819026 -0.0352897
-0.399835 -0.153496 -0.052449
0 0 0
0 0 0
-0.0349295 0.0567689 0.10764
0 0 0
0.104596 0.0521944 -0.0935841
0 0 0
0.0872121 -0.0401917 0.340191
0.101271 -0.268877 -0.0249759
-0.325089 0.0722364 0.057055
-0.0984664 0.158957 -0.0640274
-0.133361 0.181879 -0.0428348
0.165377 -0.00771308 0.00842613
0.240917 0.341121 0.186991
-0.0168236 -0.0165436 -0.0715405
-0.076984 0.149956 -0.0384926
0.173838 0.17494 -0.00659244
0.0305874 0.0157683 -0.0127154
-0.112746 -0.170474 0.000952972
0 0 0
0 0 0
-0.150529 0.00178847 0.0607487
0 0 0
-0.0249851 0.0233094 0.209089
0.0273708 0.0489977 0.0902686
0.00333978 0.0791251 -0.0634032
-0.151381 0.278791 0.15016
-0.00574366 -0.0176546 -0.0393036
-0.0784712 0.0528842 0.163652
0.0746525 0.126681 -0.00313666
0 0 0
0.287847 0.573409 -0.00528991
0 0 0
-0.0271588 0.131402 -0.0550985
0.0183527 -0.00372528 0.00605933
0.0521257 0.298592 -0.228547
-0.00196597 0.109185 -0.0114151
-0.0684274 0.259792 -0.0165467
-0.171801 0.0196193 0.213814
-0.156675 0.388255 -0.0359298
0 0 0
0.227687 0.0317411 0.371239
0.00476104 0.351398 0.1176
0.0374496 0.185303 -0.0284983
0 0 0
0 0 0
0 0 0
0.00940325 0.0590527 0.00123739
0 0 0
0.257158 0.152356 -0.021364
0 0 0
-0.103602 -0.0226241 0.0108069
0 0 0
0.0762413 0.191721 0.242839
0 0 0
-0.141822 0.0512941 -0.00441828
0.0563406 0.118929 0.323479
-0.0112305 -0.0256216 -0.00094458
-0.00486593 0.0126727 -0.000255554
0.0397235 0.014326 -0.0190572
0.0275087 -0.0472454 0.194728
0 0 0
-0.148495 0.00852302 -0.200334
0.0523962 0.16333 -0.0892764
0 0 0
-0.309018 -0.0311896 -0.0022265
0 0 0
0.0335139 -0.0193074 -0.0067218
-0.0103442 0.0658614 -0.0812938
-0.0114398 0.0209411 0.0413893
0 0 0
0 0 0
0 0 0
0.0390752 -0.0971807 -0.000240463
0.0560964 0.00999632 0.00222408
-0.0620389 0.396195 -0.0173439
-0.0253627 -0.0510626 0.058755
-0.0118501 -0.0440792 0.107965
-0.230029 0.0742428 0.0312591
0.0254789 -0.00448961 -0.0337949
0.159654 0.0793622 0.0349979
0.00720486 0.024611 -0.031269
0 0 0
-0.0527255 0.0947329 -0.187962
0.0373095 0.0005268 -0.0298607
0.0128736 0.0118701 0.0244916
0.0144163 -0.0694967 -0.0297818
0 0 0
0 0 0
0 0 0
-0.0388875 0.129843 -0.243145
0 0 0
-0.28022 -0.312275 -0.174021
-0.0917752 0.0807941 -0.189288
0 0 0
-0.0016839 -0.00113929 -0.00220345
0.118966 0.138905 -0.089362
0.169529 0.111525 0.0720453
-0.0238072 -0.0861831 -0.173547
-0.300105 -0.187535 0.260506
0.121243 0.0290459 -0.0744969
0.0519155 0.0432116 -0.00660548
-0.0564735 0.223749 -0.517068
-0.0704671 0.00624409 0.288011
-0.000109864 0.0573119 0.0506207
0.0610602 -0.00625587 -0.353844
0.0851093 -0.0916719 0.0060279
0 0 0
-0.177498 0.0847608 -0.219239
-0.0425113 -0.130775 0.0666095
-0.373137 0.402374 0.130677
0 0 0
-0.0330069 0.164426 0.084556
0 0 0
0 0 0
0 0 0
-0.01477 -0.511086 0.156661
0 0 0
-0.0237839 -0.177268 0.113612
0 0 0
-0.331282 -0.124098 -0.172349
-0.00102179 0.00343004 -0.160092
0.00506576 -0.0720272 -0.0028994
0 0 0
-0.0283609 -0.0102171 -0.100214
-0.107915 0.0451932 0.00406496
-0.000567662 0.167669 -0.454508
0.188222 0.172103 -0.0674704
0.244285 0.186382 0.218495
0.0529261 0.239185 0.219994
0.0378389 0.393926 0.482244
0 0 0
-0.125717 -0.129082 -0.263038
-0.156662 -0.145384 -0.277251
0.135681 0.0619894 -0.0227762
0.0223874 -0.000981742 -0.0217574
0 0 0
0 0 0
-0.224748 0.0729536 0.0284586
0 0 0
-0.199942 0.25479 -0.0480762
0 0 0
-0.0375474 0.0115396 0.0235702
0.0233421 0.0558307 -0.00105672
0.0742179 -0.00375479 -0.00138221
0.282088 0.241006 0.00750092
0 0 0
0 0 0
0 0 0
-0.243095 0.215827 -0.069576
0.0419992 0.0293331 0.0506416
-0.342148 0.472833 0.426199
0 0 0
0 0 0
0.0729037 -0.001188 -0.000902784
0.211848 -0.218881 0.0329893
0.00409738 -0.097934 -0.0106023
-0.187681 -0.252978 -0.0972805
-0.040882 -0.0485801 -0.00779563
-0.0176655 -0.000165842 -0.035875
0.204953 -0.000969455 0.0479627
-0.0622217 -0.189028 0.00181976
-0.252153 0.391101 -0.132155
0 0 0
0 0 0
0.025254 -0.265396 -0.280202
0.0461358 -0.0228974 0.131062
0.171069 0.0013469 -0.11118
0.0588864 0.0379091 0.0164161
-0.0220854 -0.0165922 -0.0327758
0.0324763 -0.142354 -0.0905387
0 0 0
-0.341317 0.506774 -0.205328
0 0 0
-0.264769 -0.0541161 -0.16936
0 0 0
-0.0743443 -0.237174 -0.072671
0 0 0
0 0 0
0 0 0
0 0 0
-0.0423816 0.0309893 -0.0313246
0.0887008 0.005306 0.0428212
0.00852891 0.00235513 -0.0377966
-0.23302 0.366718 0.0442047
0 0 0
0.0462568 -0.00748461 -0.0509917
-0.135952 0.0323405 -0.100594
-0.131885 -0.227602 -0.339003
0.00308764 -0.00821451 -0.0187265
0.11224 0.104435 0.126251
0 0 0
-0.188011 0.235053 0.134276
0.0514213 -0.0288961 -0.0261786
0.106715 -0.0400559 0.0848479
0.0644775 0.058446 -0.0874601
0 0 0
0 0 0
0.0643269 0.104528 0.128045
-0.0982205 -0.163036 0.311048
-0.434203 -0.169689 -0.0298892
0 0 0
0 0 0
-0.0750702 -0.0464977 -0.177424
-0.264508 0.0886267 0.0837323
-0.274417 0.139877 0.10919
0.0524872 -0.00141008 -0.024993
0 0 0
0.175037 -0.0750746 0.226551
0 0 0
0.121832 0.328792 0.268761
0.0466595 -0.17402 -0.181571
-0.219079 0.641906 -0.127988
-0.0833036 0.163476 -0.0177894
-0.224555 0.56375 0.231017
0 0 0
-0.00709596 0.0580793 0.00199482
0 0 0
0 0 0
0.161395 -0.521439 -0.143686
0 0 0
0 0 0
-0.328777 0.0277351 -0.399344
-0.0593074 0.10472 0.208524
-0.0054893 0.011085 -0.0454738
0 0 0
0 0 0
-0.0660947 0.459248 0.087257
0.00277699 -0.0406602 0.0780059
0.084164 0.156272 0.0398052
-0.117157 0.0628337 -0.326381
0.023413 0.0180704 0.12901
0 0 0
0.171111 0.299309 -0.101399
0 0 0
-0.184953 0.259557 -0.114188
-0.0177939 -0.00020072 0.040451
-0.0271998 -0.0777752 0.00289969
-0.481048 0.303147 -0.20625
-0.358664 0.120566 -0.305808
0 0 0
0 0 0
0 0 0
-0.257784 0.0826884 0.251702
0 0 0
0.0282346 0.384455 -0.00592282
-0.153407 0.0458061 0.166067
0 0 0
-0.247892 0.171211 -0.209189
0 0 0
0 0 0
-0.35624 -0.332274 -0.0685918
0.00105088 -0.0137429 -0.0437717
-0.402548 -0.0222781 0.0725675
-0.013397 -0.0812329 -0.132277
0 0 0
0 0 0
-0.165858 -0.030292 0.201816
-0.224624 0.0671484 0.0239597
0.121767 0.0622121 0.00159991
0.0649495 -0.227081 0.0643979
0.0705961 0.00568003 0.00125334
0 0 0
0.010725 -0.0247304 -0.0464602
0 0 0
-0.330512 -0.0388887 -0.248337
0.0280382 0.0744888 -0.087168
0.0941153 0.130146 -0.0832566
0 0 0
-0.0544149 0.241468 0.0609248
-0.201267 0.124495 -0.0597425
0.38407 0.111404 0.21674
-0.0151211 -0.0106971 0.0640116
-0.181097 -0.250452 0.366322
0.192153 0.0734351 0.419273
0 0 0
-0.087616 -0.0569763 0.219761
-0.270449 0.26847 0.188648
0 0 0
0.0737552 0.0178222 -0.0240636
0.0352217 0.000922784 -0.0371569
0 0 0
0 0 0
0 0 0
0.105512 0.167021 0.170885
0.222777 0.184432 -0.0156926
0.165878 -0.353315 -0.15012
0 0 0
-0.119203 0.170699 -0.0643372
-0.0929291 0.0385268 -0.0186632
-0.145438 -0.236297 0.0336732
0 0 0
0.0589006 -0.167836 0.0800727
0.117213 -0.144983 0.117547
-0.0764941 -0.0344473 -0.0680126
-0.176727 -0.157383 0.329369
0 0 0
0.149504 0.00424966 0.0738459
-0.133714 -0.425987 0.516201
0.0033635 0.0174068 0.0567829
0.0687338 -0.0610203 0.120999
0 0 0
0.0266714 -0.0173777 -0.322647
-0.418186 -0.035967 0.0216289
0 0 0
-0.14236 -0.0649155 -0.22031
0 0 0
-0.309413 -0.000906332 0.0925376
0.166283 -0.451244 0.303706
-0.00019516 0.180273 0.0864603
-0.139309 0.254986 0.144612
-0.0964583 0.119433 -0.210627
-0.186773 0.24621 -0.262497
0.185837 -0.185423 -0.575492
-0.116672 -0.0404488 0.00222581
0.0454459 -0.185354 0.0333364
-0.119566 -0.07396 -0.391776
-0.116151 -0.0643577 0.0358166
0.0864735 0.0932527 0.123228
0.107695 -0.0915697 -0.0972059
0 0 0
-0.298764 0.230803 -0.0424834
-0.0625642 -0.0124594 0.0212443
-0.240012 -0.0699779 0.0643824
0.0573669 -0.39652 -0.307212
0.0307099 -0.0149024 -0.11935
0.0709722 -0.303821 0.0752995
0.0706129 -0.0748946 -0.011637
0.153459 -0.0010559 -0.129706
-0.0541236 0.00144249 -0.0599434
-0.114476 -0.124083 -0.00200142
0 0 0
-0.0348899 -0.179327 -0.19803
0 0 0
-0.0870785 -0.148641 -0.0551164
0 0 0
0.0605677 0.00316677 -0.000304065
0.0616377 -0.0475218 0.236775
0.254925 -0.24179 0.000713716
-0.00895413 -0.0146817 -0.0503585
0 0 0
0.350718 0.499705 -0.145159
0.0280877 0.0156662 0.0298352
0.227087 0.263839 0.0747949
0 0 0
0.075666 0.0836036 -0.0770376
0.289358 0.0672483 -0.343462
0 0 0
0.0653269 -0.142852 0.0685827
-0.151551 -0.240076 -0.151704
-0.0735133 0.00896174 -0.0405933
-0.0717636 0.389687 0.374071
-0.0365731 0.157927 -0.0682948
0.269805 -0.424556 -0.0196461
0 0 0
0.401811 0.107341 -0.19483
0.0209375 0.024958 0.0517127
-0.0488481 -0.0727716 0.484486
0 0 0
-0.541757 -0.349422 0.076804
-0.358152 -0.0570733 -0.144615
-0.286352 -0.226982 0.13472
0 0 0
-0.0347423 -0.0170995 -0.000386964
-0.0166959 0.0287105 0.0390959
-0.42784 -0.436592 -0.325405
0.049436 -0.186207 -0.12731
0.173542 0.168203 -0.0946184
0.0922679 -0.12791 0.312854
0.146809 -0.0186947 0.145462
-0.00513774 -0.0133514 -0.0618032
0.0838166 -0.145698 0.00546906
0 0 0
-0.377651 0.00408044 0.00984197
-0.223017 -0.175455 0.021163
0.00208423 0.360026 -0.0947534
-0.144613 0.293214 0.291162
-0.0314812 0.0943169 -0.0771447
0.286219 0.239766 0.267647
0.121019 -0.0534577 -0.0259807
0.165012 0.00332474 -0.0685172
0.0065731 -0.103152 -0.0773249
-0.00718176 -0.00500419 -0.0721469
-0.281427 0.424188 0.0392289
0 0 0
-0.322481 0.0282405 -0.128589
0 0 0
0.0531715 0.449673 -0.125593
-0.0391993 0.109185 -0.0037484
0.0205739 -0.00289414 -0.00133358
-0.248688 0.0378749 -0.229921
0 0 0
-0.13108 -0.0346994 0.0766841
0 0 0
0.0228931 -0.0377183 0.213565
-0.00126867 0.0711633 0.0637916
0.210217 0.149797 0.241293
0 0 0
0.0338722 -0.213932 0.260622
0 0 0
0.0881755 0.116788 -0.0555114
0 0 0
0 0 0
0.0791315 0.0588555 -0.0694403
0.0189749 -0.00313067 0.026347
0.248921 -0.361838 0.190941
0 0 0
-0.0517075 -0.0296635 -0.000762027
-0.0679347 0.00560065 0.137136
0 0 0
0.305547 0.00234857 -0.201922
0 0 0
0.066096 0.0279897 -0.0245696
-0.204524 -0.67402 -0.121882
-0.0118014 -0.115044 0.0351928
-0.400627 -0.34751 0.363197
0.000390805 -0.0112526 0.0323545
-0.0153779 -0.0694431 -0.000574436
-0.22795 -0.00122715 0.46821
-0.200663 -0.01429 -0.0987793
0.0101434 -0.0652035 0.000695849
-0.0348506 -0.461555 -0.521742
0.0559039 0.080836 0.114831
0.143336 -0.0391746 -0.112644
0 0 0
-4.72022e-05 0.191627 -0.255828
-0.0234304 -0.139111 -0.196704
0 0 0
0.00576051 -0.0769156 -0.00197453
0 0 0
0.0927568 0.138439 0.000746959
0 0 0
0.203286 0.330439 0.0291233
0 0 0
0 0 0
0.204414 0.00698448 -0.00451356
-0.0472068 -0.0365464 -0.00434004
0 0 0
0.0561861 0.040964 0.0879933
0 0 0
0 0 0
0.000653535 0.0183059 -0.124893
0.203665 0.300045 -0.0461849
-0.000243495 -0.0646734 -0.054687
0.13189 0.0368377 0.0681238
0 0 0
0.0979804 0.0855749 0.20971
0 0 0
0.0642204 0.221478 0.150655
-0.128039 -0.241723 -0.0361435
0 0 0
0.176855 0.164315 -0.0280945
-0.0116095 -0.0469574 0.0797739
0.0830246 -0.330055 0.179734
0 0 0
-0.209116 0.210124 -0.187144
0.0332422 0.0705313 -0.00161284
0.185801 -0.0667269 0.0430944
0.141707 -0.0166878 0.253256
0.0698499 0.145678 0.00761279
0.0480054 0.0336584 0.00149723
-0.251081 0.341019 -0.218166
-0.188901 0.0555266 0.146814
-0.0779866 -0.0153402 -0.278554
-0.0116554 0.0587619 0.181495
0 0 0
-0.316457 0.0415131 -0.0267464
0 0 0
-0.000789281 -0.00159265 0.0293471
0 0 0
-0.160108 -0.122392 0.0767465
0 0 0
0.0254395 0.14647 0.00458419
0.00126286 0.0848951 0.0103293
0.0531689 0.164647 0.0119341
0 0 0
0 0 0
-0.00559698 -0.0873632 0.0388418
0.0725337 -0.0087125 -0.02279
0.156248 0.100865 0.0346454
0 0 0
0 0 0
0 0 0
-0.0407521 -0.0799029 -0.0210628
0.228623 -0.364134 -0.030649
0.0281496 -0.0188825 0.00565106
0.0375352 -0.0212897 0.00671355
-0.0152099 -0.0651913 -0.0990609
0 0 0
0.198077 -0.0409442 -0.226586
0.134715 -0.0230526 0.0190359
-0.0424969 -0.0958982 0.0523478
-0.0375061 -0.105665 -0.11837
0.0560788 0.101821 0.0778323
0.237082 0.207672 -0.171482
0 0 0
-0.164118 -0.0503948 0.0378074
0 0 0
0.0650806 -0.0646836 -0.000496284
0 0 0
-0.0529798 -0.43764 -0.174956
0 0 0
0.0452017 -0.133553 -0.148917
0.00574512 0.19569 0.0267815
0 0 0
0.0997711 0.0388123 -0.245122
0 0 0
-0.18364 0.169694 -0.0246966
0 0 0
0.0117592 0.00288655 0.00511725
-0.041348 0.0487905 -0.092166
-0.290021 0.133304 0.326046
-0.0191497 -0.0638628 -0.00744888
0.00845037 -0.0815904 0.23859
0 0 0
0.449115 -0.158446 -0.114655
0 0 0
0.0218447 -0.0477141 0.380527
-0.0829372 -0.108926 -0.12076
-0.101191 -0.0910158 0.0700407
0.0632056 0.149758 -0.0750605
0.00565144 -0.0058403 -0.00602512
0 0 0
0.0204976 0.0350236 -0.116542
0.144564 -0.321122 -0.189221
0 0 0
0.0116938 -0.0104585 0.00192871
0.0112717 0.0472387 -0.0264276
0.298347 0.38638 0.406989
0 0 0
0 0 0
0.369916 0.0221494 0.000405995
0 0 0
0.170685 -0.0327382 -0.158353
0 0 0
0.0289038 0.232392 0.126839
0.188559 0.0105697 -0.223384
0.0710701 -0.0741429 -0.12564
-0.156562 -0.0334438 -0.00265523
0.311641 -0.0140293 0.259586
0.226015 0.000130067 0.280009
-0.00794055 -0.00168029 0.0016437
-0.1613 -0.153934 -0.000308288
-0.0723358 -0.0559218 0.0662323
-0.0422754 -0.0562942 0.136232
-0.277469 -0.0133764 0.150357
-0.11582 0.187625 0.0451147
-0.0768258 -0.0562322 0.041806
0 0 0
-0.0293909 0.272979 -0.0113188
-0.00734533 -0.126401 0.211757
0.254428 -0.176107 0.0938065
0 0 0
0 0 0
0.00106825 -0.20216 -0.123189
-0.187353 -0.214731 0.239224
0.294435 -0.0752613 -0.0697334
-0.00142135 0.00813107 -0.00671493
0 0 0
-0.0520764 0.0361877 -0.0479095
0.232944 0.287122 -0.151929
0 0 0
0.211251 -0.116475 0.149631
-0.0808135 -0.116684 -0.101191
0.0895122 -0.0402022 -0.0671463
0 0 0
-0.0102525 0.282332 0.0138488
-0.0703967 -0.0374694 0.00374899
-0.163934 -0.090669 -0.0161028
-0.316142 -0.39524 0.0309354
-0.000766917 0.0257274 0.08269
-0.157751 0.0042858 0.16175
0 0 0
0.00432669 -0.0605543 -0.000288226
0.0258896 0.0093424 -0.0628871
0 0 0
-0.188384 -0.0076962 -0.0791322
-0.134196 0.084776 0.25484
-0.00990772 0.156631 0.3374
0 0 0
-0.255247 -0.170062 -0.230029
-0.109821 -0.0764465 -0.135892
-0.00833757 -0.0453924 0.0564748
-0.000232712 6.54849e-05 0.0221402
0 0 0
-0.078251 -0.194038 -0.325435
0 0 0
0.255091 -0.542599 0.364109
-0.138239 -0.246515 -0.10836
-0.0299854 0.18687 -0.0374914
0 0 0
0.00537838 0.14292 0.20327
0 0 0
-0.114255 0.00402281 -0.0621708
-0.0748226 0.0317818 -0.176779
-0.165208 0.173473 -0.255215
-0.155403 0.0207206 -0.134353
0.0979438 0.0425612 -0.00102297
0.140864 0.192111 -0.12535
-0.190265 -0.0215988 0.105734
-0.0397444 -0.215601 -0.150853
-0.0648239 -0.0496326 -0.00244738
0 0 0
0.266515 0.117532 -0.351232
0 0 0
0.154415 -0.178504 -0.0886364
0 0 0
0 0 0
0.0452101 -0.0288728 0.0847832
0 0 0
-0.147173 0.400497 -0.334426
0.0288165 0.0736469 -0.305203
0 0 0
0 0 0
-0.000328892 -0.114724 0.00870832
-0.0236979 -0.0709173 -0.394692
0.0100185 -0.053903 -0.0609189
0.0616071 -0.0519219 0.0601491
0.0243291 -0.156433 -0.217142
0 0 0
0.0250507 -0.131756 0.00190958
0 0 0
0 0 0
0.184101 -0.153072 -0.0395569
0.154759 -0.094557 0.0701412
-0.0519833 0.0579333 -0.00241449
0.0673628 0.0014114 0.00349987
0.143732 -0.000704095 0.152197
0.244813 -0.0448972 -0.132984
0.132807 -0.029285 -0.113962
0.327581 0.0634796 -0.111313
0.352484 0.339256 0.158235
-0.00335288 -0.0357382 -0.0309235
0 0 0
0 0 0
0.168923 -0.0210102 0.0892453
-0.00767569 0.196179 0.218041
0.0219595 0.0985394 0.0242358
0 0 0
0.256631 -0.388942 0.319563
0 0 0
0 0 0
0 0 0
0.136851 -0.162109 -0.105814
0.0394039 -0.134043 -0.12904
0.0596224 0.0334793 0.0131258
0.150918 -0.00907783 0.00364422
0.0388766 0.0384676 -0.0287662
0.0728784 -0.517471 0.272462
-0.0203155 -0.101286 -0.021647
-0.0217243 -0.000501926 0.0126949
0.000249118 -0.0232096 -0.00561988
0.151809 -0.305459 0.00125343
-0.162401 -0.256317 0.0399879
-0.122143 0.0622727 -0.118025
0.0348319 -0.181108 -0.0976039
0 0 0
0.100546 0.0423436 0.127525
0.305311 -0.105951 -0.127605
-0.00602057 0.0134471 0.000175899
0 0 0
-0.0450781 -0.0102735 0.134639
-0.00744882 -0.00435215 0.0102494
0.0102272 0.0751178 0.00102174
-0.00831614 -0.0346789 0.00624945
0 0 0
0 0 0
0 0 0
0.0942832 -0.0688926 0.00712707
0.0760928 0.0830859 0.00146368
0 0 0
0.0592503 0.121908 0.0188117
-0.0265651 -0.265876 -0.0229394
-0.0482335 0.00843544 -0.00406101
0.243323 0.197245 -0.191808
0.349223 -0.153259 -0.195385
0 0 0
0.266083 0.395623 -0.107531
0.377899 -0.0697575 0.104749
-0.0459566 0.216292 0.0635481
0.0771624 -0.0517763 -0.240592
0.0649699 -0.068695 0.0154553
0.00141777 -0.0971208 0.208684
0.0465357 -0.312848 -0.0195347
0 0 0
-0.0448859 -0.206676 0.00415425
-0.0831722 0.0792538 0.0939878
0.140126 0.122381 0.0430154
-0.0625415 0.106953 0.0106613
0.0411082 0.137184 0.147064
-0.00434263 -0.00240899 0.101765
0 0 0
0.0126775 -0.0001436 -0.044171
-0.0797906 0.195303 -0.140166
0.00221397 0.14498 -0.291125
0.166584 -0.0407844 0.126376
-0.00730038 -0.0139763 -0.00527556
0.125501 0.344704 0.260572
0.000441854 -0.0679956 0.0620757
0 0 0
-0.12947 0.0808221 -0.0431291
-0.0531201 0.0534696 -0.0131218
0 0 0
0.090101 -0.0247607 0.285802
0.274637 0.413574 0.331063
0.162316 0.34922 -0.258163
0.0803727 0.181011 -0.0538161
0.0195021 -0.0667141 -0.165879
0.518718 0.00556469 0.174679
0.163623 0.282235 -0.0576515
0 0 0
0 0 0
0 0 0
0 0 0
0.0536785 -0.109439 0.13358
0.309411 -0.205299 -0.240975
0.130891 -0.0135337 0.0643153
-0.108102 0.206211 -0.350053
0 0 0
-0.00615935 -0.016501 0.0133785
0.0546482 0.162284 0.0198926
0.0180914 0.00289712 -0.108478
0 0 0
0.0441315 0.233699 -0.0751375
0.114751 0.00191923 -0.0895266
0.121468 -0.0624209 -0.140118
0.192377 -0.0673715 0.0329618
0.00929592 -0.0163824 -0.173026
0.000147952 0.0709694 0.0679118
0.0125662 -0.0532231 -0.068788
-0.295561 0.270293 0.0804106
0.0066757 0.273382 0.332325
0.0533164 0.115664 0.118231
0.277636 0.0635268 0.412823
0.175448 -0.0446309 0.00549856
0 0 0
0 0 0
-0.0100323 0.0213607 0.00141476
0 0 0
0.27929 -0.0894843 -0.230165
0.0933305 0.190814 -0.157808
0 0 0
-0.0310804 -0.312147 -0.230285
0 0 0
-0.16999 0.324364 0.00136146
0 0 0
0.163903 0.231758 -0.145752
0 0 0
0.00132062 -0.0353932 0.000879126
0.0018043 -0.0629598 0.22155
0.0419452 -0.121411 0.0851181
-0.105367 0.0139931 0.187711
0 0 0
-0.114856 0.00707558 -0.203525
-0.130118 0.130817 -0.418851
0 0 0
0.321839 0.318014 0.108728
0.0970761 0.0577623 -0.101436
0.302786 0.306599 0.0561817
0.0898664 0.00616178 0.167764
0.283778 -0.0405587 0.0496051
-0.0134676 0.260007 0.326764
-0.1231 -0.202802 -0.128525
0 0 0
-0.190101 0.262592 0.49737
0.273454 0.0323918 0.0184671
0.151918 -0.125405 0.136778
0.25693 -0.127858 0.0940843
0 0 0
0 0 0
-0.143294 0.169279 -0.278715
0 0 0
0 0 0
0.0162122 0.170265 0.268863
0 0 0
-0.0917543 0.182506 0.085191
-0.0190956 0.0127034 0.0131391
-0.3495 0.111552 0.117555
-0.120966 -0.200802 -0.0187891
-0.0775096 -0.109775 -0.0581861
0.00673864 -0.191937 0.105964
0 0 0
0 0 0
0.0200733 0.00797564 0.0116294
-0.276704 0.226661 0.0261848
0 0 0
0 0 0
-0.0487638 0.0162918 -0.24831
-0.373069 0.0949055 -0.0679091
-0.0568878 -0.222953 0.0684332
-0.122009 0.0788572 0.379104
-0.354705 0.20593 0.463559
0.0362794 0.173065 0.125373
0.020181 -0.323371 0.0660572
-0.0928987 -0.110391 -0.299092
-0.165427 0.000154977 -0.126299
0 0 0
-0.0230856 -0.0653105 -0.0946328
0.0374019 0.034105 -0.12889
0.0877042 -0.0930425 -0.0191079
0.0168829 -0.300148 -0.197815
0.00950565 -0.477482 0.235659
0 0 0
-0.0756766 -0.0499059 -0.0980216
0.251581 -0.0193342 -0.0900258
0.0267983 -0.315056 0.0472451
0 0 0
-0.0923043 -0.0162725 0.205035
-0.00402664 -0.0353558 0.27944
0.122131 0.0387916 0.0996741
0.208574 -0.0879523 0.527552
0.00670328 -0.438936 -0.0548892
-0.00273091 -0.627299 0.142729
-0.0918894 0.325149 0.195684
-0.0467298 0.176232 0.120121
-0.199234 0.0199405 -0.15723
-0.0120998 0.205359 -0.185409
-0.00859652 -0.00449783 0.0807278
-0.048412 0.0489839 -0.286046
-0.104058 -0.37739 0.361992
0.134052 -0.00214241 -0.0214992
0.121616 -0.12093 -0.0137812
-0.204548 0.0706901 0.373003
0 0 0
-0.135133 -0.0737191 -0.0385643
0 0 0
0.0463504 0.259459 -0.550895
0.000499753 -0.0167067 0.0262418
-0.00114594 -0.0503818 0.377977
-0.373923 -0.076095 0.134656
-0.0668837 -0.0523958 -0.0984963
0.0899035 0.267839 -0.190371
0.00348029 -0.011826 0.00518163
0.231965 0.00093052 0.181981
0 0 0
0 0 0
-0.303968 0.206219 0.0763399
-0.18385 0.00747783 0.0408675
0 0 0
0.438086 -0.0617172 0.171448
0.0613952 -0.0160168 -0.176036
-0.0132812 -0.0223654 0.000510196
-0.0271501 0.0548005 0.00215955
0.036985 -0.0855071 0.0446514
0 0 0
0.0341354 -0.0902039 -0.150216
-0.0581572 0.102203 0.148387
-0.02217 0.0845885 0.162495
-0.0830762 -0.163064 0.0105643
0.112887 -0.025066 0.0971114
0 0 0
-0.15376 -0.301847 -0.147947
-0.0931402 -0.410065 -0.493319
-0.0439977 0.185067 -0.206935
-0.0960031 0.000487943 -0.233642
-0.231352 -0.0013305 0.426634
-0.145874 0.130294 -0.042205
-0.00627776 -0.0302472 -0.112424
-0.0285964 0.256346 -0.310036
-0.000324245 -0.114045 -0.118643
-0.0807666 0.231893 0.0703315
0.290165 -0.0624799 -0.211477
0.00121472 -0.0427308 -0.0152819
0.170409 0.0154732 0.16048
0 0 0
-0.0762272 -0.123373 -0.000907384
-0.168093 -0.459629 -0.0911607
-0.488108 -0.232567 -0.0316404
0 0 0
0 0 0
0.0207843 -0.168055 -0.184799
0.0838723 -0.26334 -0.309388
-0.0178067 -0.0114648 -0.00110951
-0.0732788 0.0146631 -0.0166004
-0.190806 0.128096 0.0329541
-0.00508886 0.00673187 -0.00316236
-0.171044 -0.0212233 0.261627
0.352041 0.475305 0.000842466
0.10282 -0.111553 -0.313017
0.0773712 0.0219983 0.0453128
-0.103134 -0.260803 -0.0820684
-0.00103156 0.161455 -0.00991127
-0.287175 -0.105713 0.208547
0 0 0
0 0 0
-0.00811198 -0.00173821 -0.0524581
-0.0142002 0.0622821 0.000104222
-0.119973 -0.0896304 0.0408149
-0.0365353 -0.64171 -0.0091314
0.0505597 -0.0115594 -0.135946
0.522774 0.0220066 -0.0594483
-0.0216841 -0.381746 -0.0516136
0.332385 -0.0327976 -0.0196094
0.519209 -0.0689716 -0.133941
0.340193 0.0468396 -0.0614881
0.52388 -0.178907 0.164574
0.190449 -0.129299 -0.0408144
-0.0480984 -0.141399 -0.0876975
0 0 0
0.151381 0.0189748 -0.0552796
0 0 0
0 0 0
0 0 0
0 0 0
0 0 0
0 0 0
0 0 0
0 0 0
0 0 0
0 0 0
0 0 0
0 0 0
0 0 0
0 0 0
0 0 0
0 0 0
0 0 0
0 0 0
0 0 0
0 0 0
0 0 0
0 0 0
0 0 0
0 0 0
0 0 0
0 0 0
0 0 0
0 0 0
0 0 0
0 0 0
0 0 0
0 0 0
0 0 0
0 0 0
0 0 0
0 0 0
0 0 0
0 0 0
0 0 0
0 0 0
0 0 0
0 0 0
0 0 0
0 0 0
0 0 0
0 0 0
0 0 0
0 0 0
0 0 0
0 0 0
0 0 0
0 0 0
0 0 0
0 0 0
0 0 0
0 0 0
0 0 0
0 0 0
0 0 0
0 0 0
0 0 0
0 0 0
0 0 0
0 0 0
0.125657 0.0154389 0.162112
0.127809 0.16798 0.0595148
0.0011956 0.0335975 0.0393349
0.106096 0.020941 -0.0472784
0.0193462 -0.0553198 -0.0466274
0 0 0
-0.00541344 0.112204 -0.115806
0.00936571 -0.0513048 0.0967549
0.00937975 0.0659367 -0.104656
-0.000165617 0.114111 0.0383328
0 0 0
-0.043733 -0.0046946 0.0415291
-0.0296044 0.0353296 -0.0211184
0 0 0
-0.0348518 0.00345005 0.003814
0.042603 0.178636 0.183181
-0.0336277 -0.125004 -0.168224
-0.0209294 0.0538657 0.00145083
0 0 0
-0.0875666 -0.00118057 -0.0130864
-0.0168819 0.000461421 0.0481662
0 0 0
-0.0294443 -0.00306967 0.141528
0.0730588 -0.287527 0.113445
-0.0024414 0.122597 -0.168853
-0.127503 -0.0614112 0.14296
0 0 0
-0.0142618 0.114846 0.012397
0.0360373 -0.154392 0.0271382
-0.00698429 0.0898022 0.0806894
-0.0612644 0.0316443 -0.0121548
0.0279173 -0.0200626 -0.202751
0.0526261 -0.000755033 -0.0207518
0.0293968 -0.0250919 -7.30541e-05
0 0 0
-0.023818 0.00780539 0.0734862
0.0197046 0.0459036 0.0139556
0 0 0
-0.0755997 0.00447193 0.0669952
-0.00220608 -0.00748664 -0.0172553
-0.019049 0.00265469 0.0322039
0.0521874 0.00391996 -0.061964
0 0 0
0.00402759 -0.00426675 -0.0463408
-0.086546 -0.00243674 -0.109825
0 0 0
-0.00235266 0.12196 -0.0494636
0.0251012 0.0364833 0.0295767
0.0655024 -0.0344012 0.0216863
-0.0769601 0.00362146 -0.0712868
0 0 0
0.211719 -0.0144452 0.0334042
0.0147958 0.00327982 -0.10342
0 0 0
-0.0152687 -0.017775 -0.0962767
-0.00311194 0.0824787 -0.125526
-0.0164737 0.0265871 0.10056
0.0293502 0.000405115 -0.0567913
0 0 0
0.0578035 -0.12472 0.0586776
-0.00610451 0.00123739 -0.0785819
0 0 0
0.0299952 0.0303275 0.0501822
0.00724096 0.00438409 -0.00142616
-0.519881 -0.262117 -0.185987
-0.310133 0.0907305 0.17428
-0.0825312 -0.0536134 -0.404277
-0.0591865 0.0264652 0.18966
0.104718 0.269273 0.0756237
0 0 0
0.0163834 0.294893 -0.118274
-0.136388 0.328329 -0.0363728
-0.128587 -0.158613 -0.118112
-0.0428386 0.11453 0.0453717
0 0 0
0.236777 0.397023 -0.0254905
0.0154863 0.125002 -0.105052
-0.00208801 -0.00158111 0.0128363
0.0636138 0.111294 -0.00158644
-0.000170235 0.0137586 -0.0682095
-0.0174396 -0.110608 0.274973
0.17621 -0.0593093 0.0340784
0.152714 0.0774039 0.152532
-0.0691919 -0.0565683 0.0633614
0.0425117 0.315402 0.327675
-0.000449858 0.0115492 0.0273126
0.0128522 -0.0300474 0.167127
0.0727401 -0.0648172 0.225671
0.12684 0.181679 0.0577493
0.156264 -0.039895 -0.144885
0.15297 0.106614 0.0666245
0.1666 -0.0646453 0.00327473
0.156595 -0.322373 -0.11199
0.131642 0.0174384 0.164724
0.000438158 -0.132843 0.0615342
-0.0672354 -0.0049898 -0.00480717
-0.0136405 0.191606 0.0127591
-0.0945566 0.21903 0.435017
0 0 0
-0.0285663 0.0821874 -0.0377983
-0.0192284 0.300676 0.148334
0.0762572 0.181945 -0.0944418
0.048462 0.120216 0.00337178
0.00163324 -0.0166724 -0.0129127
0.333155 0.65321 0.0384101
0.0716023 -0.0205947 -0.0098609
0.216165 -0.109679 0.337681
0 0 0
0 0 0
-0.091395 -0.0116535 0.00252072
-0.00241002 -0.0898471 0.00646018
0.0123884 0.0304436 -0.000163169
0 0 0
-0.474996 -0.207902 -0.00111261
-0.198175 0.112894 0.259634
-0.204988 0.0791781 0.122892
-0.172504 0.109776 -0.0631048
-0.00607897 -0.0116355 -0.101472
0.172016 0.234527 0.0886479
-0.00147768 -0.100871 0.0914532
0.178876 0.268848 0.00598669
0.00376395 0.270907 -0.213568
-0.00117168 0.256566 -0.114285
-0.0904314 -0.106198 -0.132036
-0.302134 -0.0573278 0.388172
-0.0671414 0.0548904 -0.203574
-0.181654 0.174834 0.105067
-0.168308 0.0727716 -0.0866607
0 0 0
-0.377825 0.0718684 0.0739732
-0.128826 -0.0783546 -0.0764599
-0.154616 0.203297 0.123528
-0.0832562 -0.082475 0.120775
0 0 0
-0.0774101 -0.156761 0.0685824
-0.0210251 0.0689848 0.0646697
0.190447 0.824527 0.0812531
-0.0144432 0.0416795 0.0205487
0 0 0
0.0323363 -0.0487174 -0.119931
0.017387 0.227845 0.372859
0.0305701 -0.018562 -0.0690378
0.063523 -0.508467 -0.156449
-0.307309 0.0489258 -0.227068
-0.0847327 -0.0273879 0.00326135
-0.00748704 0.0173677 -0.0107668
-0.172876 -0.0780599 0.160824
-0.236358 0.0170063 -0.215267
-0.202925 0.309612 -0.147
-0.0232417 0.069513 0.0364846
-0.153197 0.170715 -0.103344
0 0 0
0.110734 -0.113957 -0.508422
0 0 0
0.186705 0.232311 -0.078532
0.348429 -0.124993 -0.111481
0 0 0
-0.000530437 0.136494 -0.0357039
-0.048847 0.155423 0.171273
0 0 0
0.0760885 -0.315243 -0.524811
0.0579715 0.0184708 -0.0193324
0.208374 0.0326274 0.0546706
-0.0162334 -0.0244406 0.131042
0 0 0
0.0225332 0.150394 -0.0394653
0 0 0
-0.145587 -0.0606476 -0.161079
0 0 0
0.103525 0.158852 -0.226147
0.506269 0.173336 0.100165
0 0 0
0.252766 0.00544286 0.088961
0 0 0
-0.0761701 0.0662785 0.117079
0 0 0
-0.0900591 -0.0365421 0.0419157
0.0329368 0.0867632 -0.0747054
0.0586433 0.264504 0.109347
0 0 0
0 0 0
-0.130879 -0.290223 -0.217685
0.0301611 -0.144472 0.00331614
-0.000698681 -0.0459514 -0.00512815
-0.0407717 -0.154072 0.280959
-0.0617631 0.0075727 -0.182451
0 0 0
-0.00541292 0.00451144 -0.00280959
0.110725 -0.00311833 0.214079
0.0712278 0.0827655 0.077917
0.306168 0.0296515 0.168401
0 0 0
0.21357 0.209965 -0.246372
0.0123569 -0.0132109 0.0153399
0.0711041 0.116199 -0.226102