<?xml version="1.0"?>
<VTKFile type="RectilinearGrid">
<RectilinearGrid WholeExtent="0 32 0 32 0 32" Origin="0 0 0" Spacing="1 1 1">
<Piece Extent="0 32 0 32 0 32">
<PointData>
</PointData>
<Coordinates>
<DataArray type="Float32" format="ascii">
0 0.524874 1.04975 1.57462 2.0995 2.62437 3.14924 3.67412 4.19899 4.72386 5.24874 5.77361 6.29849 6.82336 7.34823 7.87311 8.39798 8.92285 9.44773 9.9726 10.4975 11.0224 11.5472 12.0721 12.597 13.1218 13.6467 14.1716 14.6965 15.2213 15.7462 16.2711 16.796 
</DataArray>
<DataArray type="Float32" format="ascii">
-5.03879 -3.62163 -2.20447 -0.787311 0.629849 2.04701 3.46417 4.88133 6.29849 7.71565 9.1328 10.55 11.9671 13.3843 14.8014 16.2186 17.6358 19.0529 20.4701 21.8872 23.3044 24.7216 26.1387 27.5559 28.973 30.3902 31.8074 33.2245 34.6417 36.0588 37.476 38.8931 40.3103 
</DataArray>
<DataArray type="Float32" format="ascii">
0 0.524874 1.04975 1.57462 2.0995 2.62437 3.14924 3.67412 4.19899 4.72386 5.24874 5.77361 6.29849 6.82336 7.34823 7.87311 8.39798 8.92285 9.44773 9.9726 10.4975 11.0224 11.5472 12.0721 12.597 13.1218 13.6467 14.1716 14.6965 15.2213 15.7462 16.2711 16.796 
</DataArray>
</Coordinates>
<CellData>
<DataArray type="Float32" Name="Vector" NumberOfComponents="3" format="ascii">
0 0 0
0 0 0
0 0 0
0 0 0
0 0 0
0 0 0
0 0 0
0 0 0
0 0 0
0 0 0
0 0 0
0 0 0
0 0 0
0 0 0
0 0 0
0 0 0
0 0 0
0 0 0
0 0 0
0 0 0
0 0 0
0 0 0
0 0 0
0 0 0
0 0 0
0 0 0
0 0 0
0 0 0
0 0 0
0 0 0
0 0 0
0 0 0
0 0 0
0 0 0
0 0 0
0 0 0
0 0 0
0 0 0
0 0 0
0 0 0
0 0 0
0 0 0
0 0 0
0 0 0
0 0 0
0 0 0
0 0 0
0 0 0
0 0 0
0 0 0
0 0 0
0 0 0
0 0 0
0 0 0
0 0 0
0 0 0
0 0 0
0 0 0
0 0 0
0 0 0
0 0 0
0 0 0
0 0 0
0 0 0
0.0294733 0.0755247 0.0356021
0.0940824 -0.148734 -0.00739807
0 0 0
0.0797281 0.117037 0.0134154
-0.0307978 -0.0496825 -0.0964758
0 0 0
-0.00326933 0.0173619 0.00306951
-0.0983846 0.0682752 -0.0769252
-0.0802024 -0.0233569 0.0536515
-0.148302 -0.0212722 -0.118845
0 0 0
0.00466119 0.00791274 -0.00326987
0.127784 0.101556 0.0724308
0 0 0
-0.0671739 0.0549078 -0.127379
-0.173154 -0.0282221 -0.164335
-0.144382 0.100872 0.0461998
-0.0204352 0.0153921 0.0297835
0 0 0
-0.00465333 0.061532 -0.002576
-0.0873584 0.152117 0.00945545
0 0 0
-0.0322682 -0.113143 -0.0579993
-0.0165148 -0.0993003 -0.0753555
0.00863279 0.00344457 0.0546859
0.319802 -0.0786401 0.0102912
0 0 0
0.132421 0.0782676 -0.0168539
-0.0138055 0.0743549 -0.0379546
-0.00583734 -0.016768 0.0218053
-0.0511074 -0.151837 -0.0294806
0.0692908 0.039208 -0.0222816
0.0595307 0.0161103 -0.0471868
0.128765 -0.0677986 5.55604e-05
0 0 0
-0.483456 -0.196539 0.000585896
-0.110181 -0.0839494 0.09513
0 0 0
-0.110883 -0.0505296 0.0121989
0 0 0
0 0 0
0.0756316 0.0376302 -0.0144798
0 0 0
0.0967408 0.00735179 0.00141552
-0.01241 -0.161753 0.0240476
0 0 0
-0.0349235 -0.0572346 0.0770645
0.0180774 -0.0898385 0.0817773
-0.0389525 0.0941915 -0.125364
0.0139698 0.0500311 -0.0814916
0 0 0
0.0546404 0.0870353 -0.00401745
0.0402422 0.00972793 -0.0153988
0 0 0
-0.0120069 0.154052 -0.00990774
-0.0475448 -0.0492518 -0.0903582
-0.0526992 0.044611 0.116859
-0.296572 -0.180319 0.0566296
0 0 0
0.0742943 -0.0396773 0.0173972
0.0527222 -0.053408 -0.00530207
0 0 0
-0.00921385 -0.0100964 0.040415
0.0640141 -0.0644459 0.045928
-0.0124 0.127585 -0.113653
0 0 0
-0.338849 -0.44676 -0.245957
-0.205322 -0.358421 0.284883
0.0194585 0.327623 -0.217564
-0.0744669 -0.158714 -0.1345
-0.288201 -0.434381 0.201479
-0.219898 -0.0322003 0.0919737
0.0299337 0.141119 0.110653
0 0 0
-0.166388 -0.140626 -0.427089
-0.197814 0.155737 -0.144219
-0.4898 -0.0035039 -0.0583958
0 0 0
0.0950578 0.120072 0.0773145
-0.114707 0.0861843 0.0421351
0.00241256 -0.0263237 -0.0786585
-0.156552 -0.0468926 -0.0316507
0 0 0
0 0 0
-0.0471842 -0.0331715 -0.0351058
-0.0774176 -0.0172693 0.0370762
0.170898 0.0977919 -0.104
0 0 0
0.0172898 0.0193432 -0.0711031
0.10419 -0.291382 0.122552
0.00250489 -0.00989661 -0.0156357
0.405134 -0.0917825 -0.413165
0 0 0
0 0 0
-0.144149 0.118306 -0.0810845
0 0 0
-0.286635 0.645274 -0.148361
0 0 0
-0.0839425 0.168075 -0.396843
0 0 0
-0.18437 0.121745 0.153571
0 0 0
0.018838 0.00144822 -0.00218078
0.00176393 -0.166789 0.0228957
-0.118284 -0.337524 0.213766
0 0 0
0 0 0
-0.259504 0.166215 0.0216007
-0.140379 0.0918157 -0.111632
-0.0771355 -0.0146658 0.0732506
-0.125321 -0.215501 0.196498
0 0 0
-0.116554 -0.124652 0.117669
-0.216535 0.16941 -0.18185
-0.183158 -0.299953 0.134418
5.59763e-05 -0.00675331 -0.00891223
0.0509167 -0.10992 0.105229
0.136183 -0.27267 -0.0792851
0 0 0
-0.00984357 0.562082 0.000172431
0 0 0
-0.240592 -0.185923 -0.0802855
0.120671 -0.0215671 0.0136439
0.0176631 -0.0283281 -0.0124873
0 0 0
0 0 0
-0.173017 0.184935 0.17426
0 0 0
0 0 0
0.0898898 -0.0447527 -0.120447
0.329442 0.440696 0.217215
0 0 0
0 0 0
-0.272436 0.0402591 0.282191
0 0 0
-0.259639 0.0149227 -0.531007
-0.414705 0.0670177 0.165599
0 0 0
0.0982051 0.138108 0.414584
0.0149502 0.0941291 0.03214
0 0 0
0 0 0
0 0 0
-0.0228783 0.126816 0.217888
-0.0497556 0.0627783 -0.0135041
0.0173665 0.0436369 0.0955884
0.226658 -0.26984 -0.0255643
0.0694215 -0.0571332 -0.0951215
-0.0309542 -0.311237 0.62867
-0.013843 -0.00132736 -0.0034731
-0.0624132 0.0153978 0.000112915
0.0323766 0.0676507 0.0434614
0.218206 0.244376 0.525571
0.0892282 0.16092 -0.121455
0.00731256 -0.0685643 0.0151531
0 0 0
-0.213506 0.253525 0.185953
0 0 0
-0.193049 0.100627 0.00326585
-0.010942 -0.00538043 1.68481e-05
0.00441979 -0.327793 -0.00327508
-0.0649417 -0.000164668 0.00119593
-0.151959 0.477577 0.00215876
0.00179855 -0.0049043 0.0156324
0 0 0
-0.102562 0.115062 0.165301
0.0390642 0.0457083 0.0536328
0.235347 0.0227178 0.397558
0 0 0
0.178348 -0.193887 0.66878
0 0 0
-0.0940429 0.11577 0.223604
0.103963 0.184934 0.223858
0 0 0
0.043173 0.0614043 -0.0214194
0.129976 0.0137109 -0.161982
0.234204 0.259455 -0.0132118
-0.245421 -0.0637057 -0.0965049
0.110809 0.00311293 0.107593
0 0 0
-0.0515699 0.00407914 0.0342765
-0.137958 0.0158429 0.233621
0 0 0
0 0 0
0.110553 -0.165123 0.129118
0 0 0
0.0986405 -0.129985 0.0554673
0.053042 -0.0407395 0.0355395
-0.391763 0.121022 -0.238649
-0.176935 0.0117163 -0.183599
-0.242754 0.204117 -0.00321942
0 0 0
0 0 0
-0.0219815 -0.227782 -0.093527
0 0 0
0.0422131 -0.0646795 0.256866
-0.0297693 0.0249009 0.31024
-0.00751635 0.0960857 0.104974
0.0802081 -0.220822 0.0198887
0.0148157 0.147743 0.024938
0.102898 -0.0905864 0.148062
0.0801039 0.00393929 0.121352
0 0 0
0.110149 0.0979567 -0.00300686
0 0 0
-0.0466139 0.150297 0.0783558
-0.176685 0.267697 -0.114425
-0.133271 -0.102932 0.0298955
0 0 0
0 0 0
0.113837 -0.212273 -0.0307071
0.340345 0.393312 -0.15007
0.0191798 0.0883854 0.207745
0 0 0
0.109711 -0.140856 0.149261
0.162125 -0.0127116 0.0819733
0.0155877 -0.00870748 0.0753161
-0.0325556 0.0848192 -0.046481
-0.317381 -0.0377816 -0.200208
-0.0657357 -0.0258821 0.103515
0 0 0
-0.000133316 -0.408168 -0.116421
0.0517267 -0.114153 0.0518703
0.0173476 -0.0501097 -0.0485498
-0.0071303 0.336629 -0.32263
0.341756 -0.0675848 -0.160347
0 0 0
0.262651 -0.0215148 -0.223054
0.00244963 0.22781 -0.123688
-0.0393926 -0.0667553 0.224427
0 0 0
0.001433 -0.0129804 -0.00857287
-0.0969491 -0.119643 -0.108829
0.00645048 -0.0402885 -0.0991278
0.105005 -0.0275948 -0.00143892
0.0307062 -0.0505408 -0.0489119
-0.181711 0.0827795 -0.0388515
-0.0109496 0.0353329 0.0174958
-0.0191092 -0.00964532 0.0765149
-0.211494 -0.0814572 0.10628
-0.0909721 0.0574215 0.156392
0.03086 -0.228249 -0.0520438
-0.0429306 -0.0858203 0.0393844
0.119385 0.276285 -0.0402701
0 0 0
0 0 0
0.124578 -0.0690065 0.190321
0.0180407 0.00682211 0.1776
0.0788274 0.0510402 -0.0536715
-0.0846472 0.0286414 0.123052
0.165952 0.575442 0.0910033
0.0623743 -0.018279 0.197194
0 0 0
-0.111684 -0.0917962 -0.0195451
-0.249245 -0.11811 0.0218996
0 0 0
0.00945453 -0.00562024 -0.005877
0.0254128 -0.0177854 -0.00445151
-0.120198 -0.385568 0.0856435
0.00203839 -0.132479 -0.290099
0.152915 0.124477 -0.285218
-0.0104734 -0.164138 -0.0249999
-0.286807 -0.155505 -0.528157
-0.353857 0.0215839 -0.109109
-0.321439 0.0987789 -0.0809558
0 0 0
-0.0479006 0.257903 -0.0693734
0 0 0
-0.0415397 -0.00276892 -0.000555071
0 0 0
0.367123 0.272139 -0.0944887
0.151747 0.0212304 -0.0279264
0.227047 0.141284 0.132664
0.000435228 -0.0415721 0.0616553
0.174391 -0.174292 -0.147582
-0.0270095 -0.0127527 -0.0340221
-0.187211 -0.0304144 -0.172709
0 0 0
-0.0927723 0.0703207 -0.161271
-0.144517 -0.0985521 -0.0325811
0 0 0
0.0616631 0.00749923 -0.0927997
0 0 0
0.0263949 0.117302 -0.00213787
-0.00649982 0.0242815 4.15992e-05
-0.104926 0.180642 -0.00346703
0 0 0
-0.0533712 0.0291774 -0.00799527
0.509725 -0.0311393 0.130082
0.00283129 -0.0574295 0.00270354
0.142732 -0.125053 -0.00107309
0 0 0
0 0 0
-0.27096 0.210924 -0.0347279
-0.185225 -0.123055 -0.305492
0.0447545 0.0242207 0.00566564
0.0233829 0.0168367 4.11368e-05
0 0 0
0 0 0
0 0 0
-0.00242942 -0.0242387 0.000440236
0.174996 -0.0224858 0.00406872
0.220352 -0.0181771 -0.0829033
-0.0436317 0.0570929 0.128818
0 0 0
-0.0656456 -0.152152 0.0541445
0 0 0
-0.0435711 -0.0629304 0.0424196
0 0 0
0 0 0
0 0 0
0 0 0
-0.0613317 -0.0844391 -0.0248918
0 0 0
-0.0034052 -0.107527 -0.0964116
-0.36468 0.213868 -0.0745856
-0.0739414 0.0203169 -0.0246215
0 0 0
0.0264247 0.0389328 0.175359
0.18988 0.104401 0.00636627
0 0 0
0.399825 -0.149356 -0.289398
0.0649375 0.109186 0.0985035
0.144764 -0.0260536 0.280741
0.0658342 0.110556 -0.069132
0.156909 -0.161808 0.21823
0.190536 0.362428 -0.137878
0 0 0
0.414536 0.530988 -0.0233155
-0.000511858 0.183994 0.297887
0 0 0
0.404218 -0.214048 0.573451
0.0141289 0.00607152 0.00773971
0.456696 0.0109364 -0.271337
0.0293363 0.0058871 -0.0729526
0.183971 -0.130982 0.323206
-0.0603249 -0.00532853 -6.6661e-05
0 0 0
0.0353044 -0.0981097 -0.163626
-0.184991 -0.406559 0.0904379
0 0 0
-0.0554454 -0.292374 0.480824
-0.045682 -0.35243 0.12042
0 0 0
0.144898 -0.0923045 -0.20205
0 0 0
-0.040707 -0.132725 0.00635795
0 0 0
-0.301087 0.0303507 0.0709078
-0.147698 0.0590679 -0.0161736
0 0 0
-0.177711 0.224481 -0.00546327
-0.260414 -0.289262 -0.324864
-0.129478 0.182914 0.0926742
-0.32663 0.347767 0.148126
0 0 0
-0.10694 0.0392952 -0.03245
0 0 0
0 0 0
0.11498 0.0148897 0.0891313
0.269407 0.0702137 0.221022
0.0978859 -0.162345 0.195738
0.00383569 -0.000434453 0.189989
0.100506 -0.094431 -0.0257869
-0.00273583 0.0132114 0.102324
0.0903292 -0.158118 -0.0961659
0 0 0
0.00183085 0.0136862 0.0609126
0.460307 -0.0790015 0.00513574
0.0739531 -0.0269062 -0.000407806
0.129688 0.0216228 -0.267413
0 0 0
-0.110932 -0.285108 -0.141007
0 0 0
0.13238 -0.0367522 -0.171356
-0.00336717 0.0820748 -0.175369
-0.120531 -0.0468796 -0.105998
-0.0612392 0.0175858 0.00293266
-0.000460119 0.0173562 0.0086699
-0.0619272 -0.0759563 0.0149177
0.174375 0.217247 -0.00706315
-0.0287731 0.0081741 0.0680987
0 0 0
-0.0602899 0.288751 -0.320458
0 0 0
0 0 0
0.091959 0.192615 -0.00222482
0 0 0
-0.00942631 0.129669 0.393699
0.00819034 0.152782 -0.123578
-0.000715925 -0.0386634 0.0587529
0.0391997 0.00288881 0.0696884
-0.00243181 0.0365761 -0.0337942
0.0671541 -0.0343225 0.0663184
-0.114927 -0.0568069 -0.143805
0.105628 0.0676902 -0.0671642
0.264339 0.440949 0.170947
0 0 0
-0.0538875 -0.229706 0.147199
-0.230506 0.0376246 -0.0717936
-0.0839536 -0.0435983 0.512736
0 0 0
0.0222344 0.184085 -0.213414
0 0 0
-0.174853 -0.179425 -0.2529
-0.00322536 -0.148551 0.0810656
0.031656 -0.0491816 0.253662
0.0669264 -0.0209631 -0.127003
0.0688022 0.0667534 0.00122061
0.0445522 0.0946247 0.240832
0.110291 0.274219 0.106213
0 0 0
0.0833196 0.101742 -0.523471
0.0836039 -0.0703816 0.00929746
0.165743 -0.0769353 -0.0108865
-0.167847 -0.0793739 0.137376
0.0913409 0.0814801 -0.113076
0.00690601 -0.0294618 -0.0731564
0.105685 0.30135 0.00425636
0 0 0
0.0374087 -0.0320271 0.0616945
0.0508003 -0.0203535 -0.226671
0 0 0
0.0968441 -0.00916656 0.0641077
-0.0936892 0.123864 -0.0575279
0.160666 0.0852939 0.0909873
0.0191423 0.0936557 -0.0505278
0.0949969 0.134516 0.251861
0 0 0
0.151278 0.044829 0.0994716
-0.184935 0.334633 0.0430743
-0.271973 0.100942 -0.0497914
-0.244807 0.0898707 0.0580498
-0.225421 -0.0913175 0.0193302
-0.0532815 -0.081309 -0.00435523
-0.0173592 0.0201538 0.0829774
0 0 0
-0.146024 0.0531543 0.246536
0.0010713 0.0362788 0.299372
0.0908728 -0.0178878 0.224008
-0.179496 0.228121 0.36449
-0.00230665 0.04386 0.10426
0 0 0
0.00061752 0.011586 -0.0484622
-0.0181328 0.0562619 -0.254503
0.0875172 0.0927134 -0.140386
0.0567346 0.185038 0.511263
-0.00216466 -0.0190243 -0.0431805
-0.257571 0.3538 -0.199245
-0.301126 -0.130291 0.0849564
-0.177339 0.16947 -0.273633
-0.0792164 -0.03326 0.0352763
-0.248142 -0.0653149 -0.0865608
-0.249421 0.455041 -0.18565
0.0105338 0.0401307 0.00702203
0 0 0
0 0 0
0 0 0
-0.357007 0.187673 -0.155279
0 0 0
-0.624493 -0.0165238 0.277384
0.0102554 -0.0347189 -0.00835207
-0.310536 0.318965 -0.237567
0.0680518 0.212176 0.10801
0.0366018 0.235253 0.103817
0.0209987 -0.0485699 -0.0891621
-0.177674 -0.341795 -0.011184
0 0 0
0 0 0
0 0 0
0.0275549 0.27829 -0.222258
0 0 0
0.0377723 0.000377581 -0.07474
-0.00359162 -0.0455512 -0.0507377
-0.275831 -0.141298 -0.189636
0.00216521 0.111673 0.0450356
-0.137112 0.153792 0.145236
-0.00845494 0.0923409 0.081629
0 0 0
-0.279758 0.431062 -0.352416
0.526005 0.0813079 0.197488
0.0804911 -0.166896 0.103285
-0.0136868 -0.376836 0.102031
0 0 0
-0.0161434 -0.0207872 0.00360443
0 0 0
-0.212715 -0.0625539 0.00448524
-0.0112501 -0.0673395 -0.0158005
-0.239575 -0.112934 0.19606
-0.0276177 0.182406 0.00859105
-0.00432316 -0.303531 0.0407132
-0.197005 -0.0692194 0.190007
-0.308605 -0.0690013 -0.503496
0.00363848 0.0584997 0.0430267
0 0 0
0.00904737 -0.110641 0.0495833
0.0175164 0.0814772 -0.0196239
0.00320108 0.0930816 0.000579327
0.0425014 0.127602 0.0523287
0 0 0
-0.110318 0.217112 -0.0170582
-0.00811668 0.0850089 0.0935261
-0.0875598 -0.0392394 -0.147482
-0.0184179 0.0372276 0.0661069
0.067624 -0.0243005 -0.187716
-0.0867163 0.0711323 -0.103266
-0.188038 0.212614 0.0672609
-0.227984 0.0460311 0.0784676
-0.354341 -0.0201214 -0.135402
-0.517738 -0.174105 -0.0679299
-0.442611 0.17723 0.31748
-0.314585 0.193651 -0.095636
0.029706 -0.210603 -0.103631
0.0911558 0.107267 0.00215215
0.0288154 -0.0634609 -0.00295953
-0.0866936 0.0667522 -0.0785469
0 0 0
-0.0931008 -0.0488248 -0.00203263
-0.057063 0.124075 -0.00156146
0 0 0
-0.17878 -0.124714 0.0914753
-0.026328 0.0355579 -0.00205083
0.0788983 0.000730051 0.0427653
-0.0734517 -0.316059 -0.208139
-0.128019 0.163501 -0.141473
0 0 0
-0.260491 0.240947 -0.0628816
-0.0750329 -0.159812 0.139831
-0.201747 -0.0526409 0.0520895
0 0 0
-0.149264 -0.0289455 -0.0278222
-0.118922 0.318597 -0.188463
0 0 0
-0.0287232 0.298266 0.274802
-0.106133 -0.0633627 -0.198312
0 0 0
0.0750607 -0.0418149 -0.0875716
-0.0296932 0.0887229 -0.00110677
0.113441 -0.0103799 -0.184408
0.494226 0.0153564 -0.111444
0.000250312 -0.0393932 0.197049
-0.0594461 -0.0648095 0.15031
-0.165866 -0.0370708 -0.2799
0.00182349 -0.0724446 0.073649
-0.00097459 -0.00948617 0.0649743
-0.00919172 0.0568735 0.283954
0 0 0
0.148708 0.294748 -0.0236103
-0.103957 0.0380781 0.145461
0 0 0
-0.0660424 0.423211 -0.107281
-0.0469204 -0.0579562 0.170795
0.0668037 -0.261466 0.256764
0.1395 -0.0389168 0.122869
0.345301 -0.409813 0.0920028
0.0188864 -0.0496427 0.0810245
-0.0351122 -0.428603 -0.102221
-0.084991 -0.153254 0.296986
-0.0112287 0.0549596 0.00578178
0 0 0
0.0391703 -0.265873 -0.182966
-0.0428107 -0.135177 0.0768963
-0.170332 -0.101053 0.386883
0.000389305 0.114958 -0.0616835
0 0 0
-0.00148057 0.0575902 0.00286108
0.0773522 0.0279242 -0.046162
-0.00274362 -0.173962 0.167625
0.0836844 -0.144207 0.0902941
-0.0502588 -0.195484 -0.0451035
0 0 0
0 0 0
0 0 0
0.0309965 0.0290167 -0.0840094
0.276876 -0.0699457 0.178653
0.234706 -0.0155612 -0.249305
-0.00265659 0.0541247 0.173843
0.0615805 -0.000424463 0.0287885
-0.129069 -0.0662442 -0.200858
0.00484269 0.0031953 0.0242242
-0.0914831 -0.0362773 -0.21842
0.17833 0.140308 0.000853147
0.00173369 -0.0893625 0.0512877
0.135614 0.463867 -0.228339
-0.0433305 0.296846 -0.0804059
0.00754237 -0.00969061 0.00309014
-0.0572076 0.0192138 0.118121
0 0 0
-0.122122 0.336131 0.49009
-0.0237027 -0.03116 0.0332575
-0.199467 -0.0934767 0.0916565
0.120678 -0.0428639 0.0097531
-0.0236512 -0.266846 -0.0219143
0 0 0
0 0 0
-0.410992 0.254662 -0.11269
0.085665 -0.0423894 -0.131963
-0.0607598 0.201662 -0.226039
-0.278968 0.469051 -0.246295
0.221477 0.20616 -0.217739
0 0 0
0 0 0
-0.00385478 -0.0153439 -0.0159731
-0.209 0.0991624 -0.0357825
0.142919 -0.245207 -0.10076
0.0411659 0.0612184 0.120655
0.0809409 -0.0354109 0.00343387
0.0301249 0.0019147 0.0674502
-0.0148673 0.0996849 -0.168719
0 0 0
-0.0834453 0.341597 -0.00319684
-0.0295408 -0.00457022 -0.0580993
0.0354514 -0.32667 -0.0298086
0.0542848 -0.0253943 0.00571871
-0.164233 -0.323779 -0.191127
-0.0417899 -0.104796 -0.144696
-0.324012 0.217826 -0.108508
-0.0188138 0.00513888 -0.0658287
-0.205872 -0.213521 0.286938
-0.0932304 -0.0344459 -0.0710871
-0.13672 -0.0288512 0.137626
0 0 0
-0.12562 0.280134 -0.00201847
0 0 0
0 0 0
0 0 0
-0.0580018 0.0199601 -0.0952374
0 0 0
-0.00318015 0.00173915 -0.00506718
0 0 0
0 0 0
0 0 0
0 0 0
-0.11587 0.00241524 0.167767
-0.00136254 0.255173 0.152534
0.0101545 0.0118157 -0.000125598
0 0 0
0 0 0
0 0 0
0.0430432 0.13153 -0.00167186
0 0 0
0 0 0
0.0130467 0.29233 -0.155792
0 0 0
-0.0833207 0.107596 0.0861867
-0.363565 -0.00210919 0.0293288
-0.114877 -0.531881 -0.203424
0 0 0
-0.0189547 -0.116244 -0.265975
0 0 0
-0.126444 -0.128853 -0.0593985
0.307245 -0.0590985 -0.251816
-0.239546 -0.0490962 -0.119376
0.150641 0.251789 -0.0949129
0 0 0
-0.102349 0.192191 -0.314877
-0.0429848 0.0111747 -0.0769055
-0.100058 0.380954 -0.0440744
-0.068559 0.0278586 -0.004974
-0.069665 -0.0923427 0.106589
0 0 0
0 0 0
0.248609 -0.0671758 0.0288069
0.0221194 -0.0389286 -0.102971
0.079635 0.077392 -0.00988906
0.217042 -0.062071 0.0329442
-0.252608 0.52009 0.00815395
-0.0330982 -0.0959915 0.144442
-0.0638382 -0.150505 0.14979
0 0 0
0.00713357 -0.0892683 -0.0364617
0 0 0
0.179655 0.00865125 -0.112802
0.0120414 -0.00975824 -0.0056207
0.260505 -0.0598146 -0.263761
0.00284534 0.00268869 -0.0036846
0.346121 0.0824272 0.259933
0.0843409 0.038756 0.0954742
0.311689 -0.345865 -0.032574
-0.092074 0.190017 0.00222462
-0.0529225 0.0678348 -0.0770753
-0.019425 0.00242634 -0.00411591
-0.0863265 -0.127749 -0.427156
-0.311806 -0.0565979 -0.159827
0 0 0
-0.265792 0.398234 -0.267996
0 0 0
0 0 0
0.00510852 -0.0790398 -0.0872399
0.0290334 0.0566324 0.18996
0 0 0
0.0207036 0.300408 0.18858
-0.00770838 0.00284172 -0.0088985
0.011674 0.0190274 0.024657
-0.0867754 -0.179224 0.117649
0.00230912 -0.0882794 0.0679608
0.195813 0.0733276 -0.0691088
0.0840508 0.103328 -0.0381788
0.0739478 -0.0829169 0.026714
0.0768254 -0.0359731 0.0486924
0.400286 -0.0976285 0.15327
0.053071 0.0362978 -0.0345063
0.354726 -0.194579 0.173203
0.00707711 0.0343767 0.061701
0.0272883 0.166303 0.160868
-0.135239 0.0522857 -0.134725
0 0 0
-0.0673893 0.292067 0.149492
-0.179301 0.00922524 0.100351
-0.12002 -0.0865258 -0.0271007
0 0 0
0 0 0
0.0178522 0.0925831 0.130622
0.123996 -0.16282 0.117435
0 0 0
0 0 0
0 0 0
-0.114914 0.088995 -0.00104886
-0.0439805 0.00709035 0.00744779
-0.212187 0.135063 -0.366061
0.0145395 0.116793 0.0899327
0.00259116 -0.0306184 0.107405
0.11038 0.00806365 0.431604
0.223273 0.311305 0.0207763
0 0 0
-0.0234909 0.0165513 0.266725
0 0 0
0.117053 -0.000485312 -0.0920282
0 0 0
0.474943 0.170352 -0.245532
0.0732323 -0.107872 -0.0909503
-0.0924354 -0.00612371 0.173534
0 0 0
-0.159914 -0.286702 0.0288616
-0.000228988 -0.146439 0.0871384
-0.400711 0.112791 0.26289
-0.125274 0.11349 -0.127183
0.402337 0.269001 -0.0482442
0 0 0
0.065797 0.041427 -0.0530215
0 0 0
-0.127298 -0.126985 -0.0220052
-0.128332 -0.131249 0.0893277
-0.333899 0.188622 -0.164218
0 0 0
-0.0704989 -0.363401 -0.0614607
0 0 0
-0.392147 0.220941 -0.164188
0.0498731 0.00123093 0.14512
0.0726025 -0.112407 -0.180054
0.185235 0.0558359 -0.00162778
-0.0429221 0.149665 0.0727886
0.00756526 0.249469 0.0660507
0.0533891 0.094679 0.0439112
-0.136834 -0.0437854 0.011252
0.00483345 -0.071476 -0.000756866
-0.0158783 -0.00962062 0.0582003
-0.0499442 -0.0967345 -0.0813525
-0.425422 -0.163117 -0.27308
0 0 0
-0.142377 -0.0486172 -0.21365
0.0444481 -0.0124981 -0.21223
-0.0324232 0.0808429 -0.112265
-0.0180661 -0.173244 0.0199259
0 0 0
-0.0199123 0.0369051 -0.0015575
-0.0267762 0.0244431 0.109001
-0.0258752 -0.106755 -0.0896974
0 0 0
0.0315818 0.108512 0.31913
0 0 0
-0.122948 0.232061 -0.0661777
0.000589899 -0.018273 0.064842
-0.055378 -0.0153849 0.108857
0 0 0
0.0888978 0.14543 0.0475914
0.0228129 -0.0544246 -0.0646592
-0.0767639 -0.287332 0.215479
-0.0583037 -0.0272714 0.161599
-0.0231155 0.0210873 0.0384228
0 0 0
0.253191 -0.173863 0.140512
0.297691 -0.0228188 -0.103585
0 0 0
0 0 0
0.139663 -0.153319 0.0403477
0.0261326 0.088201 0.000223697
0.0405008 0.0507601 0.0455674
0.000636305 0.012692 0.0151776
0.0854831 -0.316258 -0.21918
-0.0630076 -0.10416 -0.0381937
0 0 0
-0.0645732 -0.00562773 0.172575
0 0 0
0.0227677 0.0366703 -0.0403516
0.173621 -0.273582 0.137305
0.00638861 -0.0418169 0.0779324
-0.0995433 0.181542 -0.49881
-0.0349465 0.135989 0.201256
0.182853 0.102789 -0.129521
0.0294863 -0.00712312 0.0162037
0.232689 0.244273 -0.250084
0 0 0
0.117717 0.241196 0.165758
0 0 0
-0.0150145 -0.15884 0.252963
0.164738 -0.173377 0.0790515
0.176808 -0.0833915 -0.0770403
0 0 0
0.0494751 -0.324872 0.135668
-0.137322 -0.111462 -0.276171
0.068432 -0.103314 0.0737278
-0.181593 -0.00217904 0.00013948
0.0896828 0.235539 -0.235202
-0.0144812 -0.0843924 -0.116831
0.00930809 0.00837441 0.0963542
-0.221169 0.407946 -0.188951
-0.147889 -0.037689 0.403518
-0.00589031 -0.00771898 0.00500569
-0.175856 -0.183413 0.0918239
0.02764 -0.108286 0.140858
0.194886 -0.102645 -0.0540853
0.00585971 -0.158418 -0.0677341
0.0890411 0.01267 0.0565255
-0.00591281 0.00537654 0.0935061
0.0133621 -0.17907 0.261793
0 0 0
-0.133225 0.0447918 -0.126725
-0.202677 0.0284216 0.0420392
0.0795608 0.420381 -0.571665
0.0490208 0.0311905 -0.00193549
0 0 0
0.0966999 0.423351 0.310858
-0.00928537 -0.0147198 0.0390885
-0.0658873 -0.35623 0.624345
0 0 0
-0.209761 -0.50519 -0.257224
-0.285583 -0.0355415 0.0601377
-0.0295229 -0.198802 0.018252
-0.260767 -0.0269648 -0.014875
-0.0314615 -0.0450585 -0.220276
-0.235577 -0.0600815 -0.0431202
0.0281532 0.0296113 0.0020101
-0.0754355 0.0435307 -0.00454633
0.0030251 0.13209 -0.215324
0.00752709 -0.00954113 -0.0392139
-0.359174 0.154112 0.685673
-0.175486 0.160636 0.182711
-0.349923 0.131887 0.031727
-0.0860547 -0.297119 -0.173733
0 0 0
0.134328 -0.168354 -0.278227
0 0 0
-0.150462 -0.00709562 -0.189778
0.0604572 -0.116069 0.00194338
0 0 0
-0.169458 0.40444 -0.0387149
-0.0048907 -0.190136 0.197423
-0.091975 -0.10012 0.265237
-0.0108212 0.303347 0.021488
-0.109713 0.00427168 0.0389157
0.0295512 0.0737502 -0.0578732
0 0 0
0 0 0
-0.164885 0.0700076 -0.0524784
-0.137592 0.0391819 0.0888234
-0.0217982 -0.0500975 -0.0925898
-0.228874 -0.0128043 0.221144
0 0 0
0.4131 -0.382436 0.130514
0 0 0
0 0 0
-0.161048 0.258626 -0.415052
0 0 0
-0.457797 0.181368 0.0277084
0.000131513 0.0802505 -0.0337565
-0.0248006 -0.0671085 0.207405
0 0 0
0.0473969 0.0612656 0.133492
0 0 0
0 0 0
-0.12822 -0.0403566 -0.0391801
0 0 0
-0.292082 0.417899 -0.0837835
0 0 0
-0.094472 -0.0120863 0.0053253
-0.0236316 -0.00655902 -0.0297805
-0.0879004 0.408007 -0.294436
0 0 0
-0.20016 -0.00288101 -0.231805
-0.0474134 0.273782 -0.0444389
0 0 0
0.0908071 -0.187667 -0.0738385
0.0133884 -0.15127 -0.0598523
-0.00353595 -0.0103655 -0.0170233
-0.00176501 0.0365873 0.103514
0.0541713 -0.120578 0.0492838
0.00156923 0.168279 0.132233
0.060872 -0.059247 0.215674
-0.0377798 -0.138783 0.502208
0 0 0
0.00122999 -0.0518179 -0.0730409
0.0996068 -0.00300414 -0.000230032
0.153968 0.0993648 -0.0614303
0.112547 0.0833112 -0.154608
0 0 0
0.307131 0.00944983 -0.00395544
0 0 0
0.0471318 0.0562919 -0.00221253
0 0 0
0.128764 -0.00979456 0.161175
0.243377 -0.0044721 -0.00012674
0 0 0
-0.0310303 0.0726502 -0.143935
0 0 0
0.0263266 0.157304 -0.0250225
0.0139634 -0.0917967 -0.140364
0.0171764 0.239546 0.130089
-0.0440183 0.086355 0.112537
-0.0123144 0.207388 -0.0675535
-0.26139 0.102395 0.170534
-0.256343 0.0574454 0.0736446
0 0 0
0 0 0
-0.0972947 -0.164286 -0.109688
0 0 0
-0.258632 -0.272496 -0.198179
0 0 0
-0.0800799 -0.00827424 0.179836
0.09676 0.00826572 0.097403
0 0 0
0.0839051 -0.0799726 -0.0539768
0 0 0
0.157421 -0.0702377 -0.17541
-0.220514 0.00115247 -0.0227663
-0.0261811 0.000477492 -0.208704
0 0 0
0.492319 -0.00758431 0.0620122
0.13773 0.00639263 -0.0637381
0.178328 -0.00439685 0.108871
0.083279 -0.0081553 0.204086
0.0244206 -0.0359957 0.0532118
0.0435087 0.0372071 -0.0493765
0.390879 0.0623082 -0.0521325
0.0409623 -0.117674 -0.253096
-0.0241686 0.250066 -0.00652746
0 0 0
-0.07459 0.0461205 -0.146732
-0.113701 0.0865327 0.254061
-0.378183 0.23319 -0.273036
-0.0119673 0.0243949 -0.0203487
0.0968709 0.150824 0.0110351
-0.170526 0.0169323 -0.161935
0 0 0
0.137989 0.0819736 -0.146503
0.365375 0.0080064 -0.0396691
0 0 0
0 0 0
0.0185801 0.0324794 -0.0611577
0.210362 -0.106749 0.00196656
0 0 0
0 0 0
0 0 0
0 0 0
0 0 0
0 0 0
0 0 0
0 0 0
0 0 0
0 0 0
0 0 0
0 0 0
0 0 0
0 0 0
0 0 0
0 0 0
0 0 0
0 0 0
0 0 0
0 0 0
0 0 0
0 0 0
0 0 0
0 0 0
0 0 0
0 0 0
0 0 0
0 0 0
0 0 0
0 0 0
0 0 0
0 0 0
0 0 0
0 0 0
0 0 0
0 0 0
0 0 0
0 0 0
0 0 0
0 0 0
0 0 0
0 0 0
0 0 0
0 0 0
0 0 0
0 0 0
0 0 0
0 0 0
0 0 0
0 0 0
0 0 0
0 0 0
0 0 0
0 0 0
0 0 0
0 0 0
0 0 0
0 0 0
0 0 0
0 0 0
0 0 0
0 0 0
0 0 0
0 0 0
-0.0315594 -0.0527104 0.113449
-0.116547 -0.0819291 -0.00103688
0 0 0
0.0298814 0.116282 0.0266954
-0.00292982 -0.0320138 -0.0131461
0 0 0
0.00279634 0.133994 -0.158542
0.0026768 0.00229593 0.0603644
0.00944268 0.114074 -0.106879
0.0329749 -0.0344047 -0.191678
0 0 0
0.0760016 0.0232666 -0.0775068
0.0997332 0.147056 -0.0218405
0 0 0
0.0317051 0.157083 0.0906848
-0.0622885 0.196546 0.0429898
-0.0631094 -0.191694 -0.150692
-0.125051 -0.0317465 0.0922998
0.0047428 -0.0699838 0.0724661
0.203677 -0.0968928 -0.064127
-0.0319281 0.0028334 -0.0130656
0 0 0
-0.0694317 -0.0675496 0.0397211
-0.0294439 0.0947536 0.122631
-0.012853 -0.0744825 -0.16184
-0.102158 0.0461716 0.0133932
0.00116301 -0.0040571 0.00915025
-0.127036 0.0235754 0.116777
0.0888188 0.0424562 -0.0542082
0 0 0
0.0319271 -0.0629159 0.0982429
0.131562 0.0706464 -0.03439
0.0296939 -0.0873556 -0.0996217
-0.0144197 0.00297664 -0.107939
0 0 0
-0.0118113 0.0120233 -0.00363095
0.0142754 -0.0795304 0.0641978
0.00209429 0.0220859 -0.129713
0.0322646 0.00234933 0.0646968
-0.0209273 -0.226941 -0.18705
-0.0245903 0.240791 0.23311
-0.0625934 -0.0146288 -0.0271701
0 0 0
-0.0608489 0.00981024 0.0192031
-0.144508 -0.00291566 -0.11935
0 0 0
0.113871 0.0392785 -0.0658246
0.113178 0.0591137 0.131853
0.0700699 -0.0545846 0.0303853
-0.0161789 -2.23841e-05 0.0623099
-0.00630855 -0.00140594 0.00729535
-0.04404 0.00787818 0.00395034
-0.016626 0.031589 0.0419232
0 0 0
0 0 0
-0.0349989 -0.0636941 0.111782
0.00272686 0.0779481 -0.0920393
0.17243 0.0176489 0.00574072
0.0309051 -0.190519 0.17713
0.104533 0.276156 -0.157534
0 0 0
0 0 0
-0.0134956 -0.0281201 -0.0137538
-0.0367192 0.0879371 0.000834126
-0.0778716 0.512305 0.0858465
-0.136575 -0.0629372 -0.0906454
0 0 0
-0.15519 -0.0443242 -0.000719808
-0.140894 -0.0218448 0.0370073
-0.0112587 0.202329 0.26907
-0.375136 -0.220453 0.258613
-0.0189499 0.05439 0.203539
0 0 0
0.38951 0.224188 0.323219
0 0 0
0.0367962 0.0598444 -0.213355
0.0180181 -0.0384083 0.0860649
0.00151346 -0.127242 0.0846754
0 0 0
0.241299 -0.0288415 -0.119628
-0.00703709 0.0584072 0.118525
-0.0829221 -0.00998668 0.0709204
-0.057594 -0.125927 -0.0982556
0.414247 0.255641 -0.025235
0.336969 0.470976 -0.0524595
0 0 0
-0.0364434 0.204124 -0.114911
0.176362 -0.101016 -0.48394
-0.0019286 -0.0425872 -0.0418897
-0.00996176 -0.00511974 0.0173684
0 0 0
-0.0761749 0.0193875 -0.0257971
-0.364804 -0.0181422 -0.257888
-0.0353688 -0.202194 -0.173071
-0.034147 -0.0342146 -0.0795576
0.0414779 0.182387 -0.243256
0 0 0
-0.0220712 0.0304591 0.0188686
-0.102742 0.0907265 0.0762529
0 0 0
-0.000288483 -0.000101881 0.00449691
0 0 0
-0.316772 0.276115 -0.402785
0 0 0
-0.0965981 0.284033 0.0010429
-0.00203784 -0.0935095 -0.0136788
-0.148273 0.326016 0.0129922
-3.4758e-07 0.0308972 -0.0145771
0.193187 0.0324065 -0.280806
-0.00695817 0.00964345 0.0129626
0.35181 -0.235222 0.0487241
-0.0168364 -0.0503409 0.0216365
0.00162154 -0.134761 0.0612189
0.086049 -0.0916667 -0.198006
0.0218845 -0.0883878 -0.194127
0.203345 0.0359187 -0.18108
-0.0106848 0.0834989 -0.019685
0.30306 -0.545293 -0.514976
0.00385041 -0.162506 0.233687
-0.371806 -0.0143034 -0.0225727
-0.0165405 0.00137225 -0.00120977
-0.0355072 0.0789474 -0.522914
0.0633137 0.0229255 -0.0738481
-0.0387383 0.123788 0.0138002
0.345852 -0.22808 0.260327
0.0177975 -0.0033329 0.0382263
0.316361 -0.47273 0.272074
0.139687 0.147911 0.363615
0.161558 0.105619 -0.328019
0.0241127 0.0431929 0.289119
0.0058631 -0.0453431 0.0212808
-0.232811 0.411637 -0.0236894
-0.0218171 -0.0648388 0.0974035
-0.0103055 0.000338516 0.016369
0.0107133 -0.0160252 0.0170537
0.0170298 -0.172957 -0.111595
0 0 0
0.00524992 -0.00441883 0.00787034
0.128537 0.0539073 -0.14639
0 0 0
0.260421 -0.336124 -0.416356
-0.00111142 0.215993 0.0267106
0.0323983 0.316165 -0.144462
0 0 0
-0.0838384 0.00327395 0.031662
0.0685822 0.360732 0.1145
0 0 0
0.030768 -0.085299 -0.00373664
0.0088447 0.389482 0.401233
-0.00220671 -0.060945 0.0126603
0.158107 0.16087 -0.187094
0 0 0
0.0639307 0.0127767 0.0212427
0.112229 -0.139714 0.122493
0 0 0
0 0 0
0 0 0
0 0 0
0.0533229 0.274328 0.00115285
0 0 0
0.0862684 0.260739 -0.159945
-0.0355953 0.13609 -0.145812
0 0 0
0.157535 0.115805 0.100367
0.0652175 -0.0148646 0.0549797
0.0820403 -0.0320149 0.100837
0.15141 -0.0504963 0.00312458
-0.085382 0.139861 -0.0326678
0 0 0
-0.328989 -0.405602 0.262808
0.104624 -0.165788 0.200042
0 0 0
0.139034 -0.0917966 0.0986232
0.172789 -0.200266 0.0888643
0.167363 0.132319 -0.138435
-0.127295 0.21829 -0.371832
0.000596511 -0.132562 -0.0716012
0 0 0
-0.118166 -0.0238795 -0.0111396
-0.0276456 -0.13708 0.132846
-0.0280732 0.117868 0.142125
0 0 0
-0.230427 -0.159894 0.297379
-0.0279744 -0.0758461 -0.0553006