<?xml version="1.0"?>
<VTKFile type="RectilinearGrid">
<RectilinearGrid WholeExtent="0 32 0 32 0 32" Origin="0 0 0" Spacing="1 1 1">
<Piece Extent="0 32 0 32 0 32">
<PointData>
</PointData>
<Coordinates>
<DataArray type="Float32" format="ascii">
0 0.524874 1.04975 1.57462 2.0995 2.62437 3.14924 3.67412 4.19899 4.72386 5.24874 5.77361 6.29849 6.82336 7.34823 7.87311 8.39798 8.92285 9.44773 9.9726 10.4975 11.0224 11.5472 12.0721 12.597 13.1218 13.6467 14.1716 14.6965 15.2213 15.7462 16.2711 16.796 
</DataArray>
<DataArray type="Float32" format="ascii">
-5.03879 -3.62163 -2.20447 -0.787311 0.629849 2.04701 3.46417 4.88133 6.29849 7.71565 9.1328 10.55 11.9671 13.3843 14.8014 16.2186 17.6358 19.0529 20.4701 21.8872 23.3044 24.7216 26.1387 27.5559 28.973 30.3902 31.8074 33.2245 34.6417 36.0588 37.476 38.8931 40.3103 
</DataArray>
<DataArray type="Float32" format="ascii">
0 0.524874 1.04975 1.57462 2.0995 2.62437 3.14924 3.67412 4.19899 4.72386 5.24874 5.77361 6.29849 6.82336 7.34823 7.87311 8.39798 8.92285 9.44773 9.9726 10.4975 11.0224 11.5472 12.0721 12.597 13.1218 13.6467 14.1716 14.6965 15.2213 15.7462 16.2711 16.796 
</DataArray>
</Coordinates>
<CellData>
<DataArray type="Float32" Name="Vector" NumberOfComponents="3" format="ascii">
0 0 0
0 0 0
0 0 0
0 0 0
0 0 0
0 0 0
0 0 0
0 0 0
0 0 0
0 0 0
0 0 0
0 0 0
0 0 0
0 0 0
0 0 0
0 0 0
0 0 0
0 0 0
0 0 0
0 0 0
0 0 0
0 0 0
0 0 0
0 0 0
0 0 0
0 0 0
0 0 0
0 0 0
0 0 0
0 0 0
0 0 0
0 0 0
0 0 0
0 0 0
0 0 0
0 0 0
0 0 0
0 0 0
0 0 0
0 0 0
0 0 0
0 0 0
0 0 0
0 0 0
0 0 0
0 0 0
0 0 0
0 0 0
0 0 0
0 0 0
0 0 0
0 0 0
0 0 0
0 0 0
0 0 0
0 0 0
0 0 0
0 0 0
0 0 0
0 0 0
0 0 0
0 0 0
0 0 0
0 0 0
0.00599731 0.00235147 -0.0854296
-0.148892 -0.184037 -0.0695638
0 0 0
-0.071289 -0.15975 -0.00851171
0.119696 -0.116412 -0.17217
0 0 0
-0.071936 0.051571 0.0246978
0.0460718 0.0846891 0.126292
0.0383674 0.115326 -0.103392
-0.124829 -0.07061 0.00299913
0.000785956 0.00840988 0.00592181
-0.178789 0.169049 0.026473
-0.297741 -0.129376 0.0549216
-0.020323 -0.0671787 -0.000409589
-0.145656 -0.0406936 0.0455763
-0.0233418 0.178632 -0.0407755
-0.0247772 0.0727787 0.0263323
-0.0232278 0.222605 -0.0379858
0 0 0
0.174397 0.0182953 -0.00817848
-0.16803 -0.118724 -0.249209
-0.0527886 0.0168317 0.0218915
0.131573 -0.307776 -0.00280107
0.0769165 0.0286189 0.132204
0.0407865 0.0616761 -0.0581065
0.030915 0.267524 0.00572297
0 0 0
0.182733 0.162516 0.0133118
0.102765 -0.101471 -0.132138
0 0 0
-0.00325408 -0.161254 -0.0616643
-0.00306291 0.0317632 0.0872028
0.0978845 -0.448602 -0.184664
-0.025089 0.0218375 0.0597548
0 0 0
-0.0687519 0.0310368 0.000973155
-0.045572 -0.143341 0.0630125
0 0 0
-0.157106 0.0616703 0.0440643
0.0170602 -0.0465256 0.0181395
0.0176959 0.00116789 0.00356366
-0.294161 -0.187545 -0.0255048
0 0 0
0 0 0
0.217595 0.101122 0.00649519
0 0 0
-0.106883 0.0104613 0.00181437
-0.134213 0.23318 -0.156078
-0.137315 0.142947 0.119119
-0.0968781 0.0296527 0.0470379
0 0 0
-0.159762 0.0639377 0.0040488
0.0388846 0.0678363 0.127412
0 0 0
-0.00381713 0.320211 -0.0289207
-0.000811355 -0.034746 -0.075909
-0.00560091 0.0506176 -0.0378708
0.339589 -0.0460253 -0.0113602
0 0 0
0.00217315 0.00778593 -0.0481992
-0.0766977 0.112714 -0.0449756
0 0 0
0.176849 -0.0560228 0.101681
0.144041 0.087546 0.140033
-0.0129015 -0.01551 -0.0091243
-0.0905906 -0.0507871 -0.0249277
0 0 0
0 0 0
-0.0484379 0.0240528 -0.1731
0 0 0
0.00227626 -0.272486 -0.090204
-0.0167275 -0.056951 -0.0439893
-0.0237873 0.0679158 0.0268593
0 0 0
0.119581 0.0786855 0.0327064
0.173725 0.179877 0.221382
0.00229842 -0.198278 0.00166561
0.077684 -0.156002 0.386994
0 0 0
-0.00716483 0.0019509 -0.00380127
-0.353102 0.316929 -0.189395
0.0199198 0.0258493 -0.0162703
0.0394603 -0.201802 -0.077397
-0.00916399 0.0915334 0.124551
-0.195291 0.0729352 -0.067478
-0.0307335 0.396554 0.212683
0 0 0
0.101945 -0.063373 0.0970976
-0.00686776 0.148792 -0.0651737
-0.0342216 0.344586 -0.0464744
0 0 0
0 0 0
0.243534 0.0895481 -0.00126103
0 0 0
-0.160478 -0.153245 -0.158051
0.105333 0.13591 -0.00835191
-0.00032439 -0.00398521 0.0173508
-0.0518226 0.0809298 -0.0183928
0 0 0
-0.0749456 -0.238405 -0.0162265
0.00363467 0.0749902 -0.013851
-0.0432284 -0.135795 -0.11313
-0.0674484 -0.0991249 -0.597734
-0.236808 0.44468 0.0651369
0 0 0
0.0303638 0.00548599 -0.18091
0.00240089 0.0428695 -0.274167
0 0 0
-0.160306 -0.283489 -0.170504
0 0 0
0 0 0
0 0 0
0.0239844 -0.00585762 -0.000225123
0 0 0
0.820014 -0.103266 -0.182529
0.51971 0.0614919 0.109352
0.391032 0.340861 -0.107321
0.253298 0.0263111 0.0440188
0.0938377 -0.268863 -0.0418639
0 0 0
-0.00249106 -0.074265 -0.151252
-0.1265 0.51521 0.196919
-0.00910848 0.0250061 -0.0243251
0.280458 0.442441 -0.218199
-0.0358445 -0.0581909 0.0346406
0.282193 -0.0221193 0.341383
0.0119932 0.00753322 0.0761073
-0.0127793 0.10418 -0.00100129
0 0 0
0.249866 -0.110631 -0.381358
0.02016 0.0076594 -0.079544
-0.00889024 -0.0481265 -0.346428
0 0 0
0 0 0
0.124263 0.286497 0.112229
0.194098 -0.062734 -0.180785
0.110053 -0.102257 0.181199
0.0570843 -0.307192 -0.0453275
-0.053545 -0.167516 -0.0536589
-0.041815 -0.0517999 -0.101006
0 0 0
0 0 0
0.0790946 -0.0128206 -0.225237
0.0297414 0.151156 -0.0229782
0.338189 0.033624 -0.435856
-0.00366697 -0.22727 0.000375508
0 0 0
0.0337699 -0.291598 0.130258
0.200907 -0.123617 0.123227
0.261037 0.186598 0.145265
0.0288115 0.712776 0.168625
0.107881 -0.0600972 0.179328
-0.0726104 -0.360346 -0.168599
-0.379982 -0.498379 -0.17498
-0.00301617 -0.137222 -0.0701887
0.0249057 -0.0296445 0.0337817
-0.0179373 -0.100977 0.158472
0.0503143 0.269976 0.421661
-0.0136349 0.0144302 0.0207348
0.0181153 -0.0107805 2.14024e-05
0 0 0
-0.0629099 -0.476774 -0.202228
0 0 0
-0.114027 0.0722117 -0.0678545
-0.000979592 -0.0112172 -0.0533052
0.169489 -0.194316 -0.307479
0.026985 0.0238492 0.110101
0.0611868 -0.260771 0.150026
-0.136564 -0.0282957 0.145499
0 0 0
0 0 0
0.207817 0.113998 -0.187506
0.145999 -0.0346803 0.223977
0.102925 -0.0744069 0.082944
0.0436861 0.0147047 0.16504
0.0217556 -0.125169 -0.364466
0.0290712 -0.000495282 0.0234849
0.0112696 -0.0875498 0.207465
-0.166563 -0.0160116 0.118886
0.0585376 -0.117702 0.152313
-0.406655 0.0148314 -0.0194574
-0.0359913 0.0172693 0.0405676
0 0 0
0.0572204 0.241252 -0.0525644
-0.079515 -0.0994672 0.0509432
0.0461409 -0.252549 0.0290498
0 0 0
0.00682638 0.137783 -0.278826
0 0 0
0.146769 -0.149574 -0.39091
-0.00251717 -0.0645353 0.286904
0.372619 -0.236087 0.179041
0 0 0
0.00064738 -0.013946 -0.0587429
-0.011734 -0.0631291 0.0016936
0.0661686 -0.164113 0.154014
0 0 0
0.0658067 0.0279824 -0.0310298
0.0821552 -0.176707 0.297216
0 0 0
-0.011873 0.287368 0.151702
5.16651e-06 -0.004715 0.0286344
0.00838948 -0.23451 0.0821312
-0.109547 -0.301232 -0.055463
-0.171698 -0.00951559 -0.00705896
0.00429297 -0.0300913 -0.256576
0 0 0
0.0688093 -0.184793 0.160773
0.0930576 0.0231801 0.0664498
0.291004 -0.0512027 0.182153
0.237814 -0.0509218 -0.0589104
-0.00104054 -0.00829826 -0.0163859
0.0504944 0.0631508 0.0231274
-0.0844574 -0.368112 -0.152708
-0.142606 -0.218807 -0.148691
0 0 0
0.192047 -0.215248 -0.155198
0.0605629 0.0524218 0.00242986
0.233783 -0.0043035 0.0332096
0.0698033 -0.00388656 -0.0656429
0.0162164 0.0859188 -0.0978124
0 0 0
0.0526356 0.174332 0.435706
0 0 0
-0.13623 0.00240828 -0.0972954
0 0 0
0.0278801 0.0365753 0.0604911
0 0 0
-0.158428 -0.236665 -0.130901
-0.050664 -0.229719 -0.181879
-0.124621 -0.19025 -0.103739
0.018305 -0.00280554 -0.00109119
-0.00249159 0.000263734 0.007495
0.0322404 0.196407 0.0145686
0 0 0
0.180195 -0.253204 -0.47235
0 0 0
-0.0284456 -0.149991 0.00480788
0 0 0
-0.180329 -0.134386 -0.41169
0.00207541 0.0378191 -0.0700987
-0.0467777 -0.0383791 -0.176455
0.139165 -0.105295 0.519707
0.13706 0.0156943 0.0389761
0.00151279 -0.0900575 0.0851471
0.285602 -0.195746 -0.178119
-0.0266657 0.00655276 0.0153549
0 0 0
0 0 0
-0.00539943 0.00946591 0.00470025
0.132226 -0.680565 0.0694212
0 0 0
0 0 0
0 0 0
0.277421 0.185207 -0.115395
0.00130192 0.00751641 -0.13232
0.00436933 0.0509789 -0.103447
-0.000105717 0.139869 -0.0038508
0.208281 -0.0442078 0.0181037
-0.0115705 -0.0172459 -0.0703571
0.257861 -0.102418 -0.167767
0.190505 -0.0639558 -0.188601
0.113703 -0.123655 0.135919
-0.154847 -0.163228 -0.154807
-0.0400703 0.00470502 -0.0594315
0 0 0
0.243263 -0.0279242 0.525643
-0.00745116 0.714683 -0.0865823
0 0 0
-0.0783896 -0.0273566 0.215965
-0.525945 -0.105228 -0.192363
-0.0614271 0.0527655 0.214255
-0.195606 -0.0158335 0.0315869
-0.000346191 0.0460371 -0.00717775
0.0532031 0.253201 0.256699
0 0 0
0.295927 0.0508078 0.00190559
0 0 0
0 0 0
0.0200898 -0.111296 0.0539685
0.0149657 0.0772886 -0.00276736
0 0 0
-0.00502983 0.0104682 -0.0429905
0 0 0
0 0 0
0.0947811 0.0476759 -0.074368
-0.0429703 0.0633354 0.0231013
0 0 0
0.0989557 0.119408 -0.631506
0 0 0
0.00620648 -0.11827 -0.110098
0.00275659 -0.0533644 0.0592234
0.0546701 -0.00289157 -0.00165978
0 0 0
0.128647 0.200861 -0.481059
0.0924934 -0.0462516 0.0233592
0.0635569 -0.135118 -0.283525
-0.0160158 0.00040967 0.0352956
0 0 0
-0.0397597 -0.231683 -0.118203
0.0489068 0.188279 -0.119788
0 0 0
0 0 0
-0.0478803 -0.0222154 0.096036
-0.266036 -0.0101148 0.00833303
0 0 0
0.0299889 0.477692 -0.0781307
0.109183 -0.017727 -0.0870101
0.174949 -0.183673 -0.367073
0 0 0
-0.0511215 -0.318254 0.0931718
0.128693 -0.0803213 -0.134729
0.0647506 -0.0302748 0.184662
-0.0136678 0.0695657 -0.0687682
-0.00606088 0.05761 -0.00168909
-0.00118263 0.0982035 0.050347
-0.174121 0.0883972 -0.0937863
-0.0284441 -0.167729 0.0469117
-0.069726 0.100575 -0.132644
0 0 0
0 0 0
-0.229315 0.0194727 0.0303126
-0.115849 -0.55492 -0.0374575
-0.246051 0.336419 0.0827328
-0.113611 -0.362266 0.0139601
-0.243784 0.0323745 0.00168741
-0.00882939 -0.0130761 -0.0164494
-0.150442 -0.0537363 0.0218281
0.000618077 0.0609107 -0.0154726
0.265897 -0.167429 -0.385246
-0.0174594 -0.00762277 -0.00139076
0.187863 -0.162236 -0.305866
0 0 0
0 0 0
-0.400866 -0.344871 0.0635098
-0.355007 0.0684851 -0.232793
-0.265623 0.0528476 0.220418
-0.348291 0.150789 0.00964785
-0.029627 -0.0966106 -0.265345
0.375262 0.056997 -0.0422404
0 0 0
0 0 0
-0.0579324 -0.219938 0.0180012
-0.152907 -0.305454 0.0392099
0.171852 -0.105867 -0.109326
-0.0160618 -0.119498 0.216816
0 0 0
-0.286174 0.0875162 -0.046553
-0.0935634 -0.0257091 0.0923638
-0.00304522 -0.188353 0.241501
-0.0560492 0.273521 0.0151268
-0.0860863 -0.137893 -0.0916977
-0.159089 -0.0271941 -0.135905
-0.13959 0.0110341 -0.105381
-0.189817 -0.413607 0.234407
0 0 0
0 0 0
-0.000303274 0.133443 -0.0391458
-0.047296 -0.234587 0.164764
0 0 0
0.188682 -0.228466 -0.197596
0 0 0
0 0 0
-0.20945 0.126142 -0.12693
-0.0426799 -0.00822762 0.0354698
-0.0815136 -0.0464734 -0.191548
0.0011994 0.0762439 0.0164703
-0.107011 0.265919 -0.286557
0 0 0
0.284645 0.0376955 0.0936565
0 0 0
0.00397483 0.421192 -0.131845
0.157467 -0.117328 -0.213522
-0.12045 0.059146 0.0790061
-0.352548 -0.00571227 -0.182176
-0.077253 -0.0215862 -0.195537
-0.0326048 -0.187214 0.111001
-0.113647 -0.446386 0.134956
0.00102408 -0.0332171 0.110403
0 0 0
0.0391841 -0.0936895 -0.00177499
-0.0744791 -0.308869 -0.0518718
-0.00309883 0.147129 0.261093
0 0 0
-0.382784 0.0121494 -0.153045
0 0 0
0 0 0
0.0297422 0.130169 0.00133328
0 0 0
0 0 0
0.112447 -0.0536248 0.107291
-0.06524 -0.0227019 0.0364834
-0.400521 -0.576659 0.0373136
-0.0594223 -0.0819367 0.19993
-0.228152 0.20033 0.00680766
0 0 0
0.0480699 0.143058 -0.251609
0 0 0
0.00189079 -0.00350701 -0.0463148
0.0801943 0.0301341 0.028344
0.0440691 0.0143631 0.0458233
0.105315 -0.0382265 0.108321
0.0638403 -0.456647 0.0750483
0.163454 0.124701 -0.033207
-0.0366009 -0.0318492 -0.047392
-0.0628697 0.398093 -0.65147
0 0 0
-0.0755482 -0.233968 -0.0783605
0.00544301 -0.606303 0.140489
0.0834567 0.126974 -0.228087
0.00203748 0.05468 0.252074
-0.0448873 -0.192033 0.527266
0 0 0
-0.0943828 0.0179762 0.0229798
0 0 0
-0.0156399 -0.0118813 0.00507217
-0.0237997 -0.0532973 0.0253513
0 0 0
0.0390241 -0.212262 0.0560169
0.000422828 -0.124156 0.0563742
-0.0569086 -0.160452 0.0873161
9.82943e-05 0.0340221 -0.138683
0.0341162 -0.256076 -0.486998
0.0630834 0.17929 0.185026
0.073913 0.119571 0.368128
0 0 0
-0.0499241 -0.00510413 0.175317
0 0 0
0.0689687 0.0679803 0.0787543
0.523941 0.0077424 -0.0791586
-0.0276707 0.219574 0.0833793
0 0 0
0 0 0
-0.129231 -0.0387466 0.180497
-0.0420002 0.0240847 0.0988449
0.261405 0.0787589 0.45758
0 0 0
-0.0212766 0.655504 0.0953967
0 0 0
0.0217066 -0.0747826 -0.245855
0.0335048 -0.0949113 -0.140235
0.0563055 -0.381137 0.181221
0 0 0
0 0 0
-0.00339564 -0.127836 0.109315
0.179109 -0.131026 0.160979
0 0 0
0 0 0
-0.108865 0.0017245 -0.0799583
0.10899 -0.0110735 -0.183269
0 0 0
-0.0530168 0.400178 0.214504
-0.0580865 0.0166735 0.0740071
0.00488252 0.0853765 -0.362201
0 0 0
0 0 0
-0.039029 0.170451 -0.215189
0.030393 0.062034 0.0062373
-0.232696 0.160893 -0.0786032
0 0 0
0.0795899 0.254377 -0.034096
0 0 0
0 0 0
-0.190574 0.197355 -0.144869
-0.0586824 0.0537816 0.0657556
0.0294417 0.0145598 0.117923
0.0361796 -0.0273218 -0.138165
0.0865346 -0.0346572 0.161629
-0.071713 0.284554 0.204046
-0.0892896 0.0911339 0.0654776
-0.000977426 -0.0934162 0.000154419
0.0347833 0.651271 0.48129
0 0 0
-0.318062 -0.105152 -0.125519
-0.373737 0.0180622 -0.0468803
-0.500524 -0.0820767 -0.00274254
-0.388505 0.139993 -0.160995
0.166387 -0.093161 0.0741574
0 0 0
-0.00407729 0.0395852 -0.00951963
-0.0632923 -0.0227483 -0.00833874
0 0 0
0.0196331 -0.439927 -0.00800844
0.0160819 0.0630074 0.124116
-0.510045 -0.0265078 0.0515573
0 0 0
-0.269295 0.293999 -0.0879376
-0.0137597 0.0110686 -0.0108577
0.00326178 0.230144 0.0113211
0.187618 -0.0266159 -0.292722
0 0 0
-0.121994 -0.139774 0.00903073
-0.453319 -0.17797 -0.342814
0.0478878 -0.204214 0.266496
-0.00221627 -0.115692 -0.14642
0 0 0
0.0344782 -0.0536618 -0.0727011
0.0725173 0.0643175 0.0221439
0 0 0
0.0158807 -0.0475216 0.000324965
-0.00189123 -0.0608501 -0.0248138
-0.0419177 -0.352631 0.199677
0 0 0
0 0 0
0.017665 0.0444202 0.0946496
-0.117125 0.00168676 0.165965
-0.314317 -0.100762 0.188576
-0.112918 -0.706515 -0.0460618
0 0 0
-0.00437818 -0.00933499 0.0741708
-0.0553747 0.118842 -0.0107246
0 0 0
0 0 0
-0.192342 -0.180781 -0.233525
0.0484003 -0.0331654 -0.116406
0.0962067 0.125227 -0.481722
0.0015789 0.200138 0.14973
0.046741 -0.145338 0.255309
-0.246129 0.103457 -0.117178
-0.0123467 0.0342735 0.0660499
0.0910696 -0.0250703 0.171524
0.0453267 -0.0150735 -0.0605726
0 0 0
0.124189 0.0148612 0.384059
0.0307243 0.0151206 -0.0149794
0.01543 -0.0943697 0.237658
0.00039489 -0.0798062 -0.256096
0.0418913 -0.117748 0.482424
0.00607706 -0.0745211 -0.173359
0.136888 -5.59609e-05 0.205047
-0.0430019 -0.056529 -0.0187041
0 0 0
-0.0572302 0.0719159 0.107765
0.27534 -0.0938352 0.13892
0.146845 -0.11627 -0.133763
0.0678496 0.0279098 0.00349152
-0.0516865 0.0431878 0.222681
0.066805 0.018853 0.169277
0.0581791 -0.216502 0.204553
0.0181797 -0.0580638 0.0179983
0.152085 -0.00432826 -0.179468
0.4339 0.640246 -0.0688368
0.163774 -0.0225348 0.0225418
0.14192 0.220258 0.172223
-0.0680889 0.231101 -0.279344
0 0 0
0.0931264 0.661217 0.0677902
0.00228282 -0.0964904 -0.0649284
0 0 0
0.0437984 0.248712 0.0929716
0.484548 0.483602 0.023211
0.0841903 0.0378278 -0.0153295
0 0 0
-0.0278821 0.241964 0.400019
0.11612 -0.082721 0.105297
0.0580948 -0.0889208 0.0135812
0 0 0
-0.0555875 -0.0115382 0.0174824
0.0189866 -0.144191 -0.0781628
-0.107601 0.130128 -0.134443
-0.177773 0.0942053 -0.00133965
0.029188 -0.02839 -0.0848766
-0.0504359 -0.0231285 -0.000328311
0 0 0
0 0 0
0 0 0
0 0 0
0.0455885 -0.078805 -0.124645
-0.0177713 -0.0362564 -0.0124408
0.153835 0.18345 -0.099556
0 0 0
0 0 0
-0.0192991 -0.118388 0.199272
0.0978229 0.0864666 0.0804134
-0.0845587 0.0314796 0.0950754
0 0 0
0.0411344 0.0177899 0.00594942
0.178361 -0.000836591 -0.259704
0.0142668 -0.00147212 -0.0103488
0.0382989 0.0414983 0.116208
0 0 0
0 0 0
0.0443051 0.0681913 0.0719712
0.0271687 0.0745287 -0.29618
0.0263442 0.0193556 0.00810854
0.0648313 0.297045 0.151889
0.070887 -0.0625497 0.0339388
0.125341 -0.0310503 -0.00198196
0.0540954 -0.0615918 0.142479
0.129951 0.0666167 -0.234078
0.111901 0.0276322 0.0886213
0.0273381 0.00195512 0.0742381
0.0333479 -0.106397 -0.00974157
0.0332823 -0.279966 -0.161943
0.0892788 -0.666672 0.221893
0 0 0
0.209119 -0.113408 0.21922
-0.0835779 -0.201945 -0.000573355
0 0 0
0 0 0
0 0 0
-0.00764922 0.161765 -0.274212
0.00205719 0.048179 0.0444459
0.269733 -0.00776591 0.00927091
-0.0485996 -0.052824 0.0317747
-0.0451773 -0.272195 -0.226667
0 0 0
-0.00913482 -0.00160407 -0.0518035
0 0 0
0 0 0
-0.000936047 0.0042013 0.000483364
-0.150407 -0.147637 -0.251889
0 0 0
0.0619966 0.0264142 0.113982
0.0218284 0.0110728 -0.0118632
-0.0610109 -0.0242364 0.169577
0 0 0
0 0 0
0 0 0
0.0332406 0.0464313 0.258785
0 0 0
-0.0195484 -0.022876 -0.000239833
0 0 0
-0.0613572 0.249262 -0.0766371
-0.100946 -0.171404 -0.038937
-0.078685 0.041026 0.0385707
-0.121069 -0.0407347 -0.181848
0 0 0
-0.0560363 -0.0789576 0.179165
-0.0549287 -0.0205565 0.0746024
0.00733951 -0.00114159 0.00919085
0 0 0
-0.00294592 0.23062 0.073743
-0.158035 -0.0559628 -0.263679
0 0 0
-0.0970916 -0.00161289 0.236633
-0.100679 0.104495 -0.00185537
0.0348141 0.0222292 0.000241588
0 0 0
0.309638 -0.144795 0.290795
-0.237065 0.00408193 -0.295493
-0.05052 -0.00228842 0.0379533
-0.0940305 0.0221371 -0.0108771
-0.264311 -0.545757 -0.0833891
0.0457763 -0.0455215 0.0450083
-0.14592 0.0387694 0.182075
0.0552186 0.128915 0.527475
0 0 0
0 0 0
-0.0447914 0.0425356 0.0313076
0.0830464 -0.00245496 -0.0487663
-0.0646119 0.2673 0.0187428
0 0 0
0 0 0
0.0261909 0.198186 0.01412
0 0 0
-0.0626107 0.16375 -0.0325953
-0.020247 0.00236172 0.00286449
-0.125586 -0.0998926 0.0659899
-0.166202 0.0795383 -0.0636157
0 0 0
0.351922 -0.137859 0.189188
0 0 0
-0.102292 0.163075 -0.00234394
0.0178056 -0.0158613 0.0204733
0.552435 -0.0352589 0.0653569
0.134004 0.465918 -0.0394016
0.0276692 -0.00249485 0.0221172
0.0021374 -0.383871 0.0674168
0 0 0
-0.251562 -0.0623639 -0.0228868
-0.135054 -0.112591 0.0606247
0 0 0
-0.305101 0.0311859 -0.000278787
0.0194271 -0.208571 0.33194
0 0 0
-0.0233961 0.396896 0.131323
0 0 0
-0.00232895 -0.0660299 0.0196181
0 0 0
-0.12005 0.226767 -0.286947
0.117763 -0.0807161 -0.000123669
-0.131046 0.0604042 -0.0643962
0 0 0
0.120265 0.0435877 0.0191729
-0.21521 -0.132425 -0.214247
-0.144032 0.108074 0.0296005
-0.339726 -0.0245475 0.231134
-0.149617 0.0766823 0.0851118
0 0 0
0 0 0
0.104703 -0.329109 0.197829
-0.00234271 -0.00275965 0.0211106
-0.0507775 -0.143864 -0.241891
-0.0752004 -0.187384 -0.418953
0 0 0
0 0 0
-0.0390443 -0.0445276 0.129873
0.0122113 -0.070065 0.100553
0.0692439 0.0154428 -0.160514
-0.0769379 0.11375 0.0621462
-0.0207637 -0.000582071 0.000225836
-0.352235 -0.118356 0.246377
-0.264724 -0.0644041 0.0392416
-0.21204 0.000955748 0.0142691
0 0 0
-0.0713405 -0.0172456 0.00172231
0 0 0
0 0 0
-0.274521 0.211887 0.327554
-0.262684 0.260861 0.00325669
-0.0738134 0.220593 0.396591
0.0432276 -0.211641 -0.0774172
0 0 0
0 0 0
-0.045164 0.123779 0.203038
0 0 0
-0.00553175 0.0624598 0.103606
0.371764 0.13402 -0.0847651
0.419733 0.186549 0.207781
-0.0376484 -0.0322637 -0.00144522
0.38591 -0.465025 -0.176404
0.0257526 0.0180967 0.0116127
0.134528 0.0202401 -0.26232
0 0 0
-0.0321033 -0.38525 -0.101929
0.00466616 -0.00040282 0.000885003
0.0947576 0.0444463 -0.00272027
0.00113444 0.0299713 -0.0876524
0.0965344 -0.185137 -0.182023
-0.018741 0.130538 0.0162795
-0.110211 -0.0697892 -0.142158
-0.00136983 0.116042 -0.0582721
-0.0919457 0.0618497 0.0597097
0 0 0
0 0 0
0.456447 0.0497576 -0.00506172
0 0 0
-0.0295343 -0.069951 -0.0265429
-0.177818 -0.0490853 -0.150187
-0.0909341 -0.113539 -0.0255324
0.057053 0.132955 0.0999695
0 0 0
-0.183708 0.0255103 -0.079615
0.0433595 -0.164742 0.0723605
0.0504771 -0.0404699 0.0256696
0 0 0
-0.02926 0.0456344 0.0466792
-0.0511447 -0.0765325 -0.171599
-0.0347342 0.229127 -0.00138975
0 0 0
0.0664916 0.0220122 -0.173634
0.180918 0.359437 -0.38962
0.0161987 -0.0119237 -0.0311246
-0.0738814 0.0368663 0.00185868
0 0 0
0 0 0
0 0 0
0.0189978 -0.086856 0.137481
0.0394085 -0.00148334 0.0484524
0.154136 -0.110145 0.0276786
0 0 0
0.25767 -0.226805 0.468926
0 0 0
0.235626 -0.227678 -0.0995831
0 0 0
-0.131755 -0.344834 -0.14125
0 0 0
0.10552 -0.00667059 -0.110635
0 0 0
0 0 0
0.106845 0.148522 0.224181
0.0391617 -0.00740165 0.0015903
0.0509658 -0.100791 -0.0882378
0 0 0
0.0957675 -0.0672306 -0.0940511
0.00139475 -0.00276795 -0.139989
0.071587 -0.134575 -0.0526248
0.024815 0.0672229 0.123908
0.0660855 0.0567519 -0.12363
-0.0593506 -0.369756 0.102688
-0.102159 -0.292582 0.346858
0.426156 0.0289893 0.244741
0.0351145 -0.00718076 0.0345953
0 0 0
-0.0871764 -0.280728 0.0237125
0 0 0
-0.105396 0.211663 0.00271648
0.214015 0.102759 -0.0573069
0.155855 -0.0123914 -0.0616849
0.229363 -0.181087 0.0409158
0.116502 -0.058475 -0.0432842
0 0 0
0.0351503 -0.142518 -0.0607625
-0.182139 -0.285783 0.132648
0 0 0
-0.0242407 -0.259721 -0.319824
0.0595382 -0.193681 -0.050671
0.14397 0.029153 0.181065
0.069208 0.175788 -0.0640389
-0.0507186 -0.0838282 0.266935
0 0 0
-0.0170249 -0.0581853 0.143439
-0.272204 0.0946618 0.169932
-0.00149822 -0.000314782 -0.0023955
0.00635983 -0.177791 0.201074
-0.0140196 0.0186664 0.00506378
0 0 0
0.0294493 -0.0543762 -0.335884
0.170483 0.216386 0.404944
-0.0739649 -0.066908 -0.235116
-0.000872031 0.00553332 0.0337924
-0.0217166 -0.0920856 0.131536
-0.252504 -0.219688 -0.140074
0 0 0
-0.0765283 0.26066 -0.167755
0 0 0
0.250216 -0.278658 0.051063
0.00824718 -0.00840671 -0.046446
0.0995897 -0.0418339 0.16437
0.0229017 -0.16049 -0.102311
0.0543233 -0.237174 0.0285595
0 0 0
0.0981175 -0.194062 0.209803
0.265307 0.0210624 0.0194347
0.243575 -0.0920403 0.136462
-0.102372 0.059381 0.0826289
0 0 0
-0.0482626 0.0549666 0.0287681
-0.00519986 -0.230071 0.137138
-0.118034 -0.518898 -0.0562908
0.00618317 0.00400478 -0.0117182
-0.0814568 -0.143607 -0.0650808
-0.334587 0.133013 0.211333
-0.0962677 -0.00190591 0.0191465
0 0 0
0 0 0
0 0 0
-0.12771 -0.0161318 0.0336863
-0.260174 -0.170075 0.255332
-0.0355008 -0.0205928 0.130136
0 0 0
0 0 0
-0.14096 0.0422495 0.025264
0.00802105 0.00160882 0.0067337
0.214294 -0.177835 0.0945796
0.161626 -0.0550833 0.085538
0.206375 0.34081 -0.0457331
0.0561753 0.161807 0.0649916
0.10934 0.0668193 -0.141839
-0.0622142 -0.203858 -0.039165
0 0 0
0.098276 -0.130029 0.0874636
0.346917 0.118414 -0.0205329
0.116632 0.269817 -0.215983
0 0 0
0.00218623 -0.283446 0.127434
0.233019 -0.180925 -0.171812
0 0 0
0 0 0
0.108533 0.0654997 0.00313411
0 0 0
0 0 0
-0.276456 0.414776 -0.179433
-0.203215 0.264834 -0.260134
-0.0540688 0.00522639 -0.104404
0.115382 -0.199351 -0.27109
0.00145198 0.0862447 -0.0972384
0.303813 0.0513106 -0.0554041
0 0 0
0.0235251 0.0665179 0.363322
-0.0510094 9.71185e-05 -0.047343
-0.110091 -0.0283347 -0.096785
-0.11857 0.0356761 0.0031921
-0.0230893 -0.123139 -0.147455
0 0 0
-0.000540381 -0.0415073 -0.00258046
0.012583 -0.0512094 -0.0140326
0.0366122 0.224743 0.0773803
0 0 0
-0.0215603 -0.0054911 -0.073654
0.00576308 0.0210232 -0.0961036
0.404869 0.0695241 -0.425531
0 0 0
0.0010134 0.015018 0.00198874
0.0604643 0.0249709 -0.00126893
0.187045 -0.00446107 0.0801905
0.00343823 0.0839973 -0.00864044
0.0980512 -0.0455959 0.285379
0.00110252 -0.0777569 0.00278386
-0.0565138 -0.115074 0.341413
0.0272191 -0.171666 0.0544217
0.120732 -0.0969568 0.170894
0 0 0
0 0 0
-0.173108 -0.0105805 0.00284735
-0.158196 0.00826939 0.115962
-0.0791578 -0.0343987 0.0476196
0 0 0
0 0 0
0.249403 -0.372155 -0.18998
0.0976685 -0.351263 -0.270005
0.288013 0.0781079 0.203307
0.360682 -0.0954466 0.0436112
0 0 0
0.0171586 -0.00824748 -0.11526
-0.00122339 -0.151585 -0.0752736
-0.0480276 -0.100819 0.109504
-0.430537 0.0480755 -0.258694
-0.064914 -0.168601 -0.0231902
0 0 0
-0.11432 -0.0802704 -0.0868618
0.105467 0.035093 -0.000412854
0 0 0
9.22285e-06 -0.077566 -0.0291009
0.307458 0.178306 0.0021618
0.263042 0.311663 -0.134097
0.172697 0.162073 -0.0893371
0.218568 0.524594 -0.0210953
-0.000314854 0.0443326 0.0465239
0.0302139 -0.0364986 -0.226666
-0.00374687 0.287943 -0.0634224
0.143803 -0.04571 0.0552688
0.226392 -0.134453 0.0400442
0 0 0
-0.110594 -0.00366753 0.00409816
0 0 0
0 0 0
-0.041509 0.0370801 0.00259594
-0.0295726 0.0594831 0.278281
-0.0501741 -0.281645 0.146577
0.0125044 -0.0623147 0.0700169
0.158299 -0.0655959 0.0473485
0.202314 0.0351273 -0.181641
0.0488659 0.0157565 0.00779423
0.0832038 -0.0406765 -0.203917
0.078051 0.025317 -0.115205
0.356221 0.0784927 -0.167284
0.0187933 -0.191023 -0.0326958
-0.117262 -0.20945 -0.202899
-0.0832156 0.0891025 0.123827
-0.24723 -0.00364057 -0.321292
0.0750468 -0.0344211 -0.177876
-0.179212 -0.189464 0.170152
0 0 0
-0.305454 0.0652515 -0.114669
-0.0101218 0.00170587 -0.0786237
-0.264454 0.0871214 0.0529269
0.00054727 -0.202985 0.168197
-0.0933323 0.365148 0.088778
0.0995732 0.11342 -0.0162865
-0.17588 -0.00132239 0.222131
-0.0314509 -0.0201072 -0.0204049
-0.00223967 -0.0915334 0.00526851
0.0487348 0.014749 -0.0516887
-0.0326456 0.0849146 -0.105536
-0.00484132 0.0325869 -0.00562528
-0.00289622 -0.041708 -0.0697294
0.0157375 0.0165404 -0.123553
0 0 0
0 0 0
0 0 0
0 0 0
0 0 0
0 0 0
0 0 0
0 0 0
0 0 0
0 0 0
0 0 0
0 0 0
0 0 0
0 0 0
0 0 0
0 0 0
0 0 0
0 0 0
0 0 0
0 0 0
0 0 0
0 0 0
0 0 0
0 0 0
0 0 0
0 0 0
0 0 0
0 0 0
0 0 0
0 0 0
0 0 0
0 0 0
0 0 0
0 0 0
0 0 0
0 0 0
0 0 0
0 0 0
0 0 0
0 0 0
0 0 0
0 0 0
0 0 0
0 0 0
0 0 0
0 0 0
0 0 0
0 0 0
0 0 0
0 0 0
0 0 0
0 0 0
0 0 0
0 0 0
0 0 0
0 0 0
0 0 0
0 0 0
0 0 0
0 0 0
0 0 0
0 0 0
0 0 0
0 0 0
0 0 0
0.0265837 0.0259665 0.32626
-0.0776495 0.02371 -0.213936
-0.00109443 0.0137351 0.0254113
0.20363 -0.00242983 -0.102957
0.171528 0.116497 0.0244021
-0.00749639 -0.0547087 -0.0340709
0.0369132 -0.0322367 0.0214383
0.0227103 0.101796 -0.00485616
-0.00316662 -0.12036 -0.0856247
-0.153958 0.0087619 -0.088976
0 0 0
0.077784 -0.0652995 0.101959
0.0163781 -0.0595292 0.0526741
0.00380867 -0.02483 0.0169757
-0.0989067 0.0506138 -0.00978062
0.0134839 0.0698352 0.0837067
0.0320342 -0.0739649 -0.00100521
-0.0210027 0.0648004 -0.0447377
0 0 0
0.0967335 0.0328773 -0.0464348
-0.0306956 -0.0392619 -0.151878
-0.00610748 0.0125697 0.0614158
0.0103906 -0.0878652 0.00879505
-0.0225766 -0.106705 0.222187
0.00515392 0.124315 -0.205448
-0.0163264 0.0621969 0.102448
0.00400064 -0.00553621 0.0405713
0.0397583 0.00598868 0.0661186
-0.0368694 0.0250404 -0.0171957
0 0 0
0.0766448 -0.0240925 -0.132211
-0.0603443 0.0926173 -0.241995
-0.0222796 0.0388372 0.0204475
-0.00406255 -0.0144853 0.0109315
-0.000590855 -0.00660664 -0.0354999
-0.0859382 -0.00245704 0.0450157
-0.007812 -0.07158 -0.220275
-0.00612903 0.0409231 0.098481
-0.075414 -0.0171745 0.0155018
-0.0150972 0.0472536 0.207069
-0.00445976 -0.0318615 -0.104621
0.433477 0.00124406 0.279198
0.00117257 0.000388446 -0.0369138
-0.0515075 -0.00735968 0.0387801
0.0540757 -0.0203454 -0.00402357
-0.0394246 -0.00158835 -0.0342683
0.0636441 0.0333589 0.0320911
0.012421 -0.0637496 -0.0577132
0.0131367 0.00794934 -0.0174194
-0.0175743 0.20535 -0.104932
0 0 0
-0.0592099 -0.00176339 0.163066
-0.00403985 0.195169 0.0366655
-0.00705312 -0.0834051 -0.00261164
-0.0147839 0.000493857 -0.0014279
-0.0846722 0.157888 -0.305046
0.011216 -0.124844 0.269834
0.0192937 -0.00133219 -0.166013
-0.00389975 0.036496 -0.133075
0.0536971 -0.0738788 0.157949
0.110661 0.0565048 -0.10413
0 0 0
-0.107247 0.00689193 0.037083
0.0183347 0.0504559 0.0214415
-0.25968 -0.437337 0.221481
-0.319701 -0.00448209 0.0704959
-0.185582 -0.0721029 -0.351219
0.113815 0.0385017 -0.239459
0.0756712 0.270652 0.0891727
0 0 0
-0.320389 0.00511409 0.082493
0 0 0
-0.260016 -0.156917 -0.144285
-0.118984 -0.2988 -0.292362
0.0935271 -0.0524885 0.332816
0 0 0
-0.0358892 0.0621228 0.222606
-0.0838907 -0.124751 0.39896
0.399334 -0.16554 0.121968
0.125917 -0.01967 -0.171138
0 0 0
0 0 0
-0.0956263 -0.225178 0.240303
-0.0442793 -0.0604228 0.172006
0.0542145 0.108249 0.347271
-0.00175677 -0.119651 0.164602
0.0399702 0.063447 -0.00716389
-0.0618882 0.287109 0.0335367
0 0 0
-0.249975 -0.260289 0.149211
-0.222271 -0.0870534 -0.140074
-0.194099 -0.178335 -0.353167
-0.0693674 0.0137936 0.139452
0.306424 -0.307543 0.331832
0.037715 -0.0384976 -0.073178
0.0347543 0.152337 -0.415486
0 0 0
0.204912 0.0868916 -0.0383322
0.148714 -0.263834 0.00514162
-0.0720676 -0.0952235 0.120078
0.0273789 0.0269217 -0.000961911
0 0 0
-0.0232117 0.0569459 -0.0397187
-0.352076 -0.165577 0.0859611
-0.336486 -0.434866 -0.506353
0 0 0
-0.0562872 0.108203 0.25064
-0.0946812 0.00849986 -0.337519
0.0333518 0.0480164 -0.0173286
0.00301593 -0.107674 -0.128851
-0.139558 -0.431123 -0.362275
0.109481 0.216251 -0.179969
0.346693 0.0432864 -0.23381
0 0 0
0.484959 0.487454 0.125217
0.000953568 -0.0046083 -0.0162339
-0.0228959 -0.00265522 -0.00564139
-0.385689 -0.0158802 -0.0412246
0 0 0
0.196267 -0.202722 -0.172888
-0.000535136 0.0504256 0.139822
0.151021 -0.0749004 0.0255244
0.172066 0.348038 -0.313159
0 0 0
-0.0943753 -0.00277932 0.123695
0.000736106 -0.187807 0.203258
0.0197347 0.201678 0.0418716
0.0378768 0.0746181 0.0332602
0.944366 -0.165464 -0.0921274
0.34357 0.209489 -0.080587
0.0220355 0.0138163 0.000745346
0.157521 0.151332 -0.0811176
0 0 0
0.353927 -0.143119 -0.103992
0.0517396 0.0275196 0.0604933
0 0 0
0.10039 0.269563 -0.146193
0 0 0
0.475158 -0.0159833 -0.401698
0.0206381 -0.0591467 -0.12907
0.392207 -0.0146093 -0.385689
0.269997 -0.253974 0.0934659
0.385842 -0.331173 0.160606
0 0 0
0 0 0
-0.0468457 -0.0569294 0.300441
0.000688481 -0.0678847 -0.0794141
0.0936913 -0.144745 0.104302
0.0176215 0.0375481 0.103954
0.0784341 0.266903 0.335469
0 0 0
-0.16348 -0.180828 0.369443
0 0 0
0.112694 0.00721258 -0.0249246
0 0 0
0.276936 0.378169 0.134315
-0.00129119 -0.0129848 -0.00103828
0.139935 0.0137802 0.00152718
0.2474 -0.00860964 0.330053
0.147548 -0.100125 -0.0560609
0.0743771 -0.310061 0.0144085
-0.128876 -0.102423 0.0591039
0 0 0
0.0610155 -0.231962 -0.306228
0 0 0
0.00302445 -0.322233 -0.0593691
0 0 0
0.0128139 0.0212926 0.158606
0.121587 0.2064 0.0101622
0.284558 -0.107282 0.0272555
0.258611 -0.202641 0.27898
0.0160189 -0.209382 0.244952
0.0709864 -0.00976927 -0.0847705
0.500484 0.0186368 0.0519636
0.0843189 -0.073255 -0.0289076
0.104329 0.056292 -0.0799108