<?xml version="1.0"?>
<VTKFile type="RectilinearGrid">
<RectilinearGrid WholeExtent="0 32 0 32 0 32" Origin="0 0 0" Spacing="1 1 1">
<Piece Extent="0 32 0 32 0 32">
<PointData>
</PointData>
<Coordinates>
<DataArray type="Float32" format="ascii">
0 0.524874 1.04975 1.57462 2.0995 2.62437 3.14924 3.67412 4.19899 4.72386 5.24874 5.77361 6.29849 6.82336 7.34823 7.87311 8.39798 8.92285 9.44773 9.9726 10.4975 11.0224 11.5472 12.0721 12.597 13.1218 13.6467 14.1716 14.6965 15.2213 15.7462 16.2711 16.796 
</DataArray>
<DataArray type="Float32" format="ascii">
-5.03879 -3.62163 -2.20447 -0.787311 0.629849 2.04701 3.46417 4.88133 6.29849 7.71565 9.1328 10.55 11.9671 13.3843 14.8014 16.2186 17.6358 19.0529 20.4701 21.8872 23.3044 24.7216 26.1387 27.5559 28.973 30.3902 31.8074 33.2245 34.6417 36.0588 37.476 38.8931 40.3103 
</DataArray>
<DataArray type="Float32" format="ascii">
0 0.524874 1.04975 1.57462 2.0995 2.62437 3.14924 3.67412 4.19899 4.72386 5.24874 5.77361 6.29849 6.82336 7.34823 7.87311 8.39798 8.92285 9.44773 9.9726 10.4975 11.0224 11.5472 12.0721 12.597 13.1218 13.6467 14.1716 14.6965 15.2213 15.7462 16.2711 16.796 
</DataArray>
</Coordinates>
<CellData>
<DataArray type="Float32" Name="Vector" NumberOfComponents="3" format="ascii">
0 0 0
0 0 0
0 0 0
0 0 0
0 0 0
0 0 0
0 0 0
0 0 0
0 0 0
0 0 0
0 0 0
0 0 0
0 0 0
0 0 0
0 0 0
0 0 0
0 0 0
0 0 0
0 0 0
0 0 0
0 0 0
0 0 0
0 0 0
0 0 0
0 0 0
0 0 0
0 0 0
0 0 0
0 0 0
0 0 0
0 0 0
0 0 0
0 0 0
0 0 0
0 0 0
0 0 0
0 0 0
0 0 0
0 0 0
0 0 0
0 0 0
0 0 0
0 0 0
0 0 0
0 0 0
0 0 0
0 0 0
0 0 0
0 0 0
0 0 0
0 0 0
0 0 0
0 0 0
0 0 0
0 0 0
0 0 0
0 0 0
0 0 0
0 0 0
0 0 0
0 0 0
0 0 0
0 0 0
0 0 0
0.068172 -0.272726 -0.0334856
0.121958 0.0374427 0.0257733
0 0 0
-0.226536 -0.162967 0.0559165
-0.0525718 0.0275769 -0.090213
0 0 0
-0.0428704 0.00781689 -0.000753235
-0.0625219 -0.0338427 -0.0506806
-0.133802 -0.131959 0.0448622
0.154504 0.0840563 -0.0753201
0 0 0
0.0988544 0.144041 0.0739851
-0.227625 0.103231 0.0061717
-0.00585598 -0.0148198 0.00528452
-0.19592 -0.0397362 -0.0760277
-0.0117313 0.0397833 -0.111355
-0.0666914 -0.000365128 0.0604202
-0.332019 -0.000299197 -0.0310137
0 0 0
0.074847 -0.00903129 0.0112047
-0.0934719 0.106407 -0.055214
0.00348897 -0.0314212 0.0420294
0.0240439 0.161044 -0.053831
-0.0584129 0.0292269 0.0171209
-0.0274952 -0.050566 -0.0675
0.018601 0.0307452 -0.00365781
0 0 0
-0.0601517 0.148668 0.140399
-0.0373137 0.0278086 -0.00595545
0 0 0
-0.0916007 0.186858 -0.00127202
0.061449 0.109027 0.0126936
-0.0368431 -0.0185353 0.00551023
-0.164712 -0.0059812 -0.0483115
0 0 0
-0.288863 -0.332801 0.0154213
0.0280049 -0.0129757 0.0638911
0 0 0
0.406083 -0.0923262 0.0246937
-0.0378624 -0.0594765 -0.0039591
-0.0106963 0.0181635 0.0150567
0.0213848 -0.102192 0.0158288
0.0141703 -0.02654 0.0225633
0.00621801 -0.0410108 -0.14351
-0.0785479 -0.272834 -6.16202e-06
0 0 0
0.0744653 -0.0740482 0.0752362
0.0124359 0.058873 0.0258576
0.0066041 -0.0838598 -0.0507302
0.0261115 -0.0657629 -0.00792081
0 0 0
-0.0140435 0.04194 -0.04527
0.00022948 0.017295 -0.0183328
0 0 0
-0.490732 0.069507 0.0074358
0 0 0
-0.0126054 -0.00250306 0.0180487
0.0244891 -0.188254 -0.0185965
0 0 0
-0.1244 0.0275195 -0.142422
0.27092 -0.228846 -0.0262033
0 0 0
0.0653675 0.132975 -0.00919041
-0.0976544 0.109746 -0.0124017
0.0400786 -0.0816746 -0.143929
0.323212 -0.0271763 -0.087688
0.299565 -0.229365 0.313656
0 0 0
-0.0509691 -0.0932585 0.622423
0 0 0
0.0958945 -0.231703 0.125438
0.059804 -0.00361484 0.0251884
0 0 0
0.194892 0.433049 -0.283872
0.177992 -0.149466 0.0613108
-0.0274357 -0.0317294 0.200036
-0.134749 -0.138912 -0.00667286
-0.00512351 -0.131622 0.0715384
0 0 0
0.104499 -0.281733 0.138301
-0.0779219 -0.109436 0.000370825
0.0302179 -0.0207871 0.0583801
0.0583558 -0.389483 -7.45031e-05
-0.00358038 0.474514 0.0413146
0.0431915 0.0197582 -0.00559298
0 0 0
0.0280659 -0.17377 0.135218
0.115701 0.0586359 0.0174573
-0.0127505 0.24632 -0.00486166
0.173994 -0.0930038 0.242101
0.0827109 -0.0484617 -0.222805
-0.000393833 0.0103331 0.225496
0.181451 0.232218 0.168867
0 0 0
-0.165404 0.140045 -0.0374595
0 0 0
0 0 0
0.00336808 0.0178095 0.302391
0 0 0
0.0117285 -0.0583444 0.128103
0.36322 -0.111322 0.14862
0.0293829 0.00942245 0.0440555
-0.111145 -0.0724925 -0.0844999
0.00604547 0.0511323 0.11161
0.0888906 0.136406 -0.0256106
-0.0959292 0.0133554 0.0964746
-0.23484 -0.16715 -0.0975684
0.210962 0.0720717 0.291658
-0.0044837 -0.136626 0.165418
0 0 0
0.00129419 0.532371 -0.220853
-0.108596 -0.0272776 0.00236141
0 0 0
-0.495858 0.0967182 -0.179775
-0.00194486 0.0272973 -0.00837245
-0.29887 -0.0301009 0.114862
-0.0385683 0.0320204 -0.114879
-0.191431 -0.0445001 -0.445665
0 0 0
0.0587266 0.0893714 0.00859972
-0.000818673 0.0118955 -0.028419
0.14242 0.00907209 -0.283015
0.0627069 -0.053543 -0.057974
0 0 0
-0.1103 0.133824 0.256686
0 0 0
-0.0238651 0.0874955 0.349962
-0.00752254 -0.231693 0.270365
0.21626 0.00104092 0.00848929
0.122164 -0.212447 -0.0398592
0.0316212 -0.336211 -0.175178
0.0179024 0.106255 0.00863749
-0.0184179 -0.0407698 0.114214
0 0 0
-0.18513 0.0472954 0.000269376
0 0 0
-0.0428933 0.0144821 -0.000733886
-0.138419 0.0545599 0.374285
-0.0502097 -0.000808707 0.103605
-0.124098 0.204636 0.139902
-0.0451487 0.0770774 0.343901
0.00594671 0.051177 0.105353
-0.0146361 -0.0424899 -0.0103061
-0.002377 -0.0883022 0.00173999
-0.00379336 -0.064232 0.196712
0.0328892 0.0960291 0.0359359
0.0275223 0.056161 0.0673194
-0.238321 0.0961427 -0.151649
0 0 0
0.32994 -0.309287 -0.354124
0.000210626 0.00847237 0.0142679
0.284216 -0.296845 -0.484759
-0.0222696 0.00693165 0.0230903
0.0121614 0.0477729 -0.150205
0 0 0
0.0114526 -0.0759287 0.00441602
-0.00055366 0.0896568 0.0250395
0.0120745 0.578739 0.0130483
-0.036884 -0.116652 -0.0368148
-0.0922959 0.393894 0.296281
0.151567 -0.244024 0.197792
0.0535901 -0.0760017 0.0301052
-0.0574119 -0.53462 -0.312454
-0.0275359 -0.0228845 0.00445231
-0.34927 -1.02525 -0.277335
-0.0304269 0.00626609 -0.0138279
-0.0287694 0.00285709 -0.00874834
0.0508039 0.190292 -0.00915067
-0.0283908 0.0953142 -0.0236164
-0.00328599 0.000836084 0.0165217
0 0 0
-0.017809 0.103554 -0.0187674
0.00385994 -0.121514 0.32744
-0.0591323 -0.24579 0.288995
0 0 0
-0.161892 -0.088176 -0.0589649
0 0 0
-0.0187592 0.135231 -0.000285966
0.123038 0.401474 0.420101
0.0408036 0.103374 -0.0895215
-0.0245072 -0.033175 0.143886
0.3661 0.251486 -0.345722
0 0 0
0.0469743 -0.0466344 -0.154694
0.0252845 0.0752253 0.0315153
-0.0368769 -0.0395375 -0.0553419
-0.076759 0.190957 -0.20745
-0.221226 0.116369 -0.155866
-0.264704 0.425472 0.450286
-0.0403466 -0.00181411 -0.00918452
-0.0712606 0.163095 0.351969
0.0993513 0.0563038 -0.140996
0.0751072 -0.0310986 0.0526149
-0.00217156 0.0220887 -6.52137e-05
-0.182955 0.0989208 -0.0115064
-0.24133 -0.430659 0.291532
-0.114835 0.109829 -0.128062
-0.274525 -0.0259033 -0.0370179
-0.223046 0.254298 -0.0521461
-0.334838 0.311467 -0.0814821
0.057876 0.0656901 -0.182581
-0.116003 -0.0122717 0.258729
0.100245 0.02674 0.00537439
-0.0390957 0.0110565 0.0133549
-0.0200718 -0.0948614 0.14029
0.0511285 -0.0653682 0.258869
0 0 0
-0.0286075 -0.0620435 0.0470697
-0.00146634 -0.300236 -0.0762969
0.26808 -0.221914 -0.103808
0 0 0
0 0 0
-0.183216 -0.0336691 -0.000157254
0.00260006 0.0460555 0.0371005
0.0330243 0.211912 -0.256848
0.0829219 -0.0651828 -0.100663
0 0 0
-0.118976 0.0791253 -0.0141146
0 0 0
0 0 0
-0.103745 -0.0457975 -0.110681
0 0 0
0.0185414 -0.0572883 -0.0318802
0 0 0
-0.129752 -0.0440267 0.121827
-0.0018637 -0.0869888 0.0193305
-0.0248242 0.264929 0.0250564
0 0 0
-0.0366291 -0.263798 -0.245046
0 0 0
-0.216319 -0.00118583 0.189712
0.00493158 0.230042 0.246858
0.244913 0.252129 -0.595399
0.0890535 -0.128586 0.0872764
0.137844 -0.109937 0.20886
6.77915e-05 0.006821 -0.0034141
-0.153579 -0.238642 0.143894
0.063823 -0.158003 -0.133481
0.2256 -0.152578 -0.0248438
0.0677831 -0.296948 0.00524688
0.0164646 -0.573945 0.23193
-0.0570335 -0.0188837 -0.0993208
0 0 0
-0.0635765 -0.235015 -0.219973
0 0 0
-0.292255 -0.409558 -0.302257
0 0 0
0.113497 0.0090387 0.075845
0.106025 -0.0752713 0.129451
0.193524 -0.0121676 0.0287653
0.327354 0.0997227 0.308386
0.00842222 0.00260556 0.039039
-9.57629e-05 0.0137775 0.0159945
0.000533461 -0.356513 -0.153608
0.497214 -0.0496275 -0.0634523
0 0 0
-0.0829699 -0.169974 -0.101204
0.166531 -0.478642 -0.170907
-0.172837 0.0740178 0.0825182
-0.0820257 0.0668137 0.000538153
-0.037904 0.0920431 -0.276579
0 0 0
0.00482639 -0.355823 -0.0663013
0 0 0
0 0 0
0 0 0
0.0374605 -0.11403 0.320537
-0.003884 0.0506583 -0.0186047
0.031972 0.0342564 0.119946
0.115501 -0.206122 -0.0234416
0 0 0
-0.0033522 -0.159411 0.189566
0 0 0
-0.00679793 -0.307973 0.000435592
0 0 0
-0.167547 0.365566 -0.00296183
0.0345847 -0.0181018 0.00697957
0.0157869 0.206962 -0.27389
-0.00160254 0.0559779 0.151747
-0.0406733 -0.0132233 0.0143194
-0.0902445 0.119303 0.034501
0.0262619 0.295134 -0.162214
-0.298988 0.0307418 0.17754
-0.0397138 0.405173 0.0321081
-0.172415 0.072125 -0.130473
-0.197041 0.10796 -3.12874e-06
-0.141998 -0.140066 0.00436541
-0.256576 0.0884129 0.46339
0.0356354 -0.0130587 -0.138083
-0.0323381 0.12058 -0.0498877
0.136439 0.0962803 -0.22681
0 0 0
0 0 0
-0.083827 0.159581 -0.0327433
-0.163294 0.11661 -0.169699
0 0 0
-0.047009 -0.0473981 0.237402
-0.195845 -0.168599 0.369963
-0.174676 0.0170337 0.00605818
-0.289331 0.805578 0.151592
0.168106 0.0190166 0.155938
-0.103996 0.19003 0.263601
-0.0178357 -0.0397571 0.0244625
-0.143694 0.288758 -0.204574
0 0 0
0.0132093 0.0657114 0.00245987
-0.287496 -0.185691 0.0221137
-0.121282 -0.111253 0.0101003
-0.191012 -0.358977 -0.0473007
-0.000688155 -0.00841651 0.0717334
0.194653 -0.293979 -0.0676125
-0.0217245 0.0996537 0.0677763
0.0941405 -0.01102 -0.279375
0.0778974 0.016477 0.0126913
0.229333 -0.111477 -0.131988
0.350632 -0.261708 0.0459804
0 0 0
0.0884563 0.334789 -0.0866694
0 0 0
0.0437064 0.000347569 -0.298227
0.0101687 -0.00629561 0.00112338
0.436195 0.212934 0.025757
0 0 0
0 0 0
0.121355 -0.101223 0.067563
-0.0899314 -0.27787 0.177858
0 0 0
0 0 0
0.115199 -0.164467 -0.00221203
0.191642 -0.19324 0.0739747
0.510119 0.0410362 -0.161597
0.0337623 0.0354538 -0.0932149
-0.0190129 -0.267112 0.232639
0.0754335 0.0347126 0.0839258
0.267014 0.166999 0.10143
0 0 0
0.265619 -0.296919 0.407833
0.218748 0.0660747 0.116356
0.00475601 0.0327366 -0.0543161
0.181058 -0.181268 0.185469
0.107147 -0.0250102 -0.0154477
0.175749 -0.0788135 0.211763
0 0 0
0.130174 -0.161344 0.16968
0.0477631 -0.182171 0.0214516
0.287194 -0.550171 -0.415087
0.00228788 0.203958 -0.00169353
-0.0477988 0.427363 0.100657
0 0 0
0 0 0
0 0 0
0 0 0
-0.143358 -0.00470065 -0.136329
0 0 0
-0.0431433 0.029425 -0.0558903
0.0131845 0.125987 0.0753544
0 0 0
0.00118329 -0.0591905 0.0580523
0 0 0
-0.00771254 0.0279589 0.0172176
-0.00040773 0.086297 -0.0364054
0 0 0
-0.0367372 -0.160461 -0.0639714
0.111789 -0.12024 0.179082
-0.0493562 -0.0270903 0.165069
-0.14367 0.075845 0.308214
0.0801905 -0.0946153 0.0644849
0.356472 0.0317974 0.0512637
0.166272 0.0392667 0.000351828
0 0 0
-0.00523912 -0.0845015 -0.0406923
0 0 0
-0.0103194 -0.045977 -0.190853
0.0162023 -0.0386465 -0.0895887
0.0268608 -0.321552 0.0119848
0.0924527 -0.078332 0.0625138
0.539773 -0.671067 0.137225
0 0 0
0 0 0
0 0 0
0.137068 0.109532 -0.0865234
0 0 0
0.246438 -0.235266 0.0744351
0.0983955 -0.0717034 -0.0760932
0 0 0
-0.0172337 0.0438954 -0.144142
-0.0243702 -0.0672716 -0.00966867
-0.000830851 -0.186359 0.240884
-0.185923 0.0862483 -0.100033
0.100493 0.13756 0.0054748
-0.104854 -0.12916 -0.174042
-0.0393418 0.000744002 -0.0586064
-0.010585 0.0521119 0.0355958
0.151792 -0.228762 -0.0341887
0 0 0
-0.0932808 -0.16429 -0.0908871
0 0 0
0 0 0
0.0898113 0.0591045 -0.193416
0 0 0
0.451383 0.175934 0.0304829
0.430402 0.10496 -0.106853
0.210102 0.180721 -0.0819084
0 0 0
0.00252146 -0.00106079 -0.0207671
-0.0713491 -0.154641 -0.0777102
-0.104166 -0.359725 0.00843568
0 0 0
0 0 0
0 0 0
-0.126742 -0.0167639 -0.00219802
0.0866177 -0.0573091 -0.100311
0 0 0
0 0 0
0 0 0
0.0743905 0.195809 -0.0167253
0.0677843 0.268282 -0.0518934
0.0271319 0.00714933 0.050342
0.152347 -0.092385 -0.061839
-0.0733484 -0.101554 -0.125363
0 0 0
-0.103217 -0.283005 -0.460868
-0.123753 -0.194512 -0.110504
0.065593 -0.236195 -0.384528
0 0 0
-0.184821 -0.200378 0.00473305
-0.267087 0.200939 0.0555001
-0.0529628 0.00260171 0.00984503
-0.303575 -0.0842627 -0.167092
0 0 0
0.398374 0.596666 0.124266
0 0 0
-0.0105828 0.00975127 0.00102213
0.00459628 0.00592965 -0.00031794
-0.0308713 -0.0344294 -0.0787986
0.348861 0.495542 -0.21518
-0.00122912 0.121483 -0.165522
0.0994498 -0.0175845 -0.0532385
0.222447 -0.0691873 0.071993
0.267583 0.0575184 0.0595946
0.0190829 -0.0302888 -0.0619581
0.105311 -0.0266639 0.145748
0.150402 -0.00567597 0.0962666
0 0 0
0.0811642 -0.300139 0.123573
0.012482 0.112424 0.117073
0.00989492 -0.0553028 0.040702
0 0 0
-0.161867 0.394231 -0.149023
-0.0790129 -0.00402634 -0.0248054
0.166519 -0.227213 0.077552
0.039378 0.0307559 0.0452359
-0.193874 0.281626 0.0816809
-0.107469 -0.162419 0.0219372
-0.183406 -0.186798 0.0174868
0 0 0
-0.307717 0.256409 -0.163759
0.00283303 0.00929459 -0.0159615
0.0027601 0.229236 0.0540758
0.0890838 0.183823 0.104427
-0.0738799 0.018003 -0.0791109
-0.208901 -0.295007 0.0314543
-0.12263 -0.0563433 0.053533
-0.0273461 0.0810345 -0.0532257
0 0 0
-0.122458 -0.0312744 -0.045995
0.00733508 -0.0707693 -0.00576596
0 0 0
0 0 0
-0.166143 -0.164959 -0.245764
0 0 0
-0.112484 -0.184928 -0.217545
0 0 0
0.0106694 0.0120017 0.0519957
-0.251697 0.14021 -0.141342
-0.177554 0.0527513 0.220895
0 0 0
-0.0204608 0.104296 0.099788
0.0251562 -0.0291388 -0.00674785
-0.188027 0.0767522 -0.086142
-0.147052 0.183846 -0.711451
0.0350873 0.159762 -5.38402e-05
-0.1583 0.0235267 -0.000430313
-0.0156552 -0.0231003 0.00268842
-0.140148 0.184363 -0.130782
0 0 0
0.246152 -0.171332 0.0768677
0 0 0
0 0 0
0.0788523 0.15567 0.00200809
0 0 0
0.0485765 0.142806 0.00470069
-0.0531329 0.126753 0.0791137
-0.0593515 -0.349 -0.25395
0 0 0
-0.0592366 0.0360171 0.0354434
0.00152898 0.0584527 -0.031512
0.2837 0.0295756 -0.434574
-0.17514 -0.190466 -0.010892
0.307942 -0.0261788 0.110889
0.0803074 -0.101669 0.0210635
0.0198735 -0.112414 0.162526
-0.0991463 -0.00379194 0.354928
-0.079872 -0.0026888 0.0479945
-0.0557346 -0.00455949 0.00738437
-0.202447 0.219528 -0.0642547
-0.0180474 0.110895 0.0538651
-0.160252 0.224617 0.135496
-0.0363146 0.183016 0.0165465
0.0748811 0.618357 -0.273214
-0.00346252 -0.0379397 -5.12197e-05
0.179801 0.191869 0.00989717
-0.115637 0.0352871 0.11002
0.127501 0.203929 -0.046093
0.112078 0.0279159 -0.0287296
-0.0394535 -0.0826581 -0.0591154
-0.110825 -0.584941 0.211366
0 0 0
-0.075199 0.0117751 0.0104033
-0.15013 0.0486228 0.267015
0.0088572 0.0260278 0.209375
0.174393 -0.147569 -0.117594
0.120385 -0.0201028 -0.0277146
0.324422 0.123349 -0.309995
0.176614 -0.185837 -0.166117
0.126832 0.092977 0.0223451
0.050437 0.214526 0.0910839
0 0 0
-0.0964729 0.183039 -0.374334
-0.184593 -0.0628899 0.0908487
0 0 0
0 0 0
0.0807752 0.14139 0.292232
0 0 0
0.00413917 0.0439807 0.00442227
0.00280829 0.0108122 -0.00181511
0 0 0
0.00212449 0.0407267 0.0674694
0.0762326 0.0340975 -0.0471899
-0.000268056 -0.00196974 0.00505486
-0.100645 0.521659 0.0820751
0 0 0
0.00201303 -0.0593128 -0.127101
0.228139 0.36069 -0.274884
-0.0570928 0.0954173 -0.0161243
0.00150892 0.00302343 0.0370865
0.0358863 0.0118268 -0.0878747
0.129679 -0.255253 0.178345
0.000533568 -0.252606 -0.214169
-0.114006 -0.0606694 0.00540801
-0.194522 -0.385544 0.115402
0 0 0
0 0 0
0.161452 -0.210402 0.00104261
-0.0197042 -0.299907 -0.522491
0.109643 0.0133375 -0.0646538
0.0390656 -0.119369 0.367644
0 0 0
0 0 0
-0.124768 0.153285 -0.177502
0 0 0
0.082144 0.0202599 -0.0193441
0.336778 0.224344 0.282017
0 0 0
0.282089 -0.142918 0.0850928
0.0559797 0.0148651 -0.030033
0.451398 0.159914 -0.313617
0.0257295 -0.0200292 -0.0817207
-0.0646097 0.137633 9.81415e-05
-0.149562 0.0335563 -0.152375
0.00469454 -0.0458782 0.0076916
0.0233036 0.0377562 -0.0394977
0.101765 -0.482574 0.263336
0.00187588 0.042989 0.0950498
0.156731 -0.231474 0.129958
-0.0807905 0.25782 0.0348033
-0.286462 -0.47133 0.317391
-0.196429 -0.0664054 0.0294316
0 0 0
0.355257 0.0186629 0.113845
0 0 0
0.0308106 -0.0137879 -0.0359304
0.0987903 -0.293614 0.127488
0 0 0
-0.0931192 0.707937 -0.0853052
0 0 0
0 0 0
-0.0184668 0.0804406 0.129085
0 0 0
-0.00153232 0.0165346 -0.36101
-0.118134 0.471068 -0.23295
0.0112295 0.00455429 -0.168144
-0.000951751 -0.083318 0.116844
0.0888801 0.0689214 0.0945647
0 0 0
0 0 0
0 0 0
-0.0712433 -0.0751775 0.14489
0.097225 -0.110763 -0.136535
0.122842 -0.00445038 0.0636393
0.133314 -0.38166 -0.383315
0 0 0
0 0 0
0.568622 -0.424736 0.0661162
0.10523 -0.0401792 0.0860381
-0.103752 -0.198145 0.102805
-0.00287426 -0.0497119 0.0228662
0.0539733 -0.155272 0.277234
0 0 0
0.095478 0.00703998 0.408817
-0.128891 -0.280122 -0.107376
-0.173519 -0.0520342 -0.0119446
0.00287698 -0.0262507 -0.0912903
-0.114562 -0.364383 0.489478
-0.367097 -0.051097 0.168749
0 0 0
0.222344 0.0196008 -0.284754
0.123021 -0.189011 0.189013
0 0 0
-0.0818183 -0.0168181 -0.0788643
0 0 0
0 0 0
0 0 0
0 0 0
-0.156351 -0.121387 -0.312335
0 0 0
-0.351547 -0.0124947 -0.00429159
-0.0782429 -0.0162409 -0.0080035
0.0866441 0.393614 -0.0718346
-0.0818658 0.255285 -0.0718506
-0.139789 0.0229794 0.162831
-0.223923 -0.319457 0.149681
-0.132398 0.0594673 0.00338602
0 0 0
-0.045525 -0.00817646 0.198413
0 0 0
0.112078 0.400623 -0.0685717
0.0543739 0.125027 0.178593
0 0 0
0.0758904 -0.0336639 -0.251803
-0.0453565 -0.101891 -0.0938865
0 0 0
-0.0242774 -0.142555 -0.00845274
0.0248553 0.00943653 0.0172748
0 0 0
0.0835132 0.0490512 0.0797848
0 0 0
-0.611338 0.382591 -0.257694
-0.140832 0.114055 -0.0785897
-0.360152 0.4421 0.0713974
-0.143817 -0.114175 0.0689912
0.271109 -0.257288 0.0380997
-0.0664525 -0.0836849 0.0167369
-0.165199 0.0681775 0.209758
-0.0006025 0.0103414 -0.0307872
0 0 0
0 0 0
-0.0758003 0.210408 -0.150124
0 0 0
0 0 0
-0.121019 0.13459 0.246597
-0.0933981 0.366084 -0.0510427
0 0 0
0.184155 -0.0380507 -0.103813
0.0137163 0.0373012 0.0299322
0.0397116 0.0604974 0.00610047
0.00602498 0.128865 0.00119313
0 0 0
0 0 0
0 0 0
0.0461749 0.078719 -0.00601891
0.00522911 -0.11347 -0.0619261
0.0413898 -0.750569 0.433399
-0.00424174 -0.0547218 -0.0754996
0.00662372 0.00728382 0.167638
0.0235451 -0.0167631 0.0105529
-0.0639442 -0.00264215 -0.0436031
-0.000731916 -0.0169447 0.0220448
-0.305697 0.364529 0.0329834
-0.0206733 0.0471074 0.0913843
0.142518 -0.0165466 0.0673833
0.407622 -0.106972 0.243762
-0.115442 0.188039 -0.250278
0 0 0
-0.164021 -0.46776 0.469411
-0.0923042 -0.0177741 0.178546
0 0 0
0 0 0
0.17608 0.0879677 0.0858649
0 0 0
0.0370168 0.0542993 0.0840074
0.126355 0.0198971 0.000642059
-0.337139 0.016474 0.167067
-0.0331327 0.158672 0.356565
-0.433676 0.663939 0.45341
-0.0891455 -0.013274 -0.264776
0 0 0
0.0421619 0.264762 -0.169144
0.132246 0.128041 0.0180599
-0.498507 0.0315208 0.199082
-0.22459 -0.232659 -0.0208131
-0.287994 -0.164596 0.213851
0.00703032 0.0247832 0.000276687
0 0 0
0 0 0
-0.106564 0.0825139 -0.00113305
0 0 0
0.140578 -0.133726 -0.247797
-0.0149106 -0.0847613 0.0948429
-0.0285347 0.336657 -0.0048541
0.0100268 0.0446651 0.0105788
0.0327636 -0.0448074 0.00187956
0.012659 0.0105512 -0.045087
0 0 0
0.045251 -0.13292 0.25757
0.077047 0.143495 0.264875
-0.0386155 0.0220772 0.0436401
-0.207501 0.316941 -0.200185
-0.130617 -0.0577957 0.0270357
-0.0494507 0.228681 0.013746
0 0 0
0 0 0
0 0 0
0.00786002 0.180103 -0.0639914
0.127651 0.0082549 -0.163137
0 0 0
0.0181393 0.00801708 0.0745043
-0.0389057 0.190689 0.306317
0.112728 0.0574522 -0.0413714
0.318846 0.57898 -0.0108815
-0.0409483 0.0652981 -0.112252
-0.417619 0.133837 -0.194524
0 0 0
0.0744844 0.0217787 -0.206103
0 0 0
0.192547 -0.17571 -0.187306
0.352583 0.467334 0.129185
0.100037 -0.0494789 -0.124314
0.0448057 -0.261269 -0.355281
-0.0655426 0.00577397 -0.190799
0.00152798 -0.193457 -0.230948
-0.145312 0.0114789 0.0478596
0.000710344 -0.230628 0.0223363
-0.0635818 -0.411275 -0.152474
-0.0273257 -0.214915 -0.0326765
0.163519 -0.0069628 -0.342219
0.219855 -0.0423464 0.0693363
0 0 0
-0.153613 0.434325 -0.0553749
0.0516354 0.261922 0.489584
0.0856405 0.0789449 -0.0188476
0 0 0
0.117422 0.0532506 0.065217
-0.0346685 0.21595 -0.189543
-0.171437 0.00221676 -0.00149384
-0.211915 -0.056805 -0.0598273
0 0 0
0.157847 0.171761 0.146769
0.00102949 -0.0250672 0.163116
-0.0810248 0.225602 0.00150271
0 0 0
-0.0789219 0.0369031 -0.233205
0.00226063 0.390051 -0.177729
-0.00801056 0.0535283 0.0126366
0.212203 -0.173736 0.156832
0.0616625 -0.152353 0.122906
0.13753 -0.414518 0.392494
0.0133422 0.00735292 0.0169812
-0.199088 0.518026 0.102887
0 0 0
0.116416 -0.151557 -0.186219
0 0 0
-0.16295 0.0904293 -0.299559
-0.0291399 -0.00435607 -0.328811
0.108767 -0.321282 0.176561
0.0453206 0.18954 -0.192705
-0.224601 0.177073 -0.0472576
-0.0581907 -0.0176884 -0.0852673
0 0 0
0.0623554 0.0344646 -0.042387
-0.183818 0.361058 0.1445
0.0288059 0.0873914 0.0259499
-0.180502 -0.00849881 0.00190503
-0.0195711 0.0955532 -0.000699818
-0.145694 0.114538 0.0656543
0 0 0
-0.192239 -0.201641 0.268937
-0.281774 0.0458351 -0.0412299
0.0865341 -0.0017772 0.00313353
-0.00906545 0.00167284 -0.0175271
0 0 0
-0.0651451 0.0745918 -0.0953777
0.147141 0.163105 -0.173816
0 0 0
0 0 0
-0.00300142 -0.00830803 0.279175
0 0 0
-0.0262432 0.188818 0.008464
0.0862413 -0.0967132 -0.115943
-0.190024 -0.0082174 -0.0461057
-0.262285 0.420789 0.39414
0.199698 0.088105 -0.096573
0.143193 0.0469735 -0.136336
0.00141444 -0.0180134 -0.00162251
-0.0928382 -0.0276505 -0.108979
0 0 0
-0.120701 -0.146476 0.076013
-0.188916 0.554385 0.0120038
-0.250501 -0.271036 0.0567211
0 0 0
0.000293322 -0.00276307 -0.141869
-0.0950085 -0.11119 -0.187949
0.312044 0.0869528 -0.232281
0.178528 0.434863 -0.0571206
0.162473 -0.0271608 0.000799499
0 0 0
-0.00127841 0.107381 0.0202589
0.216064 -0.187753 -0.286857
0.00016366 0.169756 0.151982
0.282478 0.126207 -0.212103
0.181562 0.210462 0.0180081
0.22605 -0.0139138 -0.0677412
0.102429 0.0742956 0.037735
0.112201 0.226871 0.347128
0 0 0
-0.0731241 0.0285483 -0.0195378
-0.321588 -0.407773 0.0542161
0 0 0
-0.122199 -0.0217261 -0.151559
-0.333804 -0.350042 0.115669
0 0 0
0 0 0
0 0 0
-0.0733916 0.0544595 -0.00193571
0 0 0
0.0282218 0.0267432 -0.0010003
-0.160131 0.171092 0.144294
-0.112774 0.309605 -0.251464
-0.00838261 0.000793048 -0.044269
-0.120671 0.187136 -0.0276246
0 0 0
-0.120641 -0.0819738 -0.0776538
0 0 0
0 0 0
0 0 0
0.0676414 0.061539 -0.000884946
-1.72508e-05 -0.0544607 -0.129489
0.00185285 0.0958804 0.152148
0 0 0
0 0 0
-0.0454584 0.261356 -0.150422
0 0 0
0.187501 -0.0146606 0.225121
0.0355763 -0.048736 -0.0374498
-0.0325366 -0.0714227 -0.123007
0 0 0
0.054003 0.0701692 -0.298112
0.146844 -0.0715001 -0.000284404
-0.0436133 0.111504 0.00567258
0.189814 -0.411423 0.034808
0.000611454 -0.294968 -0.114514
0 0 0
0.000234749 0.111746 0.184151
0 0 0
0 0 0
-0.0450571 0.290616 0.0134022
0.0477377 0.0979888 -0.0995074
-0.00262552 0.1858 0.00995172
-0.220572 0.0124 0.271011
-0.355539 0.25278 0.179619
0 0 0
0.113395 -0.0660373 0.272319
0.255281 0.0481589 0.0955195
0 0 0
0.013643 -0.120377 -0.000937794
0.0387084 -0.063224 0.0247062
0.384169 -0.0510767 0.188119
0.0946706 -0.0655614 0.0914706
0.445011 -0.0217476 0.0671701
0.0224417 -0.0032865 -0.0902851
-0.0271492 0.0671036 0.0466508
0.145049 0.118937 -0.0467955
-0.0497279 -0.0209484 0.119749
-0.0757557 0.141792 0.0410869
0.0284302 0.0741879 -0.104589
-0.161947 0.262105 -0.291615
0.185014 0.043275 0.096304
0.0498548 -0.223419 -0.0107675
-0.210244 -0.111384 -0.0184463
0.0532763 -0.528759 -0.146169
0.107036 -0.0372743 0.0277747
0.0566286 -0.214605 0.264648
0 0 0
-0.00183249 -0.0279047 0.00810662
-0.0369102 -0.0914599 0.136001
0 0 0
-0.0802169 0.0127752 0.0495918
0 0 0
0 0 0
0.253636 -0.196619 0.0874881
0.13988 0.0364531 -0.0195552
0 0 0
-0.118752 -0.0947257 -0.192228
0 0 0
0.0504343 -0.0862617 -0.193321
0 0 0
0.0765197 -0.0307874 -0.180096
-0.110528 0.0608347 -0.128456
-0.123501 0.0206211 -0.128982
-0.060643 -0.110385 0.127055
0.207485 -0.00251579 -0.0898859
0.0497592 0.0541624 -0.00338134
0 0 0
-0.0598585 -0.362718 0.22825
-0.00797194 -0.0096545 -0.00102035
0.117912 -0.31819 0.321279
0.369603 -0.324133 -0.0886899
0.185901 0.314381 -0.390639
0 0 0
0.051933 -0.0980268 0.346223
0 0 0
0.0317717 -0.122238 -0.0721186
-0.0130968 -0.240488 -0.0335753
-0.230011 -0.125039 0.0090361
0.0544383 0.11206 0.0273799
0 0 0
-0.00468728 -0.424652 -0.416318
0 0 0
0.0100162 9.96788e-05 -0.0112055
0.301519 -0.00359597 -0.161292
0.0483319 -0.0230666 -0.0320623
-0.103542 -0.000667149 -0.0578252
0.0108518 -0.0998728 0.122919
-0.00137398 0.0625331 -0.247932
0 0 0
0.250092 0.0315738 0.10707
0.149621 0.0659861 -0.0214013
-0.116174 -0.293296 0.190655
-0.0670977 -0.0635819 -0.148484
-0.0692018 -0.0303146 0.202755
0.313823 0.437796 -0.356245
0 0 0
-0.0100297 -0.430679 0.0133177
0 0 0
-0.00385103 -0.0221028 -0.257094
0.0725363 0.0491891 -0.11879
-0.0539033 -0.00248 0.230811
0.31046 0.0870963 -0.0948136
0.0397387 -0.0266919 0.0529691
0.267268 -0.0272539 0.191922
0.259554 0.00116969 -0.360316
0.39884 -0.051443 0.244421
0 0 0
0.261061 0.0223986 0.349704
0.22033 -0.00788919 -0.0550444
0.236485 -0.0631187 0.115686
0 0 0
0.143308 0.38324 -0.000666246
0.168615 -0.0150171 0.0354351
0.290474 -0.181716 0.0246188
0 0 0
0 0 0
0 0 0
0 0 0
0 0 0
0 0 0
0 0 0
0 0 0
0 0 0
0 0 0
0 0 0
0 0 0
0 0 0
0 0 0
0 0 0
0 0 0
0 0 0
0 0 0
0 0 0
0 0 0
0 0 0
0 0 0
0 0 0
0 0 0
0 0 0
0 0 0
0 0 0
0 0 0
0 0 0
0 0 0
0 0 0
0 0 0
0 0 0
0 0 0
0 0 0
0 0 0
0 0 0
0 0 0
0 0 0
0 0 0
0 0 0
0 0 0
0 0 0
0 0 0
0 0 0
0 0 0
0 0 0
0 0 0
0 0 0
0 0 0
0 0 0
0 0 0
0 0 0
0 0 0
0 0 0
0 0 0
0 0 0
0 0 0
0 0 0
0 0 0
0 0 0
0 0 0
0 0 0
0 0 0
0.00338567 0.0449725 0.095893
-0.0984574 0.093404 -0.0690827
-0.00402422 0.0257841 -0.0636867
-0.0424098 -0.187623 0.0827142
0.131312 -0.0881025 0.0691636
-0.000408512 0.037564 -0.0464956
-0.146149 -0.0674478 -0.0247316
0.0118781 -0.144217 0.034769
0.0036079 0.0335072 -0.160825
0.393063 -0.0282363 -0.0431269
-0.00696167 0.0902919 0.000164833
-0.127438 0.0189796 -0.105244
0.177124 0.0615638 -0.0307414
0.0158776 0.0259084 0.0260697
0.0418662 0.00760765 0.0367034
0.000676108 0.101612 0.096398
-0.000802459 0.0770003 0.122272
0.00744481 -0.0943855 0.158665
0 0 0
0.0160411 0.0473209 -0.0789349
0.0365184 0.106396 -0.0357708
0 0 0
-0.0116901 -0.0602152 -0.212827
-0.00273578 -0.236786 0.168855
0.0228728 0.12936 -0.158213
0.0916021 -0.0168832 0.0559819
0 0 0
0.0822386 0.0413081 -0.0484534
0.106959 -0.00555016 -0.0363813
-0.00563689 -0.0316254 -0.0723257
0.0463053 0.0143338 -0.0103782
0.000482862 -0.0432601 -0.0851603
0 0 0
-0.0243511 -0.0341704 0.00799074
0.00426037 0.00867019 -0.0194986
0.0264291 -0.0292063 -0.026014
0.0480439 0.0952905 -0.0288223
0.000321227 0.00259744 -0.00263165
0.0568636 -0.00047306 -0.0144195
-0.0473032 0.38413 -0.0128343
-0.00216916 -0.293441 0.0448246
-0.288173 -0.024402 -0.0315411
0 0 0
0.000554673 0.0891361 0.0232296
-0.146359 -0.102088 -0.287191
-0.0174192 0.0391701 0.0287354
-0.0570575 0.0166814 0.105565
-0.0251462 -0.0210928 -0.126178
-0.0008751 0.0244063 -0.140132
0.0358089 0.0362932 0.00416584
0.0182783 -0.00379147 -0.101492
-0.0432174 0.00904609 0.0470235
-0.0597947 -0.00901742 0.0107492
0 0 0
0.00288829 -0.00263106 0.0522905
0.022085 -0.0748523 -0.081043
0.00480386 -0.00533405 0.0408259
-0.0219102 -0.00385018 -0.0547725
0 0 0
0.000943667 0.000453288 -0.000612024
-0.0653813 -0.00376529 -0.112383
0.000559036 0.00629145 -0.0045117
-0.00885648 -0.0990284 -0.0268445
0.00348261 -0.00388788 -0.0366275
0.0569682 -0.0770461 -0.132663
0 0 0
-0.11776 0.0420882 0.059204
-0.0221832 -0.573499 -0.132232
0.0105993 -0.0148353 0.477887
0.358565 -0.0583653 0.0191544
0.267093 0.0185988 0.0821446
0.199389 0.0147962 0.117046
0.349724 -0.000403959 -0.0588904
0.218948 0.0479865 -0.0492864
0.0500841 0.150647 -0.000106739
0.0325934 0.0859837 0.19297
0.341009 -0.18059 -0.0384836
0.183767 -0.0255176 -0.018569
0.186017 -0.232211 0.222238
0.0677192 -0.070016 0.121338
0.0539479 -0.00258285 0.201156
0.102227 0.118184 0.0702825
-0.0173242 -0.0307139 -0.00278089
0.185601 0.147035 0.0648659
-0.0961587 0.599981 -0.0131888
0.00227106 0.0300467 0.10758
-0.0551287 0.0749585 0.166145
0 0 0
0.436011 -0.571571 0.164703
0.0406369 0.20386 0.0645846
0.144981 0.010854 0.00243031
0 0 0
-0.0507652 -0.00683279 -0.391365
0 0 0
0.106657 0.00758123 -0.0410902
0.100749 0.142498 -0.169749
-0.166056 -0.104572 0.220916
0 0 0
-0.102405 -0.122481 0.170321
0 0 0
0.0257915 0.0236931 -0.000832292
0.0593243 -0.0438299 0.126112
0.17463 -0.242697 -0.084056
0 0 0
-0.167604 -0.270707 0.321516
0.147685 0.180057 0.0408991
0 0 0
0.0307361 -0.238968 0.00477596
0 0 0
0.30384 0.053741 -0.0615087
0 0 0
0.161555 -0.125215 -0.0335779
-0.311159 0.0301028 0.192749
0 0 0
0 0 0
0.0575134 -0.128446 0.309521
0 0 0
0.0437977 -0.00418793 -0.0404361
0 0 0
0 0 0
0 0 0
0.0654676 -0.00595443 -0.00794012
0 0 0
0.110958 -0.0443912 -1.35164e-05
0 0 0
-0.0466411 -0.129419 0.278002
-0.0476363 0.140327 0.197254
0.0715847 0.0546564 0.0767648
-0.0910607 0.0111665 0.0544073
0.0795368 0.014564 0.498979
-0.207327 -0.0914787 0.221792
-0.150576 -0.197402 -0.137143
0.0371142 -0.307301 0.0521227
0 0 0
0.0609673 -0.0492577 -0.252217
-0.135193 0.0580635 0.00156535
-0.252915 0.23452 0.028264
-0.00554057 -0.427502 0.090095
0 0 0
0.04297 0.0956366 -0.00318652
0.00958441 -0.073595 0.0335469
-0.192612 0.223037 0.223119
-0.459196 0.0317531 0.249643
0 0 0
0 0 0
-0.0264698 0.204935 0.0252277
0.0678382 0.473393 0.20429
-0.0849213 0.00575438 -0.0903037
-0.114023 0.116766 -0.434769
-0.105132 0.0139085 -0.164277
0 0 0
-0.0994226 0.0431839 0.0413761
-0.125557 0.0217846 -0.121431
-0.13462 0.142736 -0.197674
0.00244413 0.10722 -0.0241517
-0.168814 0.2536 -0.254574
-0.00216604 -0.102195 0.168294
0 0 0
-0.0840262 0.113984 0.011222
-0.0728452 0.199376 0.234487
0 0 0
0.0357426 -0.19137 -0.0806667
8.58233e-05 -0.0498726 -0.0178427
0 0 0
0.142296 -0.130501 -0.361594
0 0 0
-0.192492 -0.113073 -0.34742
-0.0446958 0.104311 -0.210662
-0.33129 0.300769 -0.0654638
-0.101629 0.0248445 -0.052119
-0.177933 0.096616 0.165336
0 0 0