<?xml version="1.0"?>
<VTKFile type="RectilinearGrid">
<RectilinearGrid WholeExtent="0 32 0 32 0 32" Origin="0 0 0" Spacing="1 1 1">
<Piece Extent="0 32 0 32 0 32">
<PointData>
</PointData>
<Coordinates>
<DataArray type="Float32" format="ascii">
0 0.524874 1.04975 1.57462 2.0995 2.62437 3.14924 3.67412 4.19899 4.72386 5.24874 5.77361 6.29849 6.82336 7.34823 7.87311 8.39798 8.92285 9.44773 9.9726 10.4975 11.0224 11.5472 12.0721 12.597 13.1218 13.6467 14.1716 14.6965 15.2213 15.7462 16.2711 16.796 
</DataArray>
<DataArray type="Float32" format="ascii">
-5.03879 -3.62163 -2.20447 -0.787311 0.629849 2.04701 3.46417 4.88133 6.29849 7.71565 9.1328 10.55 11.9671 13.3843 14.8014 16.2186 17.6358 19.0529 20.4701 21.8872 23.3044 24.7216 26.1387 27.5559 28.973 30.3902 31.8074 33.2245 34.6417 36.0588 37.476 38.8931 40.3103 
</DataArray>
<DataArray type="Float32" format="ascii">
0 0.524874 1.04975 1.57462 2.0995 2.62437 3.14924 3.67412 4.19899 4.72386 5.24874 5.77361 6.29849 6.82336 7.34823 7.87311 8.39798 8.92285 9.44773 9.9726 10.4975 11.0224 11.5472 12.0721 12.597 13.1218 13.6467 14.1716 14.6965 15.2213 15.7462 16.2711 16.796 
</DataArray>
</Coordinates>
<CellData>
<DataArray type="Float32" Name="Vector" NumberOfComponents="3" format="ascii">
0 0 0
0 0 0
0 0 0
0 0 0
0 0 0
0 0 0
0 0 0
0 0 0
0 0 0
0 0 0
0 0 0
0 0 0
0 0 0
0 0 0
0 0 0
0 0 0
0 0 0
0 0 0
0 0 0
0 0 0
0 0 0
0 0 0
0 0 0
0 0 0
0 0 0
0 0 0
0 0 0
0 0 0
0 0 0
0 0 0
0 0 0
0 0 0
0 0 0
0 0 0
0 0 0
0 0 0
0 0 0
0 0 0
0 0 0
0 0 0
0 0 0
0 0 0
0 0 0
0 0 0
0 0 0
0 0 0
0 0 0
0 0 0
0 0 0
0 0 0
0 0 0
0 0 0
0 0 0
0 0 0
0 0 0
0 0 0
0 0 0
0 0 0
0 0 0
0 0 0
0 0 0
0 0 0
0 0 0
0 0 0
-0.0400165 0.00912009 0.128216
-0.128411 0.0544301 -0.0293683
0 0 0
0.04986 0.0512849 -0.034518
0.157934 0.0201086 0.120408
0 0 0
0.170959 -0.111922 -0.000978331
0.212816 -0.0196967 0.0693177
0.134745 0.00998306 -0.0281858
0.504893 -0.0992234 -0.0582805
0 0 0
0.0532714 0.0677144 -0.139343
0.0544314 0.276029 -0.100131
0 0 0
0.122459 -0.0766444 0.0179424
-0.274341 0.0439285 -0.187312
-0.14971 0.177932 0.314777
-0.196864 -0.0444199 0.0806379
0 0 0
0.104884 -0.319911 -0.0399596
0.122463 -0.0594975 -0.0176901
0 0 0
-0.171191 0.197817 0.0772362
0.114338 -0.125038 0.13651
0.202992 0.00775567 -0.150286
-0.164711 -0.0888652 -0.00565064
0 0 0
-0.0703 0.0904933 -0.0749598
-0.032692 0.0708785 0.0518041
0.0196546 -0.011838 -0.0162456
0.00688077 0.0460298 -0.0208302
-0.096884 -0.0899225 -0.124814
-0.142497 0.000800327 0.114124
0.0221478 -0.00174928 0.0272847
-0.0208728 -0.0665082 -0.0248067
-0.189253 0.383941 0.0576292
0.000952242 0.0983208 -0.109942
0 0 0
0.0393975 -0.0907399 0.00135514
0 0 0
0.0584277 0.0225852 -0.011426
0.0568229 0.0428758 0.0150776
0 0 0
0.00623625 -0.0301008 0.088465
-0.0804956 0.102317 -0.0233869
0 0 0
0.10085 0.00880423 0.133224
0.109288 -0.151924 0.0505099
0.0331123 0.103675 -0.0141255
-0.064973 0.0102988 0.036867
0 0 0
-0.057127 -0.166558 0.00405283
0.0989834 -0.0187085 -0.0278751
0 0 0
-0.236543 0.0656941 0.06915
0 0 0
-0.00501178 -0.00237712 0.00729194
-0.035597 -0.265437 0.027568
0.0415736 0.0227365 0.0131246
0.0197906 0.0116844 0.00458189
0.225131 -0.083756 -0.0748094
0 0 0
-0.00536507 -0.034784 -0.0232248
-0.0647667 -0.110141 -0.116081
0.0283963 0.293529 0.523937
0.0647978 0.0843013 -0.262933
0.372012 0.0213398 0.132449
0 0 0
-0.120869 -0.105963 0.203885
-0.110196 0.0631027 0.233942
-0.180206 0.0647937 -0.198493
-0.0462814 -0.0534416 0.165796
0.301171 0.151609 -0.032206
0.0553348 -0.140641 0.216523
0.12067 0.0125491 -0.0339361
0.207991 -0.0836762 0.135914
0.121485 0.0952098 0.147515
-0.116301 0.259029 0.255832
0.00246753 -0.0341597 -0.432692
0.449412 -0.0707856 0.0325025
-0.00061286 -0.00448845 0.0180489
0.0673298 0.161025 0.0171667
0 0 0
0 0 0
-0.14802 -0.0982922 0.0385827
0.172716 -0.185313 0.114549
0.251245 0.0639315 -0.0116053
0.097618 0.074955 0.00108183
0 0 0
-0.384656 -0.134743 0.0515833
-0.0894773 -0.0728661 -0.156556
0.0076733 0.216166 0.395302
0.162934 0.225891 -0.183165
-0.000439746 0.0992339 -0.014973
0.0202748 -0.0397227 0.0981971
0 0 0
0.0979243 0.0261936 0.0699589
-0.490813 0.431663 0.141273
0.0164293 0.0323788 -0.0140308
0 0 0
-0.0145647 -0.0173164 -0.0114157
-0.111478 -0.129388 0.0368253
0.121091 0.186872 0.221131
0.0284765 -0.0615478 0.138224
0 0 0
0 0 0
-0.0953255 -0.259177 -0.188381
0 0 0
0 0 0
0.360416 0.224735 -0.263278
0.127562 -0.0612137 0.014692
0 0 0
-0.00377112 -0.0408284 0.0357721
-0.281041 -0.099849 0.0359343
-0.262683 0.110512 0.15554
0 0 0
0.0264979 0.0166989 -0.019556
0.00155026 0.048956 0.0235428
-0.233586 -0.151359 -0.0801353
0.00118142 0.117601 -0.0141342
-0.1158 -0.00233716 -0.00120385
-0.20859 -0.0292484 -0.0417786
-0.288519 0.124343 0.0402846
0.397157 0.0095384 -0.00115404
0.077146 0.00224259 -0.00164986
0.149808 -0.0237107 -0.0152427
0.279058 -0.0784171 -0.024991
0 0 0
0.0232894 -0.032222 0.190411
0.0015035 -0.053761 -0.0190952
-0.187843 0.131784 0.324022
0 0 0
0 0 0
0.033139 0.217733 0.238075
0.132765 0.348677 0.183897
0.268784 -0.197398 0.131775
0.0426233 -0.0995861 -0.0315617
0.00380495 -0.185671 0.0142912
0 0 0
-0.10433 -0.16382 -0.00119277
-0.278008 0.0157948 0.080911
0.174461 0.0261509 0.00193882
0.0108949 0.00533475 -0.0440417
0.127422 0.00516877 0.0029083
0 0 0
-0.297103 -0.165452 -0.0970293
0.0203317 -0.49276 0.45075
-0.106055 0.223879 -0.278684
-0.143074 -0.0768314 -0.0217445
-0.0875381 0.109985 -0.045506
0 0 0
0 0 0
0 0 0
-0.063651 -0.131761 -0.0493363
-0.216119 0.0908463 0.324482
0 0 0
0.135336 -0.326176 0.0947517
0.165968 0.00162531 0.265357
0.108078 0.124888 0.135134
0 0 0
0 0 0
-0.21102 0.116248 0.112711
-0.0484505 0.0731741 -0.289118
0.0352901 0.0245468 5.8788e-05
0.0574166 0.222649 0.195175
0.26382 0.145286 -0.0104213
0.0448978 -0.228179 -0.00161155
0.106578 -0.317239 0.128856
-0.0664335 -0.0812485 -0.0533753
0.0933109 -0.142915 0.109603
-0.129189 0.0833105 0.0925684
0 0 0
0.0260541 -0.110249 -0.000582748
0 0 0
0.203409 0.19023 -0.147849
0.0987542 -0.157889 0.00318898
-0.204076 -0.104876 0.00328127
0.325613 -0.422343 -0.216721
0 0 0
0.0355768 -0.146742 0.0962086
0 0 0
-0.313059 -0.010817 -0.0753028
-0.00557545 -0.00166264 -0.00895718
0 0 0
-0.0396682 0.283743 0.0143833
-0.0746966 0.117258 0.221174
-0.062695 -0.154781 -0.0910084
-0.00387325 0.0100854 0.0915487
-0.309441 -0.225053 -0.257735
0.058305 0.151251 -0.186906
-0.124464 0.140101 -0.0255587
-0.017223 0.00482227 0.0246516
-0.392685 0.0771743 0.00950948
0 0 0
0.0623377 0.0511845 0.0698651
-0.134933 -0.094097 0.108351
0.184202 -0.335059 -0.114234
0.00833673 -0.00052749 -0.00382179
-0.193837 -0.416492 -0.0208227
-0.147229 -0.0195812 0.00843973
0.0391146 0.000830663 -0.270054
-0.24401 0.116719 0.0815235
-0.118724 -0.0492743 0.0337851
-0.0132308 -0.0140071 0.0100644
-0.217929 -0.0601894 0.286572
-0.470222 0.117752 -0.0854533
-0.225759 0.0786071 -0.170532
-0.0850406 0.310345 -0.299429
0 0 0
0 0 0
-0.337005 0.0413347 0.121466
0 0 0
-0.208061 -0.0453561 0.188172
-0.435263 0.0980083 0.0466826
-0.028871 0.0852544 0.133619
-0.0370621 -0.0901491 -0.00515452
-0.327196 0.144528 0.234179
-0.0572929 0.0417518 0.0913403
-0.0757645 -0.100729 0.119548
-0.451763 -0.047556 0.151573
0 0 0
-0.173415 -0.11287 0.00693889
-0.589436 0.224361 0.131663
-0.048702 -0.0625558 -0.0146522
-0.0455045 -0.0579939 0.0436688
-0.0288692 0.136933 0.203695
-0.0342283 0.0726482 0.00408578
-0.190644 0.0470525 0.117113
-0.103131 -0.418821 0.272715
0 0 0
0 0 0
-0.0521584 0.0640556 0.000864507
-0.014898 -0.00851176 0.0125259
-0.231128 0.0763795 -0.330782
0 0 0
0.0615206 -0.1872 -0.0221992
0 0 0
0.00142921 -0.000118956 -0.0216857
0 0 0
-0.0523308 0.0965589 0.000358442
0 0 0
-0.0125378 -0.3707 0.284377
0 0 0
0.102154 -0.0568177 0.0400164
-0.0811594 0.0377544 -0.00106904
-0.0133826 -0.0286018 -0.00152647
0.0856103 -0.0426037 -0.23236
0.00446445 0.361607 -0.0755077
0 0 0
-0.329571 0.101337 0.171181
-0.191166 0.0646218 -0.0851406
-0.025858 -0.0637457 -0.0944877
-0.0867664 -0.0609938 -0.177235
-0.0593897 -0.0675343 0.089121
0.0486964 0.119172 -0.0770942
0 0 0
-0.151178 -0.0186381 -0.121787
0.107788 0.0582209 -0.100545
0.0309502 0.161904 -0.0767011
-0.176776 -0.413353 -0.00466994
0.0707013 0.024757 0.0690459
-0.162354 0.258451 0.00160445
-0.0396915 0.170126 -0.368484
0.10509 0.123805 0.0400141
0.460208 0.0705302 0.00491097
0.131358 -0.0880421 0.108077
0.441121 -0.369226 -0.335764
0.340282 -0.0434007 0.00273059
0 0 0
0.08775 0.202088 0.0906793
-0.325428 0.0798818 0.207303
0.197964 -0.0666132 0.0312484
0.0601085 0.0172502 -0.030127
0 0 0
-0.211268 0.584935 -0.268971
-0.089223 0.0300403 0.0304381
0.025438 -0.35797 0.128574
0.00627283 -0.0467214 0.168128
-0.018938 0.221238 -0.134852
-0.00566198 0.0986724 -0.018682
-0.0196491 0.000584042 -0.0686535
0.0517393 -0.0630138 -0.305226
0 0 0
0.401396 -0.296752 -0.774933
0 0 0
0.256653 0.21461 -0.0870484
0.00139335 0.0261877 0.0178388
-0.139431 0.285296 -0.0331466
0 0 0
0.219974 -0.0949501 0.00373905
-0.18664 -0.106566 0.130208
0 0 0
-0.0294587 0.095968 0.0636153
0.0249074 -0.00759038 0.055485
0.124609 0.0290791 -0.0536595
0.402544 0.037917 0.0758614
0 0 0
-0.0566585 -0.155858 -0.101905
0 0 0
-0.0526272 -0.14932 0.240826
0 0 0
0.0839236 0.0841537 -0.0267639
0.389935 0.236415 0.149534
0.441311 0.0818085 0.0160162
0 0 0
-0.176671 0.245825 -0.0607643
0.118441 -0.0242782 -0.422823
0.00902497 0.00238662 -0.00448967
-0.104093 -0.20219 0.171435
-0.035868 0.127333 0.00016773
0 0 0
0.00516666 0.0518271 0.0211518
0.105868 0.25596 -0.359753
0 0 0
0 0 0
-0.210602 0.131233 0.103555
-0.137363 0.741844 0.0337772
0 0 0
-0.148348 0.284155 -0.112687
-0.00786891 -0.0174398 -0.0777734
0 0 0
-0.173738 0.0675733 -0.184852
0.000870603 0.0754298 -0.0143946
-0.104672 0.0458987 -0.127841
-0.00484451 -0.00759539 0.236294
-0.206117 -0.0435663 -0.0748946
0 0 0
-0.0207108 0.035601 -0.0989996
0 0 0
0.108889 0.184395 0.230407
0 0 0
0.144484 -0.0712734 0.00162147
0 0 0
-0.319181 0.466862 0.225479
-0.00150725 0.014241 0.00961761
-0.0600068 0.0793896 0.465484
0 0 0
0 0 0
-0.0860311 0.018129 0.00301355
0.047079 0.0158726 -0.041074
0 0 0
0.275468 0.250217 -0.0681247
0.166752 0.488803 -0.276816
-0.103674 -0.105062 0.0123141
-0.303112 0.0177623 0.111606
-0.18081 0.451136 0.0494356
0 0 0
-0.109663 -0.0217983 -0.00287144
-0.192181 0.12048 0.0147696
-0.361615 -0.211932 -0.0155747
-0.0226092 0.00818548 4.60991e-06
0 0 0
0 0 0
0 0 0
-0.100386 0.0703665 0.140445
-0.000407113 0.0693777 -0.00765404
0.227306 -0.0135676 0.0726305
0.0144751 0.00890511 0.0115321
0.170119 0.171592 -0.00176729
-0.0282898 0.267353 -0.288537
0.263398 0.306641 -0.521978
0.390334 0.332242 -0.00518327
0.000271766 0.0114113 0.00903763
-0.172509 -0.0598012 -0.0590242
-0.246373 -0.0672025 -0.261949
0 0 0
-0.027927 0.0518444 -0.0786539
0 0 0
-0.149806 0.127233 -0.0677495
0 0 0
0.18769 -0.0477187 -0.403268
0 0 0
0.020334 -0.101778 0.264839
0 0 0
0.214829 0.0780337 -0.0240774
0.119859 0.0724021 0.000433345
0 0 0
-0.136215 0.0693641 -0.221994
0 0 0
0 0 0
-0.0674847 0.347398 -0.111022
-0.114904 -0.0723524 0.348252
0 0 0
-0.112577 0.0759373 0.0158012
2.42198e-05 0.158555 0.0608983
-0.0613067 0.00903198 0.060998
0.130062 -0.139636 0.523288
0 0 0
0.0324125 -0.0286286 0.0752787
0.306582 -0.203592 -0.0533147
0 0 0
0.149525 -0.198549 -0.00349177
0 0 0
-0.0760128 0.0280045 0.437299
0 0 0
-0.0197792 0.134144 0.321877
0.104717 3.14471e-07 0.201883
0 0 0
-0.104987 -0.247235 0.295824
0.112964 -0.0506092 0.0402156
0.0376942 -0.189865 -0.215249
0 0 0
0 0 0
0 0 0
0.137617 0.033283 -0.0137948
0.00210959 0.0580876 -0.256627
0 0 0
0 0 0
0.047438 0.226798 0.147703
0.0286023 -0.0561293 -0.00212463
0.00207122 -0.297602 0.217803
-0.0359242 0.110837 0.000328012
0.0741182 0.000126092 -0.0835787
-0.0586569 -0.102664 -0.00925528
0 0 0
0.0136848 0.0625523 0.275864
-0.185041 -0.00158125 -0.0979178
-0.0701077 -0.0664745 -0.0432768
-0.268839 -0.14608 -0.0243633
-0.0827678 0.0815935 0.0393313
-0.00389632 -0.128597 -0.126351
-0.0921946 0.121417 0.0841946
0.00015417 -0.00677343 -0.000202893
0.29828 0.0451078 0.183722
0.000314316 0.00041975 -0.0180415
0.329651 0.280344 -0.285949
0.00604323 -0.00864724 0.00470729
0.140064 -0.584296 0.0808149
0.136815 -0.379587 -0.0655637
0.0552662 0.0602625 0.007784
-0.0311505 -0.0855045 0.0741624
0.10745 0.201927 0.162008
0.00921069 -0.0939544 0.0420935
0.00309797 0.422762 0.223236
0 0 0
0.087753 -0.0452439 -0.0694387
0 0 0
-0.0307509 -0.000327533 -0.24923
-0.000347104 0.0582021 0.0323735
0.0925914 0.0714034 -0.150033
0.0428462 0.0208524 -0.00942717
0.0334913 0.15707 -0.2007
-0.286165 -0.171592 0.214033
0.0767612 0.0773354 0.0301887
-0.255747 0.273165 -0.0544576
0 0 0
0.0602265 -0.0402607 -0.51668
-0.00262089 -0.163804 -0.00472145
-0.0755816 0.0105537 -0.079607
-0.448142 0.177844 -0.179934
-0.138724 -0.301933 0.00867398
-0.444552 -0.408877 -0.139167
-0.130741 0.024692 -0.0440109
-0.13305 -0.334345 -0.107259
-0.0655918 0.120232 -0.0871321
-0.0305816 -0.0186075 -0.0301028
-4.20709e-05 0.0766077 0.0472739
-0.125755 -0.0378616 -0.35183
0.296954 -0.288023 -0.119564
0.00119257 -0.0384914 0.0413546
-0.024921 -0.0254761 0.121014
0.0307104 0.0430143 -0.092067
-0.0751837 0.223675 -0.0359572
-0.276165 0.0924309 -0.0606487
-0.171203 -0.077789 -0.325644
-0.0228455 0.0323725 0.0597101
0.0789347 -0.104916 0.00522367
0 0 0
0 0 0
0 0 0
-0.177912 0.547202 -0.0301892
0.119742 0.05376 -0.113799
0 0 0
0.128241 -0.0243621 -0.411775
0.317192 -0.0842064 0.133124
0 0 0
-0.314176 -0.0716523 0.225401
0.0825588 0.132519 -0.0680983
0.382026 0.0792775 -0.311281
-0.143434 -0.0722786 -0.0262085
-0.243948 -0.12489 -0.00200675
0.156153 0.258822 0.0401754
0.0944553 0.0991805 -0.504955
0 0 0
0 0 0
0 0 0
0 0 0
-0.175367 -0.0105877 -0.185277
0.0507411 -0.0378189 -0.0264751
-0.323215 0.229534 -0.284484
0.146633 0.0553832 -0.0893428
0 0 0
0.161153 0.11167 -0.236604
0.0326875 0.0542266 -0.000196696
0.0493543 -0.0968627 -0.102566
0 0 0
0.043199 -0.0176861 0.0230127
0 0 0
-0.0205471 0.107469 0.0803345
-0.00245689 0.0122226 -0.126127
0.172502 0.161948 -0.295007
0 0 0
0.443726 -0.240024 0.0415924
0.0459311 0.155806 0.0645126
-0.00150935 -0.0129502 0.0118974
0 0 0
-0.00904133 0.0318275 -0.118436
-0.00630404 -0.00421383 0.097361
0.207997 0.190725 0.165507
0.308106 0.244209 -0.0123274
0.276119 -0.0451854 -0.166192
-0.0886039 0.0354225 0.00130965
-0.0924248 0.103316 0.100269
0 0 0
0.145194 -0.00893444 -0.149553
0.0948313 0.0889177 -0.0301959
0.0395157 0.03506 0.00234504
0 0 0
0 0 0
-0.011308 0.0855454 -0.0184743
-0.320523 0.332653 0.23117
-0.152277 -0.042402 0.282988
-0.0266059 -0.0524032 0.00401825
0 0 0
0.220471 0.19478 -0.080163
0.0018871 -0.0487784 -0.0644122
-0.0685353 0.425556 -0.0252078
-0.106572 0.0175617 0.120585
-0.159545 0.12159 0.0997875
0 0 0
0.0398652 0.315394 -0.066844
0.114491 0.0327076 -0.032077
0.128101 -0.0956233 -0.167953
0.0834364 0.181265 0.245242
0.0193901 -0.0961602 -0.0410691
-0.182131 0.210887 -0.0741049
0.115576 -0.0527053 -0.00848909
-0.214471 0.0191198 -0.484576
-0.0984541 0.0173087 0.0404409
-0.333977 0.103527 -0.342679
0 0 0
0.0189051 0.0984088 -0.0344217
0.299485 0.0939773 0.158167
0 0 0
0.203846 0.305663 -0.0766154
0.257893 0.37752 -0.205335
0 0 0
0 0 0
0.0671767 0.022627 0.0238432
0.0571737 -0.0258236 -0.00553155
0.52614 -0.336323 -0.13059
0.0547969 0.0151064 -0.0109151
0.709595 -0.00515308 -0.266094
0.00368583 0.00108104 0.00460625
-0.00804424 0.176519 -0.10632
0 0 0
0 0 0
-0.105674 0.238735 0.00641682
-0.0931019 -0.0239862 -0.0237128
0 0 0
-0.00174812 -0.0982392 -0.281307
-0.0973951 -0.102486 -0.0568352
-0.0243213 0.0651677 0.0826066
-0.0229849 0.0281711 0.0542017
0.0524891 0.0581024 -0.0404326
0.125031 0.0961526 0.202942
-0.230151 -0.341952 -0.145221
-0.117739 0.234328 -0.00120159
-0.342796 -0.35399 -0.520351
-0.0236589 -0.0410288 -0.00547085
0 0 0
0 0 0
0.0226075 0.0189216 -0.0020201
0 0 0
0.367473 0.232426 -0.149574
0 0 0
0.161838 -0.125342 0.241106
0 0 0
0.0634811 -0.549024 -0.350474
0 0 0
0.531459 -0.163692 -0.116883
0.00413411 -0.0518482 -0.106915
0.000469947 -0.232199 0.0847566
0.0438164 -0.133423 -0.332474
-0.0239523 -0.0163716 -0.0239254
-0.221893 -0.433479 0.0895244
-0.31983 -0.00228897 -0.136186
-0.235523 -0.0958822 0.0603898
0 0 0
-0.0418175 0.0597024 -0.000522701
0 0 0
-0.0865359 0.048207 -0.12401
-0.0907828 -0.0255136 -0.287769
-0.000882808 -0.0241568 0.0423167
0.151026 0.00757328 0.0124626
0.364555 -0.147625 0.321286
-0.16149 0.154697 0.111166
-0.00186913 -0.01682 0.0157907
-0.103371 -0.0111745 0.0258599
-0.0231661 -0.271538 0.131498
0 0 0
0.0364727 -0.215249 -0.0398127
0.0659478 -0.372864 -0.168055
0 0 0
0.188465 0.221615 -0.165936
-0.0411865 0.00231806 0.00457738
-0.0975919 0.151606 0.32201
0.0373624 0.0549677 0.223517
0.0607039 0.0397489 0.0215994
0 0 0
0 0 0
0.169626 0.00185431 -0.0176504
0.111829 0.0959722 -0.000311971
0.309017 0.107084 0.0196722
0.284226 -0.0383741 0.170205
0.144406 0.134532 0.0479068
0.325591 -0.0496941 -0.0145962
0 0 0
0 0 0
-0.0392029 0.18829 -0.240842
-0.0343897 -0.0824673 -0.000794928
-0.0988324 0.0296329 -0.0503649
0.0738494 0.0324121 -0.00106779
0.0984144 -0.00882152 0.0401516
0.0834612 -0.223536 -0.0383671
0 0 0
0 0 0
0 0 0
0.0182944 0.147177 0.00625203
0 0 0
-0.0338418 -0.160114 -0.40822
0 0 0
0.0581327 -0.00496304 -0.00249789
0 0 0
-0.0969993 -0.10151 -0.180055
0 0 0
-0.0541236 0.0434878 0.234816
-0.0974302 0.0521068 0.223741
0 0 0
-0.0156521 -0.0858761 0.449365
0.0789712 0.184586 0.024502
0.00186865 0.0400233 0.126694
0.0334869 0.431369 -0.195761
0 0 0
0.150165 0.0225204 -0.0789162
0 0 0
-0.212118 -0.0227446 0.000626494
-0.0497989 0.0378961 0.040734
0 0 0
-0.0630787 0.230032 0.000337406
-0.130254 0.0249059 0.0734427
-0.656216 0.0939022 -0.308097
-0.150844 -0.0322356 0.264391
-0.158157 0.0317366 0.0454814
0 0 0
-0.0615852 -0.0760267 -0.185552
0 0 0
-0.0374817 0.235143 -0.142165
-0.0362388 0.0796648 -0.0424642
-0.423529 0.436289 -0.101898
0 0 0
0 0 0
-0.0403118 -0.164096 -0.428626
0 0 0
0.168388 -0.223704 -0.00348441
0 0 0
0.0512293 -0.189151 0.0522485
0.0462279 -0.0230312 -0.0482621
0.174255 -0.181846 -0.00600299
0 0 0
0.258204 0.191125 0.239339
0.094689 -0.0608321 0.243634
-0.0102848 0.50821 -0.134503
0.0770045 0.0119685 -0.19455
0 0 0
0.0908436 -0.00310207 -0.431533
-0.00802096 0.0425183 -0.0156566
0.0605326 0.0425671 0.15815
0 0 0
0 0 0
0.10732 0.0198278 0.0818543
-0.00482789 -0.212807 -0.00177224
-0.0661549 -0.119742 0.00159352
-0.133868 0.0440339 -0.0601197
0 0 0
-0.303344 0.203594 -0.404814
-0.120072 -0.0744092 -0.0432101
0.150992 -0.44146 -0.0159401
0 0 0
-0.28697 0.354596 0.0364912
-0.0571648 0.0648401 -0.0146656
0.0296286 -0.162746 0.00839417
0 0 0
0 0 0
0.0619992 0.2723 -0.165106
0 0 0
0.253272 0.13268 0.12256
0 0 0
-0.0280834 0.216758 -0.0333783
0.016166 -0.00991752 -0.0129303
0.136645 -0.0823776 -0.234391
0.110369 0.172141 -0.00779055
0.113261 -0.120414 -0.0947771
0.0466864 0.309486 0.206704
-0.0290231 0.225726 0.00864112
0.0537584 0.00468037 0.00046386
0.00202056 -0.0276135 -0.00665602
0.0993383 0.0180072 -0.0948984
0.00920075 0.107968 -0.0514954
-0.100637 -0.3467 -0.293343
0 0 0
-0.089029 0.0301217 0.0923557
0.191131 0.260945 0.252291
-0.00230628 0.0108568 -0.041794
-0.00614369 0.000294075 -6.39256e-05
0 0 0
0 0 0
0 0 0
0 0 0
0 0 0
-0.214227 0.19913 0.144346
-0.139043 0.0798567 -0.105474
-0.0687721 -0.16559 -0.191762
-0.0978982 0.095381 0.160183
-0.0439981 -0.0961889 -0.162636
-0.0820499 0.0421894 -0.280026
0 0 0
0 0 0
-0.035625 -0.00255241 0.0876064
-0.0399119 -0.0354702 -0.185216
0 0 0
-0.0233541 0.115967 0.0627328
0 0 0
0.106642 -0.0359055 0.2886
0 0 0
-0.0519407 0.491692 -0.377401
-0.11734 -0.0658311 0.0964077
-0.231172 -0.0346798 0.229108
-0.0553788 -0.0234379 0.00111123
0.182673 -0.215245 0.0548645
-0.0486134 0.0728431 0.0487073
0.0360246 -0.0993467 0.0704278
-0.0117801 0.0144816 0.0322767
0.0741869 0.169773 -0.151951
0 0 0
-0.121498 -0.088548 0.0186565
-0.099163 0.132084 -0.180405
-0.0974827 -0.278899 0.131701
0.150535 0.0242907 -0.139761
0.00328093 -0.0453779 -0.165437
0.0704847 0.090313 0.0531534
0.134375 0.590598 -0.0309645
0.22182 0.127491 -0.0105167
0.196556 0.183974 0.0622009
0.019355 0.0187091 0.0840149
0 0 0
0.120445 -0.0586557 -0.0377338
0.16652 0.134115 -0.197875
0.142652 0.236479 -0.326041
0.00280778 -0.0304495 0.0697967
-0.113351 0.196237 -0.255525
0 0 0
-0.373747 0.00221301 -0.225439
-0.0754682 -0.00340322 -0.0885997
0 0 0
0.0688852 0.137241 -0.0404659
0.246443 -0.0142051 -0.0501515
0 0 0
0.0179473 0.0926779 0.185104
0.148084 -0.249489 -0.183645
0.117833 0.180202 -0.131252
0.146856 -0.233964 0.0635077
0.000432143 0.0893585 -0.0630291
0.00837878 -0.217867 -0.0674239
0 0 0
0 0 0
-0.154871 -0.0927431 0.115672
-0.0615071 -0.0314477 0.448217
0.0876117 -0.196075 -0.0131955
0.266682 -0.428739 0.153508
0 0 0
0.118945 -0.343076 -0.130536
0.167902 0.134116 -0.0334705
0 0 0
0.093833 0.133331 0.046284
0.0433349 -0.267604 0.21514
0.00199405 0.0125514 0.00126465
0.00202377 0.0910465 -0.0319683
0 0 0
-0.0175017 0.0952878 0.158713
-0.125602 0.0120603 0.011319
-0.0434716 0.108984 0.107289
-0.00310335 -0.0696898 -0.00140019
-0.207056 0.167582 -0.082731
-0.0125429 -0.0704091 0.105152
-0.000593291 0.00689914 -0.454999
0 0 0
0 0 0
-0.00209344 0.094536 0.14948
0.158971 0.0809177 0.150191
-0.0216753 -0.0354191 0.0374361
-0.187308 0.0653396 0.265626
0.120202 0.217214 0.0228555
0.262843 -0.0718835 -0.258308
0.00703164 -0.192311 0.0671823
-0.205822 -0.62531 -0.143568
0 0 0
0.060407 -0.145581 0.0190137
0.0164982 0.0555236 -0.0299144
-0.333075 -0.236495 -0.0317807
-0.000972049 0.0261287 0.139477
-0.467382 -0.0256243 0.319138
-0.109863 0.0149623 -0.0680756
-0.0175377 0.232067 -0.457922
0 0 0
-0.0400355 0.102018 0.0442382
0.0672018 0.0640792 0.237658
0 0 0
0 0 0
0.110048 0.184564 0.0558057
-0.000812525 0.0445755 -0.11603
-0.0473362 -0.0121099 -0.22751
0 0 0
-0.0728648 0.15618 -0.0170622
0 0 0
-0.30831 0.240459 0.11139
0 0 0
-0.0100372 0.242241 -0.175733
-0.0110117 0.0474054 0.155077
0.275667 -0.24432 0.297946
0 0 0
0 0 0
-0.134349 -0.0615424 -0.121792
-0.159114 -0.0254159 -0.0457461
0.0883764 0.0703718 -0.172437
0 0 0
0.145297 -0.196507 0.0748787
-0.0485473 0.0315726 0.0336914
-0.0603788 -0.0329415 -0.00825725
-0.0130884 0.178415 0.351286
-0.0459619 0.144459 0.215523
-0.0977213 0.10164 0.198489
-0.112137 0.0149543 0.0751605
0.0409869 -0.130161 -0.0961198
-0.286616 -0.304877 0.0461373
0.00354203 -0.0816208 -0.144874
0.0306116 -0.110526 -0.137488
0 0 0
-0.0377842 0.0652439 -0.151789
0 0 0
0 0 0
-0.161565 -0.33414 0.0569098
0 0 0
-0.0962776 -0.243012 -0.0832785
0 0 0
-0.0597419 0.111527 0.114108
-0.0357786 -0.244301 0.134347
-0.0173989 0.0396854 -0.0697209
-0.107614 0.269116 -0.0416789
0 0 0
0.0400261 -0.0348099 -0.0938448
-0.251192 0.327136 -0.214732
0 0 0
0 0 0
0.14333 0.0736193 0.430452
0.109452 -0.212182 -0.134814
0.0622019 -0.113092 0.144007
0 0 0
0.144537 -0.0308842 -0.180888
0.090587 0.399603 -0.335393
0.104994 0.0681097 0.104557
-0.114951 -0.0381698 0.154162
-0.0897967 0.126242 -0.0626581
-0.00237454 0.112703 0.0967361
-0.0336915 0.126629 -0.12182
-0.147261 0.0895249 -0.0565214
-0.0235945 0.019152 -0.0400125
-0.0820332 0.0981995 -0.102463
-0.211754 0.0040853 0.0445256
0 0 0
-0.0220271 0.0100553 0.0141263
-0.0922646 -0.0726294 0.0953931
-0.00330708 0.0281944 -0.106432
0.119714 -0.310831 0.100374
-0.000856634 0.0385194 0.00854143
0 0 0
0.0602404 -0.00277938 0.169716
0.036471 0.321272 0.00868836
-0.156712 -0.182035 -0.0435819
0.00631415 0.042316 0.241605
-0.117994 0.247288 0.0942403
-0.184467 -0.00640931 -0.184557
-0.00538764 0.000811399 0.0545534
-0.0224369 0.140969 -0.03208
0.053604 0.176934 0.360493
0 0 0
-0.117029 -0.148641 0.107604
0 0 0
0.000191084 0.0596103 -0.00539656
0.061317 0.0358276 0.00351352
0 0 0
-0.12881 -0.0655866 0.151712
-0.0290705 0.150159 -0.0242434
-0.155459 0.0184489 -0.0414886
-0.348005 -0.0557276 0.343926
0 0 0
0 0 0
0 0 0
0.00632481 -0.0006042 -0.00112328
0 0 0
0.250705 0.172931 0.00155202
0.0750245 0.00699444 0.110194
0.0821423 0.0674569 0.00402915
0 0 0
0.0184424 0.0906603 -0.123264
0.153572 0.0193377 0.153883
0 0 0
0 0 0
0 0 0
-0.0786466 0.039994 0.195107
-0.00020049 -0.0189076 0.0379146
0.00404224 0.383075 0.151966
-0.0694915 0.00906979 -0.0151382
0.139716 -0.0148606 0.130065
0.124354 0.100438 0.0171149
0 0 0
0.160547 0.0407049 0.0124895
0 0 0
0.112843 -0.0138665 0.105792
0.10265 0.130031 0.0108619
-0.111331 0.311575 0.0202582
0.0677376 0.0136415 -0.346484
-0.00402411 -0.105028 -0.191915
0.0398566 0.0416401 -0.0396455
-0.0802347 0.0661914 0.023281
0.027685 0.0105147 0.0373882
0 0 0
-0.0130394 0.123822 -0.524146
-0.0412944 -0.0587129 0.00413683
-0.0927575 -0.0553721 0.0173884
0 0 0
0.192705 -0.548819 0.419998
0.0561064 -0.0053213 0.0983676
-0.00971957 0.00341996 -0.162699
0 0 0
0.00494729 0.142815 -0.24453
0 0 0
0.0168462 0.202074 -0.128452
0.417942 -0.0366516 -0.152759
0.173528 0.237574 0.392716
-0.0453733 0.123942 0.171827
0.0455021 0.178747 -0.00851509
0.322539 0.156671 -0.30053
-0.105691 -0.183533 -0.233108
0.248477 -0.0265031 -0.336314
0 0 0
-0.203569 -0.0183781 -0.141869
0.101849 0.277347 -0.281898
0 0 0
0.00267448 0.0564572 -0.106371
0 0 0
0 0 0
0 0 0
0 0 0
0 0 0
0 0 0
0 0 0
0 0 0
0 0 0
0 0 0
0 0 0
0 0 0
0 0 0
0 0 0
0 0 0
0 0 0
0 0 0
0 0 0
0 0 0
0 0 0
0 0 0
0 0 0
0 0 0
0 0 0
0 0 0
0 0 0
0 0 0
0 0 0
0 0 0
0 0 0
0 0 0
0 0 0
0 0 0
0 0 0
0 0 0
0 0 0
0 0 0
0 0 0
0 0 0
0 0 0
0 0 0
0 0 0
0 0 0
0 0 0
0 0 0
0 0 0
0 0 0
0 0 0
0 0 0
0 0 0
0 0 0
0 0 0
0 0 0
0 0 0
0 0 0
0 0 0
0 0 0
0 0 0
0 0 0
0 0 0
0 0 0
0 0 0
0 0 0
0 0 0
0.00708892 0.0315176 0.0137356
0.0777792 -0.0466023 0.0111575
0 0 0
-0.024569 -0.0246408 -0.0549875
0.0548831 -0.0037673 -0.00560076
0 0 0
-0.0685576 -0.174788 0.219864
0.00398155 -0.0220304 -0.0621966
-0.0219145 -0.150413 0.035931
-0.0221544 0.124871 -0.0129879
0 0 0
-0.0871425 0.0083516 0.0635131
-0.0905181 -0.0273391 0.00878698
0 0 0
-0.0641923 -0.107689 -0.0159475
-0.115094 0.100406 0.0859965
-0.0305653 -0.0687799 -0.131537
0.0445769 0.0361728 -0.0514709
0 0 0
-0.0399132 0.0380885 0.0686226
-0.0159621 -0.0382221 0.033846
0.000637395 -0.0155753 -0.011194
0.0424562 0.085226 0.0220738
0.0657064 0.144649 -0.113069
0.0162026 -0.0229842 0.096283
0.0929972 -0.01614 -0.0416305
0 0 0
0.155289 0.000625195 -0.0374805
-0.241274 0.122155 0.0278275
0.00626599 -0.130548 0.0031361
-0.0786276 0.0413844 -0.0747931
-0.118976 -0.0360634 -0.0712784
-0.00889241 0.000361259 0.00318682
-0.010661 0.0866686 0.109249
0 0 0
-0.0194451 0.000188306 0.031687
-0.0465564 0.0071894 0.123566
0 0 0
0.0721841 -0.016623 -0.151442
-0.00379609 -0.0158292 0.118458
-0.0415235 -0.00337903 -0.0730688
-0.000542032 0.0191684 0.133428
0 0 0
-0.0252244 -0.0409473 -0.0256053
-0.0497455 -0.00323278 0.0177369
-0.0235831 0.00243776 -0.00528628
-0.0563552 -0.100496 0.083342
0.060169 0.0463695 0.067064
0.0137365 -0.0515178 0.00069537
-0.0674708 -0.0162793 -0.071891
0 0 0
0.0302648 -0.00174078 -0.09114
-0.0393906 -0.11526 -0.0587734
0 0 0
-0.0602 0.0137556 -0.0374964
0.0478617 -0.0496041 0.00528899
-0.00205135 0.0189282 0.01132
-0.0228247 0.0907717 0.0225311
-0.0321681 0.102941 -0.05759
-0.0937466 0.0908188 -0.00910186
0.25108 -0.00219253 0.0245519
0 0 0
-0.0530738 -0.0139147 -0.084517
-0.0329256 -0.00318483 0.00693178
0.420712 -0.125654 0.185067
-0.00132079 -0.12881 0.0395687
-0.056276 0.136974 0.017314
-0.398737 0.328049 0.0547952
0 0 0
-0.114329 -0.10419 0.213519
0.0153555 0.136223 -0.379581
0 0 0
0 0 0
0.0696467 -0.307467 0.28662
-0.00105954 0.0246329 -0.0895923
-0.17457 -0.176265 -0.000619548
0.0138543 0.14538 0.0911968
0.0475112 0.0394279 -0.0219087
0 0 0
-0.285994 0.0352634 0.207089
-0.233979 0.255418 0.144316
0 0 0
0.207776 0.0227131 -0.144253
0.165911 -0.244208 0.197284
0.121321 0.260849 0.057943
0.0925443 0.295334 0.310341
0.158598 0.120634 0.12724
-0.383955 0.233688 0.316254
0.00637634 0.0329774 0.0237905
0.0795852 0.150029 0.26677
-0.0675238 0.0632753 -0.234886
0 0 0
0.127057 0.0948257 0.0729531
0 0 0
0 0 0
0.12515 -0.299089 0.0526636
-0.117258 -0.0268112 0.528513
0.0371191 -0.0517473 0.112511
-0.235904 0.40603 -0.110673
0 0 0
-0.0646855 0.127841 0.177889
0 0 0
0.00781691 0.29945 -0.0432598
0 0 0
-0.0948056 0.0408033 0.244051
0 0 0
0.0836828 -0.00854439 -0.015784
0.308282 0.526105 0.0199434
0.105168 0.240107 -0.0425401
-0.0529859 -0.0912608 0.0206428
0 0 0
0.236976 -0.137618 -0.0307779
0.0029684 0.0120645 0.00993697
0.00545408 0.123089 0.118548
0 0 0
0.162149 0.198804 -0.0654969
0.16195 0.0731585 0.288457
-0.00124591 0.0823288 -0.00122887
-0.0104331 0.163648 0.120861
0.440126 0.0338664 0.309606
-0.213303 0.047512 -0.11926
0.100027 -0.0795079 -0.0243684
-0.251481 -0.28679 0.210786
-0.0782897 -0.052418 -0.0721092
0.302034 -0.0740369 -0.133269
0 0 0
-0.32366 0.214873 0.0127185
0 0 0
-0.176598 -0.0473489 0.472503
0 0 0
0.0020628 0.273918 0.129813
-0.0739754 0.0203767 -0.139811
-0.486312 -0.406142 -0.200851
0 0 0
-0.15519 0.141183 0.510379
-0.119996 0.379804 0.130314
0 0 0
0.152376 0.341193 0.0199543
-0.24803 -0.341881 0.154253
-0.268785 0.0330037 -0.159019
0.101622 -0.225101 0.38377
0.179476 -0.0650574 -0.063056
-0.276596 -0.292162 0.146637
-0.13631 -0.0951523 0.015914
-0.0677544 0.0409244 0.177026
-0.16009 -0.0651562 0.00654796
-0.260332 0.136505 0.0485251
0 0 0
-0.0210327 0.084635 0.00373489
0.00365402 -0.0101372 -0.0383794
0.121299 -0.413684 -0.131573
-0.000224224 0.0326853 0.0575455
0.362701 0.20298 0.430569
0.206202 -0.218404 -0.0247224
0 0 0
0 0 0
0.017229 0.0229937 0.0065891
0 0 0
0.00624677 -0.150286 0.0925052
0 0 0
-0.633353 -0.37375 0.210895
-0.00548138 -0.00252875 0.00619692
0.0883734 0.100345 -0.0781724
0.446347 0.126881 0.298778
0.102537 -0.0807994 0.303969
-0.182718 0.190459 0.347303
-0.255881 -0.412128 -0.175741
-0.0976686 -0.00194199 0.0506639
-0.0127669 -0.0957486 0.0391213
0 0 0
-0.0840779 0.0353906 0.319032
0 0 0
-0.0864957 -0.0889182 0.257041
0.0005177 0.056452 0.0567415
0.11051 0.179497 -0.0699735
0.00173232 -0.260797 -0.0330196
-0.00353482 -0.176347 -0.0486225
-0.139285 0.123735 -0.00413123
0 0 0
-0.256967 0.104664 0.0582744
0 0 0
0 0 0
-0.0754757 0.314777 -0.0448596
-0.0259263 -0.0553909 -0.330995
0.00416251 0.16764 -0.000625567
0 0 0
-0.0368668 -0.0276767 -0.0891927
-0.0771309 0.0515192 0.0914077