<?xml version="1.0"?>
<VTKFile type="RectilinearGrid">
<RectilinearGrid WholeExtent="0 32 0 32 0 32" Origin="0 0 0" Spacing="1 1 1">
<Piece Extent="0 32 0 32 0 32">
<PointData>
</PointData>
<Coordinates>
<DataArray type="Float32" format="ascii">
0 0.524874 1.04975 1.57462 2.0995 2.62437 3.14924 3.67412 4.19899 4.72386 5.24874 5.77361 6.29849 6.82336 7.34823 7.87311 8.39798 8.92285 9.44773 9.9726 10.4975 11.0224 11.5472 12.0721 12.597 13.1218 13.6467 14.1716 14.6965 15.2213 15.7462 16.2711 16.796 
</DataArray>
<DataArray type="Float32" format="ascii">
-5.03879 -3.62163 -2.20447 -0.787311 0.629849 2.04701 3.46417 4.88133 6.29849 7.71565 9.1328 10.55 11.9671 13.3843 14.8014 16.2186 17.6358 19.0529 20.4701 21.8872 23.3044 24.7216 26.1387 27.5559 28.973 30.3902 31.8074 33.2245 34.6417 36.0588 37.476 38.8931 40.3103 
</DataArray>
<DataArray type="Float32" format="ascii">
0 0.524874 1.04975 1.57462 2.0995 2.62437 3.14924 3.67412 4.19899 4.72386 5.24874 5.77361 6.29849 6.82336 7.34823 7.87311 8.39798 8.92285 9.44773 9.9726 10.4975 11.0224 11.5472 12.0721 12.597 13.1218 13.6467 14.1716 14.6965 15.2213 15.7462 16.2711 16.796 
</DataArray>
</Coordinates>
<CellData>
<DataArray type="Float32" Name="Vector" NumberOfComponents="3" format="ascii">
0 0 0
0 0 0
0 0 0
0 0 0
0 0 0
0 0 0
0 0 0
0 0 0
0 0 0
0 0 0
0 0 0
0 0 0
0 0 0
0 0 0
0 0 0
0 0 0
0 0 0
0 0 0
0 0 0
0 0 0
0 0 0
0 0 0
0 0 0
0 0 0
0 0 0
0 0 0
0 0 0
0 0 0
0 0 0
0 0 0
0 0 0
0 0 0
0 0 0
0 0 0
0 0 0
0 0 0
0 0 0
0 0 0
0 0 0
0 0 0
0 0 0
0 0 0
0 0 0
0 0 0
0 0 0
0 0 0
0 0 0
0 0 0
0 0 0
0 0 0
0 0 0
0 0 0
0 0 0
0 0 0
0 0 0
0 0 0
0 0 0
0 0 0
0 0 0
0 0 0
0 0 0
0 0 0
0 0 0
0 0 0
0.0954579 -0.0104892 -0.0135854
0.133076 0.0580098 0.0695442
0 0 0
0.084367 0.120464 -0.0655866
-0.078876 0.0702313 -0.0249985
0 0 0
0.0785715 0.138511 0.0317864
-0.0707162 0.132973 0.0993496
-0.057496 -0.057889 -0.103479
0.21497 0.259616 -0.0320481
0.00114321 0.00583818 -0.0214392
-0.147944 0.0749698 0.0521531
-0.0832692 0.337869 -0.0434584
-0.00794902 -0.0155679 0.0399381
0.117333 0.168995 -0.0102327
-0.166973 0.0038605 -0.110191
-0.0615837 -0.055465 0.0913011
-0.104279 -0.0408548 -0.0310799
0.0220131 0.0441625 0.0561053
-0.182716 0.0244967 -0.0287904
-0.0193794 -0.122121 0.0293846
0.000456074 -0.00489686 -1.54197e-05
0.105718 0.0318791 0.0034963
-0.160784 -0.05427 -0.00691759
0.0273245 0.167886 -0.0113881
0.0448929 0.231116 -0.0073214
0 0 0
0.0843425 0.035523 -0.00526231
0.126089 -0.196017 -0.0334046
0 0 0
-0.0901461 -0.0665121 0.0300266
0.0654265 -0.0627561 0.0728035
-0.16485 0.0481571 0.0448862
-0.024551 0.109028 -0.046208
0 0 0
-0.228053 -0.141672 0.0132873
0.113237 0.00273137 0.023275
0 0 0
0.285877 -0.418557 0.00561493
0 0 0
0 0 0
-0.0666928 -0.150594 -0.00926675
0 0 0
0.0292783 0.00638949 -0.0408098
-0.32908 -0.244566 -0.0161671
-0.0478 -0.0605874 0.0153503
-0.0633746 0.0225195 -0.00511514
0.0225483 0.0209426 -0.00553523
-0.0218976 0.0120388 0.0138628
-0.0981696 -0.0266691 0.065393
0 0 0
0.0093651 -0.239807 -0.0357663
0 0 0
0 0 0
-0.204135 -0.170835 0.0170052
0 0 0
-0.0261698 0.0219036 -0.0392264
0.376486 -0.0483492 -0.00365175
0 0 0
0.0479172 -0.00954819 0.080945
0.0162481 0.0409289 0.0274323
0 0 0
0.0111475 0.0473145 0.1669
-0.107731 0.00341186 -0.0439194
0.00356449 0.0400913 -0.0208785
0.055028 0.206505 -0.0522624
0 0 0
0.0749624 -0.168207 -0.101862
-0.00472176 -0.189228 -0.0468437
-0.019391 0.500232 -0.336861
-0.143275 -0.0322146 -0.173014
0.160149 -0.408628 0.246158
0.0447415 -0.121179 0.0667394
0.111334 0.286841 0.255756
0 0 0
0 0 0
-0.242084 -0.00746786 -0.382659
-0.159237 0.223236 -0.0900184
-0.35879 0.180893 -0.120201
-0.0474188 -0.0183116 -0.000638977
-0.0658205 -0.0363253 -0.0267615
-0.0471496 0.142262 0.0144411
-0.291308 0.0268254 0.246903
0 0 0
-0.0907193 0.060626 0.283856
-0.0192809 0.487539 0.05351
-0.262741 -0.314439 0.0162028
-0.0369637 -0.035641 0.123982
0.138008 0.300425 0.338151
0 0 0
0.0988303 0.205706 0.040622
0.145636 0.025866 -0.071425
0.243286 0.280527 0.0536673
0.127159 -0.137874 0.256907
0.52925 0.113195 0.107493
0.0889159 0.2863 0.305747
0.0228609 0.200842 -0.130691
0.000951761 0.0805265 0.271868
0 0 0
-0.030674 0.00160513 -0.0372844
0 0 0
0 0 0
0.177649 0.0407502 0.186653
0.146961 0.00502149 -0.0302171
0 0 0
0 0 0
-0.212512 0.20748 0.241146
-0.0756084 -0.0513182 0.0202368
-0.0278432 -0.0150932 -0.0712525
-0.0476685 0.312462 -0.573842
0 0 0
-0.000750733 -0.119813 0.0410012
0.139107 -0.338809 0.187402
0 0 0
-0.109446 -0.120599 -0.0741923
0 0 0
0.0240345 -0.234481 -0.0424217
0.00835819 0.00185799 -0.00178602
0 0 0
0 0 0
0 0 0
0.109406 -0.108599 -0.000569367
0.0127963 -0.0527464 -0.111813
0.132956 0.0203678 -0.0744718
0 0 0
0 0 0
0.12488 0.25273 0.0020441
-0.069523 0.0441551 0.0309566
0 0 0
0.0185582 -0.0793766 0.223746
-0.152562 -0.140853 0.191266
0 0 0
-0.0491619 0.0385644 0.0833687
0.0695027 -0.159628 0.13644
0.00313131 0.00365147 0.00215642
0 0 0
-0.00238547 0.0651273 -0.00448823
0 0 0
0 0 0
-0.227736 -0.103894 -0.3459
-0.00135229 0.0478083 0.00680004
-0.189212 -0.107366 -0.512424
0 0 0
0.126116 -0.142282 -0.00471984
-0.137676 -0.0575094 0.13708
-0.262292 -0.319015 -0.235254
0 0 0
-0.360799 -0.166057 -0.366531
0.000445371 0.204256 0.0625043
-0.347702 0.153014 0.196292
0.0430627 -0.105097 -0.0459985
-0.414366 -0.102187 -0.282286
-0.00239703 0.0871624 0.0148208
-0.00264047 -0.149749 -0.0770955
-0.156405 0.0988796 0.00608236
-0.153396 0.0077865 -0.0569453
-0.0857912 -0.178664 -0.068564
-0.238848 -0.0485876 -0.137216
-0.405117 -0.0641945 0.219535
0.0155878 0.107334 -0.000567938
0.0609254 -0.0339133 0.000644957
0 0 0
0.233646 -0.446056 0.0544442
0 0 0
0.00326928 0.0671041 -0.00162011
-0.0269246 -0.124909 -0.00101874
0 0 0
0 0 0
-0.164412 0.233954 0.00524213
0 0 0
0.181216 0.0452601 -0.047731
0.0814253 0.244998 0.146183
0.250421 0.0190312 -0.0923579
0.19094 -0.0713706 0.174223
0 0 0
-0.00992208 -0.0203565 0.00818907
0.149766 -0.11992 -0.23216
0.00181932 -0.111191 0.0408845
0 0 0
0.102544 0.388777 -0.172818
0.071761 -0.00455144 0.0610049
0.196186 0.305463 0.102019
0.0120801 0.382184 0.00364534
-0.000415739 0.0797908 0.0231496
0 0 0
0 0 0
0.0885342 -0.0854292 -0.0123943
0.0331055 0.288971 -0.0155161
-0.0212592 -0.0943943 -0.0312393
-0.0810661 -0.0181786 0.00423329
0 0 0
0.122638 0.113813 -0.00864525
0 0 0
0.143051 0.265171 0.104266
0 0 0
-0.243897 0.39241 0.0637872
0.288743 0.137763 -0.048348
0.0204389 -0.0485038 0.0736691
0 0 0
-0.0439205 -0.385048 0.268549
0 0 0
0.270534 -0.512025 -0.124367
0 0 0
-0.0574975 0.0572622 0.043249
-0.658884 0.763919 0.0164914
-0.00117932 0.00490302 -0.00146131
-0.215297 0.0835737 0.17224
-0.188097 -0.0620062 0.0517214
-0.23952 0.0537551 0.0827946
-0.211793 -0.354053 0.303118
-0.0190865 0.334117 -0.0640069
-0.316745 -0.021296 -0.00529284
0 0 0
0 0 0
0.0770795 -0.0123801 0.169761
0.0428365 0.0952542 0.176316
0.316649 0.104096 -0.353932
0 0 0
-0.16427 0.0105831 -0.0831474
-0.436433 0.317518 -0.648906
0 0 0
0 0 0
0 0 0
-0.0751297 0.158703 0.0367463
0 0 0
0.150613 -0.034586 0.170254
0 0 0
-0.112295 0.409024 0.139853
0.00168438 0.0678974 0.0633455
-0.0422132 0.0934349 -0.0230109
0.151433 0.212893 0.25158
0 0 0
0.0842594 0.0516054 0.113231
0.0581548 0.0770162 0.147197
0 0 0
0 0 0
-0.0272244 0.459416 0.0464169
0.170599 0.204922 -0.00141805
0 0 0
-7.41716e-05 0.00206971 0.11638
0.153412 0.16631 -0.0185771
0 0 0
-0.464061 0.260509 0.0704691
0.245803 -0.337411 -0.526847
0.0558837 -0.192235 0.00851902
0.245577 0.0620704 0.0934314
0.125587 0.100056 0.164966
0.234138 0.32171 -0.0325606
0.200527 0.0213551 -0.000205473
0.245709 0.358805 -0.0621048
0 0 0
-0.0840924 0.0761158 -0.17129
-0.254126 0.0136453 0.0174043
0 0 0
-0.132522 -0.0973734 -0.272089
0.0135085 0.0467755 0.00614527
0 0 0
0 0 0
-0.00189958 0.255067 -0.00232413
0 0 0
-0.237115 0.363343 -0.167384
-0.127617 -0.162981 -0.182081
-0.231622 0.0404955 0.0153454
-0.158877 0.0856416 0.142268
-0.0976092 -0.0965418 0.0106382
-0.0556649 -0.0166048 0.0379257
-0.32811 -0.0557661 0.0742956
0 0 0
-0.0647811 -0.0191843 -0.0087904
-0.226927 0.273471 0.0615299
0 0 0
-0.0189726 0.334037 0.0143634
0 0 0
0.108547 0.542749 0.0601596
0 0 0
-0.00434026 -0.0244236 -0.169966
0.0465894 -0.005085 0.00744273
0 0 0
0 0 0
-0.0991244 0.106455 -0.190422
0.0265061 0.0740625 0.0205374
0.391212 0.493027 0.231662
-0.000753937 0.100885 0.101093
0.0388725 0.0161349 0.0757562
-0.147216 0.516096 -0.151851
0.00798572 0.125213 -0.174346
-0.0554613 0.184822 -0.268048
-0.0156313 0.0141074 0.0343895
-0.0673987 -0.0473217 0.376768
-0.00262612 0.0644023 0.0307144
0.000553071 0.0649437 -0.141639
-0.289273 0.120076 0.495382
0.0527162 0.423222 0.036616
-0.224655 -0.0969365 -0.0463438
-0.254939 0.167704 -0.129956
-0.281795 0.0893913 0.0196867
0 0 0
0.0871136 0.47382 -0.292977
-0.38941 0.0337481 -0.00631501
-0.114559 -0.0957373 0.057384
0 0 0
0.143139 0.225675 -0.274
0.0723174 -0.0883804 -0.109382
0.0131015 0.0168956 0.000942671
0 0 0
-0.0270431 0.0491581 -0.0021551
0 0 0
0 0 0
0.00321457 0.0671771 -0.140981
0.0274746 -0.112645 0.198652
-0.0718259 0.104732 -0.075498
-0.138075 0.174112 0.00182583
0 0 0
0.0718202 -0.0168265 -0.000996952
0 0 0
0 0 0
-0.0523182 0.0425146 0.00289736
0 0 0
-0.168362 0.183821 -0.00149735
0.105306 7.39775e-05 -0.0291679
0.237643 0.0732409 -0.102247
0.264989 -0.248185 0.342587
-0.04256 0.125079 -0.0727104
0.149565 0.0495605 -0.231192
0 0 0
-0.318197 -0.311142 -0.147412
0.0963039 0.0694753 0.238865
-0.0165347 0.00680014 0.0117054
-0.110952 -0.116722 0.174648
0.0729165 -0.0549547 -0.00520661
-0.0726589 0.449697 0.278686
0 0 0
0.196373 0.428079 0.357247
-0.226785 0.383699 0.186174
-0.0213138 0.0829796 0.128011
-0.0135698 0.0346265 -0.0645183
-0.0868704 -0.383881 0.0470718
0.025212 0.0294821 0.0130521
-0.0971918 -0.0790062 0.171806
-0.00816058 0.0609322 -0.0162679
0 0 0
-0.0157423 -0.0124226 -0.00488002
0.070239 0.400059 -0.0880934
0 0 0
0.307369 -0.0907809 -0.188335
0.000326667 -0.00331073 -0.0323298
-0.0475062 -0.294054 -0.00833474
-0.172519 0.0849848 -0.00791714
0.151231 0.176065 -0.145595
0.164129 0.0650286 -0.197403
0.267604 0.162753 -0.115003
-0.090446 -0.166887 -0.125608
0.0389287 -0.0187795 0.036403
0.0489285 0.0662542 0.0367267
0.082422 0.0492446 0.0839485
-0.00451045 -0.139388 0.148137
-0.115623 0.0535876 -0.153571
0.0316528 -0.0855732 -0.0116826
0.233445 -0.024501 -0.5144
-0.00549736 0.00490158 0.0112714
0 0 0
0 0 0
-0.0127964 -0.110813 0.255406
0.0138852 -0.100693 0.0951034
0.0180663 0.017239 0.00149016
-0.112281 -0.0398215 -0.133398
-0.000272759 0.254208 0.184647
-0.0466495 0.0344737 -0.0120527
0.25993 -0.253942 -0.0038135
0.0995158 0.0309939 -0.00265569
-0.151409 -0.0627635 0.240926
-0.164554 -0.126686 -0.0513083
-0.0167553 0.0370561 0.0661149
0 0 0
0 0 0
0.307778 -0.0517405 -0.347949
0.00272135 0.272412 -0.0979391
0.0846857 0.0348838 0.0577617
0.0040674 0.256894 -0.04746
0 0 0
0.228702 0.282684 0.0983113
0.0713795 -0.0535683 0.117954
-0.0440282 0.143336 -0.25219
0.0170538 -0.00874104 -0.0432835
0.321347 0.125601 0.0549805
0.0967072 0.176222 0.0148002
0 0 0
0.0161535 0.0645481 -0.0617636
-0.0118949 -0.0381309 -0.207036
0 0 0
0.0271996 -0.136042 -0.275293
0 0 0
-0.0713254 0.144909 0.01818
0.00172025 0.172296 0.313307
0.166707 0.214775 -0.0136487
0.0782626 0.0946402 0.0777658
0.0597114 -0.206877 -0.0543091
0 0 0
0 0 0
0.107427 -0.0649875 -0.120723
0 0 0
0.143258 -0.52667 -0.31381
0 0 0
-0.201849 -0.197762 0.187481
-0.0657475 0.0329521 0.00333356
0.00101554 0.0174002 0.0543542
-0.171421 0.0285922 0.16947
0 0 0
0.115342 0.0590965 0.11627
0.208231 -0.024691 0.00409822
-0.0297082 -8.23727e-06 -0.0073412
0.009213 -0.190915 -0.119667
0 0 0
0 0 0
-0.000416414 0.0584754 0.278915
-0.00893781 -0.0264331 0.0417236
0.202548 0.118028 0.00324202
0.0157857 -0.000444136 -0.000503252
0.197282 0.0523632 -0.187654
0 0 0
-0.107519 -0.207483 0.0281485
0.0571744 -0.384412 0.137441
0.0122847 0.00145129 0.0377395
0.00135925 0.227901 -0.084504
-0.0016061 0.172456 -0.0787544
0 0 0
-0.0995846 0.224227 -0.00476284
0 0 0
0 0 0
-0.0510729 -0.00419003 -0.0293198
0.0635802 -0.289605 -0.00533573
-0.00652761 -0.0594323 0.0760105
0.189747 -0.0604945 0.0558547
0.073232 -0.224707 -0.182752
0 0 0
0.0238033 -0.0294277 0.0312163
-0.0639925 0.00362399 0.0860636
0.061815 0.101479 0.104969
0.324553 -0.19229 -0.0158801
0.0147823 -0.0222159 -0.0250533
0 0 0
-0.0137236 -0.0105434 -0.0322372
0.0512383 -0.187536 -0.0151234
0.102994 -0.115095 0.0435068
0.0768406 0.330944 0.0353206
0 0 0
0.131478 -0.260773 -0.00901608
0 0 0
-0.097205 0.0499405 0.00511662
-0.0923186 -0.22763 -0.00454782
0.0444381 0.0310324 -0.112369
-0.0912935 -0.699032 -0.100333
-0.0179905 -0.282652 -0.178158
0 0 0
-0.0120941 -0.0677168 0.0881511
-0.525461 0.231103 -0.285374
-0.153356 0.00547796 0.0663127
-0.286638 0.470029 0.183377
-0.472038 0.312811 -0.026248
-0.405724 -0.212259 0.524104
-0.226992 -0.137097 -0.372356
-0.0545935 0.0282772 0.0316474
-0.139645 -0.00548382 -0.271069
-0.00101684 -0.333992 0.243054
0 0 0
0.00695552 0.0715662 0.267412
0.00256799 0.12309 0.0312952
0.00342749 -0.0620804 -0.0746039
-0.154271 0.0978639 0.104561
0.184706 0.0721771 0.100722
0.0894327 -0.11632 -0.175834
0.0730744 0.399622 0.0278339
-0.3775 -0.00788403 -0.219428
-0.0380826 -0.0346333 0.193436
0 0 0
0 0 0
-0.177228 -0.208955 -0.031511
-0.377657 0.040091 -0.015741
-0.236185 0.0454059 0.18777
-0.326336 0.0523799 0.255434
0 0 0
-0.0394767 0.152954 -0.10124
-0.0018911 -0.129613 0.0206729
0.0234601 -0.349354 0.209333
-0.000458273 -0.174213 0.0566008
-0.220863 -0.203108 0.0963475
-0.0253393 -0.00502906 0.000899133
-0.104812 -0.135887 -0.0373293
-0.367136 0.168495 -0.200046
-0.335818 0.131848 0.214794
0 0 0
0.105092 0.0766363 0.156183
0 0 0
0.0783575 0.130256 -0.000166704
0.119382 0.168513 -0.0709684
0.178567 -0.108288 0.339289
0 0 0
0 0 0
-0.0598276 0.00401607 0.015546
-0.2625 0.0819452 -0.0427004
-0.108475 0.102508 -0.13218
-0.427862 0.452347 0.124085
-0.0058051 0.0528039 -0.042461
-0.039746 -0.311268 -0.027741
0 0 0
-0.145783 0.0315223 0.244223
0.0037758 0.428018 -0.141269
0.0222304 0.00919592 0.0129991
0.0857968 0.16375 -0.00664552
0 0 0
-0.435917 -0.00856414 -0.0260326
0.143154 0.0550815 -0.0981649
0.00178552 0.0238279 0.289953
0 0 0
-0.0169117 -0.106837 -0.00151387
0 0 0
0.211328 0.0171276 0.0602868
0 0 0
-0.549323 -0.370997 0.546068
-0.043277 0.0506818 0.000249028
-0.467225 0.0980496 -0.517855
0 0 0
-0.137364 -0.544474 -0.226795
0.0349476 -0.0390879 0.110383
-0.0664124 -0.00881694 0.121616
0 0 0
0 0 0
0.00834826 0.0810128 0.207544
0 0 0
0.0982046 0.210589 0.035529
0 0 0
0.417083 0.210986 0.12382
0.0523693 0.0597673 -0.0105535
0.240849 0.42553 0.16643
0 0 0
-0.123089 -0.239641 0.00965028
0 0 0
-0.0398412 0.0228013 0.0524527
-0.00409629 0.0706372 0.136876
-0.261737 -0.0939251 0.0585726
0 0 0
0 0 0
0.172594 0.178369 0.160778
0.0825788 -0.160822 0.370048
-0.208297 0.0634598 0.18538
-0.00237008 0.0023389 0.117676
0.139406 -0.0513701 0.135162
0.158652 0.284543 0.00590154
0 0 0
0.109301 -0.266126 -0.000143707
-0.0490848 -0.104732 0.11742
-0.187043 -0.226053 -0.216553
-0.00673092 -0.00638956 -0.00224594
0 0 0
0.0207655 -0.450288 0.00157376
0 0 0
-0.0828945 -0.00391208 0.17246
-0.00403483 -0.0968276 0.0531966
0.144185 -0.0657065 0.416461
0 0 0
0 0 0
-0.234382 0.135331 0.134522
0 0 0
0 0 0
-0.0881514 0.2774 0.0622598
0.114661 0.322948 0.116682
0 0 0
0.128736 -0.000582519 0.10598
0 0 0
0 0 0
0.198481 -0.407637 -0.236321
0 0 0
-0.0963953 -0.0655697 0.0451187
-0.126852 0.072486 0.0179482
-0.244644 -0.0745713 0.336348
0 0 0
-0.0737395 -0.20563 0.0382126
0.0112593 0.0786356 0.277983
0 0 0
0 0 0
0.388879 0.340445 -0.0577661
-0.0146953 0.00939633 0.0291185
-0.224809 -0.0325654 0.00460605
-0.0360699 -0.0164819 0.0368917
-0.0247549 -0.127313 -0.145839
0 0 0
0.0940527 -0.0683779 0.0480964
0 0 0
-0.0989069 0.0838628 -0.119746
-0.018006 -0.000211043 0.0832127
0 0 0
-0.0794934 0.317282 -0.0703648
0 0 0
0.017006 -0.0419801 0.0308878
0 0 0
0 0 0
-0.0243936 0.0468076 0.349914
0 0 0
0 0 0
0.460956 -0.370591 -0.247623
0.0820834 0.116688 -0.0413119
-0.132957 -0.194901 -0.0987238
-0.416676 0.307144 -0.128235
0 0 0
0.0166352 -0.149166 0.112047
-0.0653425 -0.00490943 -0.0601846
-0.139445 -0.178349 -0.0422326
-0.119615 -0.419808 0.30556
0.00076756 0.221943 0.20548
-0.125048 -0.126921 -0.144457
-0.0129353 -0.149892 -0.153083
-0.106635 -0.141784 0.18459
-0.520617 0.172483 -0.352669
0.175643 0.366468 0.160566
0 0 0
0.120516 0.0270786 0.0770829
0 0 0
0 0 0
-0.110169 -0.311026 0.137405
-0.211067 0.164457 0.0520288
-0.116505 -0.177664 0.126494
0.0315401 0.0226028 0.128971
0.120544 0.406468 0.0288667
-0.00105908 0.22658 0.199787
-0.304309 0.0887434 0.313355
0 0 0
-0.0643065 -0.0514831 -0.00157578
-0.0217467 0.191883 -0.11631
0 0 0
-0.0150294 0.00551847 0.0405544
-0.000457421 -0.223243 0.131908
-0.0796826 -0.395157 0.0243974
-0.0650789 -0.0538011 0.0632237
-0.210411 0.115138 -0.0657852
0.000960085 -0.0442119 0.0260486
0.146306 0.153301 0.101122
-0.00278647 0.124898 0.0324411
0.0867126 -0.338822 -0.412236
-0.0209718 -0.152249 0.253873
-0.0710317 -0.544901 -0.0492028
0.242832 0.126174 0.312418
0.0188496 0.0196862 0.0771551
0 0 0
-0.0729269 0.072598 -0.120625
0 0 0
0.0910437 0.0160433 -0.0654691
-0.00564267 -0.323944 -0.302392
0.203405 0.165466 0.0606425
0.150932 0.400731 0.0465841
-0.0196962 0.00521897 0.0553266
-0.00912927 -0.0735268 0.0270444
-0.0603546 0.027207 0.039316
0.00155496 -0.0372553 0.0419877
0.00880197 -0.00220933 -0.0419859
-0.0314701 0.00792805 -0.0360399
-0.335395 0.207862 -0.486773
-0.0178088 0.421541 0.0786834
0 0 0
0.152941 0.388095 -0.117714
0 0 0
0 0 0
0.193815 0.153276 0.0284878
0 0 0
-0.302504 -0.366316 0.321404
-0.0598837 0.103934 0.198279
-0.472713 0.0790059 0.213887
-0.00102724 0.0541293 0.0560429
0.13922 0.220152 -0.101157
0.0478203 -0.0364743 0.0446552
0.0891161 -0.0463682 -0.526125
0 0 0
0.102893 -0.220397 -0.00620518
0.042646 -0.0461022 -0.0309161
0 0 0
-0.0718149 -0.0503059 0.242617
0 0 0
-0.0725155 0.0152029 0.0023063
0 0 0
-0.0525498 -0.000369472 0.142042
-0.130154 -0.153908 0.0961507
-0.257605 0.154608 -0.0932651
0.142948 0.208703 0.0996164
0.225007 0.085385 0.00629303
0.00271452 0.333759 0.068078
0.254356 0.0587403 0.0784486
0.126367 0.147026 -0.182427
0.234547 0.153774 -0.269159
0 0 0
0.0623942 0.157019 -0.198464
0.0688828 -0.0305219 -0.116006
0.00920494 -0.076987 -0.369705
0.29539 -0.00783092 -0.0783447
0.32517 0.0309634 0.0282259
0.42939 -0.0678634 -0.0968169
0.0483714 -0.0308875 -0.0315863
0.134464 0.114199 0.13458
0 0 0
0.00468112 -0.00210645 -0.000156726
0 0 0
0.301977 -0.0201606 0.383251
0.224228 -0.0856904 0.16225
0 0 0
0.144895 0.119662 0.0551218
0.00298794 0.0414349 -0.0010797
-0.0479606 -0.065033 0.0150403
-0.177929 -0.0448449 -0.00428235
0 0 0
-0.13475 -0.0313814 -0.321494
-0.142856 0.0944683 -0.165863
0 0 0
-0.172088 0.0343325 0.132052
-0.148001 0.0952996 -0.0655056
-0.421983 -0.17356 0.459393
-0.113097 0.00929173 0.0268678
-0.0359691 -0.126757 0.0903348
0.17973 -0.0184355 0.136987
0 0 0
0 0 0
0.175875 0.557252 0.236185
0.00109801 0.0270825 0.0238539
-0.0812626 0.154248 -0.0116024
-0.00457693 0.430427 -0.102869
0 0 0
0.168603 0.056923 -0.151764
0.00118134 0.12382 -0.101388
-0.0172292 0.15096 0.124077
-0.00963066 0.397258 -0.0373076
-0.11079 0.0406065 -0.171104
0.0167724 0.0439904 0.0136925
-0.24415 -0.182177 -0.23415
-0.00390941 -0.000260005 0.0019095
-0.215063 -0.443823 0.0503962
-0.0479177 -0.0278872 -0.111296
-0.420889 0.344698 -0.422164
-0.109466 -0.109678 0.354989
-0.40572 0.263977 -0.00683148
0 0 0
0.283915 0.452401 -0.202492
0 0 0
0.486267 -0.0976564 -0.105933
0.00209042 0.0190133 0.100395
-0.0848979 0.161693 -0.142106
-0.099796 -0.0916905 -0.318853
0 0 0
0 0 0
-0.0891913 0.104056 0.129615
-0.389512 0.121113 -0.239484
-0.14726 0.147897 -0.0396127
0.00218079 0.362109 -0.268982
-0.103148 -0.273908 0.00373132
0.0990918 0.135209 -0.0701798
0.0373037 0.408148 0.186531
0.0307247 0.433673 -0.00560048
-0.00322685 0.406798 -0.229256
-0.00446085 0.136517 0.0880726
0.129631 -0.0513644 -0.350117
0.136615 0.0480054 0.0799176
0 0 0
-0.0144216 -0.211871 -0.00021595
0.271113 0.402402 0.348745
-0.013676 0.000727969 -0.0125093
0.166834 -0.0588882 0.000871151
0 0 0
0.0122593 -0.107395 0.00110079
-0.138332 0.0791923 -0.227092
-0.220536 0.220497 0.23117
0 0 0
0.220694 -0.232175 -0.178063
0.035836 -0.335627 -0.00379706
0.0699333 0.28725 0.0763781
1.02247e-05 0.0824024 0.070326
0.0193921 0.0580451 0.186532
0.257356 0.512909 0.141667
0 0 0
0.0124545 -0.0537415 -0.0611548
0 0 0
-0.00545873 0.0151773 -0.000586718
0.23983 0.00615579 0.143914
-0.172365 -0.0261112 9.92815e-05
0.0463451 -0.298607 -0.166903
0.294156 0.000161318 -0.0407965
0.0856377 0.0474696 -0.0580414
0.0949996 0.243667 -0.114264
-0.00701 0.00729684 -0.00642798
-0.0454201 0.0341896 -0.0306338
0 0 0
0.37922 0.0451423 -0.440335
0.0151751 -0.0117151 -0.0186458
0.278618 0.108818 0.373422
0.123574 0.0395159 0.000980525
-0.0419662 -0.0332219 0.521792
0.119261 0.252902 0.22144
0.0670262 0.362795 -0.0162014
-0.285192 0.0684462 -0.00485824
0.00184786 -0.0598629 -0.241537
0.0454078 -0.154649 -0.115899
0.0988485 -0.283117 0.082473
0.0313012 -0.0314406 -0.0215335
-0.0780197 -0.49598 -0.101377
-0.000166449 -0.0605837 0.00352134
-0.0841781 0.0949492 -0.0746962
-0.406974 0.253422 -0.176763
0.0787455 0.188352 -0.0266531
-0.0274652 0.0375529 -0.000562724
0.0315034 0.0722605 0.0043547
0.154466 0.159984 0.136531
0.13533 0.348201 0.182633
0.00643447 0.0746341 -0.0761167
0.00703965 -0.189607 0.188432
-0.223321 -0.0366825 0.019424
-0.000487525 -0.0287604 0.0799625
-0.0441042 0.0917069 -0.0278853
0 0 0
0.0233217 -0.0552609 0.171393
-0.0018264 0.0418689 -0.0825771
0 0 0
0 0 0
0.112468 0.235886 0.159101
-0.00381928 0.20409 -0.239433
0.206222 0.392735 0.187261
0.183585 -0.0979838 -0.157554
0 0 0
0 0 0
0 0 0
0.128747 0.430817 0.226634
0 0 0
0 0 0
0.100704 -0.148423 0.134739
-0.0588978 0.0762994 -0.0404907
0.00719907 0.0342849 -0.130377
0 0 0
-0.0894257 0.00763849 -0.0103883
0 0 0
0 0 0
-0.147198 0.0403304 0.107591
-0.228246 -0.0477866 -0.203643
-0.119816 0.257429 -0.142965
-0.265757 -0.0535432 -0.0851295
0 0 0
0 0 0
0.0321074 0.00695251 0.122423
0 0 0
0.214362 -0.214002 0.0788699
0.00124831 -0.0231705 -0.00376929
0.0208892 0.114511 -0.158682
0 0 0
0.134364 -0.339065 -0.168055
0.30827 0.0143598 0.0667609
0 0 0
-0.0411415 0.160254 0.471005
-0.00338737 -0.165126 0.370043
0 0 0
-0.132577 0.0978279 0.517659
0 0 0
0.2519 -0.0584028 0.221989
0.202982 0.263775 -0.35605
0 0 0
0.0239457 -0.341809 0.207639
-0.00583578 -0.0712113 -0.113439
0.135516 -0.163954 -0.378921
0 0 0
0.123634 -0.00255 0.00438539
-0.00547855 -0.0289007 -0.0655871
0.0684544 -0.169549 -0.00175094
0 0 0
0 0 0
0.0140045 0.0379999 -0.111083
0 0 0
-0.0244479 0.0405798 0.00413364
0 0 0
0 0 0
0.149274 0.162391 -0.177653
-0.0829007 -0.0023801 -0.206246
0.00823998 0.219236 -0.104231
-0.0927429 -0.0577425 -0.0154886
0.0415077 -0.0685508 -0.139402
0.399324 0.05421 -0.129624
0.021804 -0.25689 0.124491
-0.290128 -0.244889 0.0320631
-0.475345 -0.360366 -0.0755376
-0.0200187 -0.114371 -0.119681
0.133368 -0.0669875 0.0575786
-0.0409351 -0.0829956 0.234093
0 0 0
0.112206 0.0267544 0.122741
-0.0561244 -0.087537 -0.0080138
0.281603 -0.0829743 0.0769964
0 0 0
0 0 0
0.106705 0.30898 -0.252366
0 0 0
0 0 0
0 0 0
-0.170397 -0.00877354 -0.149281
-0.261865 -0.26052 -0.068296
0 0 0
0.00297453 0.0621201 0.113921
0 0 0
0 0 0
0.0890571 -0.0533725 -0.15564
0.022772 -0.0212635 -0.0388246
-0.00874609 -0.00258729 0.0710923
-0.259536 -0.066469 -0.357092
0 0 0
-0.158824 0.700681 0.192288
0.11335 0.00164422 -0.00106667
0.101435 0.00172037 0.0122525
-0.00215151 -0.138023 -0.118468
-0.24627 -0.128329 -0.119328
0 0 0
-0.0759553 0.0498142 0.0479602
0.00318915 -0.355203 0.122878
-0.113956 -0.178247 -0.244815
0 0 0
0.0187261 0.205715 0.00220828
-0.0168234 -0.128296 0.0728469
-0.223544 0.453808 0.0253029
-0.441367 -0.188643 -0.0681655
-0.26108 -0.676317 -0.321016
-0.0569516 -0.025197 -0.250796
-0.0590134 0.0118747 0.0302297
0.0998748 0.263688 0.0102226
-0.116054 0.0733862 0.179592
0 0 0
0.169492 0.147291 -0.103618
0.437901 0.150697 -0.310645
0 0 0
0 0 0
-0.0967151 0.173298 0.139263
-0.0761513 0.018736 0.0837774
-0.223731 -0.0956107 -0.038097
0 0 0
0.0118995 0.00195872 0.0121883
0 0 0
-0.0393177 -0.0144672 -0.000835545
-0.0520482 0.0965324 -0.130452
0.0410304 0.003242 0.0271196
0.529168 0.156183 -0.106002
0.390295 0.010203 -0.00770116
0.49053 -0.10053 0.0734907
0.253096 0.0552283 0.0592223
0.604488 0.166439 -0.221042
0.0769745 0.050864 -0.0939565
0.16205 0.085434 0.0416643
0.290274 0.0799072 -0.000330493
0.24092 -0.136917 0.0745427
0.131426 -0.0379814 0.00223846
0.00832374 -0.00219838 -0.00126799
0.525305 0.0562912 -0.0714017
0.0403471 0.00949308 -0.638108
-0.0491193 -0.0701839 0.0813087
-0.0722624 -0.536319 0.133091
-0.356333 0.0661129 -0.220601
-0.360948 0.226354 0.318177
-0.0483255 0.0470146 0.00140061
-0.182329 -0.0444438 0.108658
-0.122811 0.00657016 -0.240461
0 0 0
-0.0399079 -0.00758966 0.39514
0 0 0
0 0 0
0 0 0
0 0 0
0 0 0
0 0 0
0 0 0
0 0 0
0 0 0
0 0 0
0 0 0
0 0 0
0 0 0
0 0 0
0 0 0
0 0 0
0 0 0
0 0 0
0 0 0
0 0 0
0 0 0
0 0 0
0 0 0
0 0 0
0 0 0
0 0 0
0 0 0
0 0 0
0 0 0
0 0 0
0 0 0
0 0 0
0 0 0
0 0 0
0 0 0
0 0 0
0 0 0
0 0 0
0 0 0
0 0 0
0 0 0
0 0 0
0 0 0
0 0 0
0 0 0
0 0 0
0 0 0
0 0 0
0 0 0
0 0 0
0 0 0
0 0 0
0 0 0
0 0 0
0 0 0
0 0 0
0 0 0
0 0 0
0 0 0
0 0 0
0 0 0
0 0 0
0 0 0
0 0 0
0 0 0
0.0967272 -0.0137498 4.63109e-07
0.0471464 -0.0842533 -0.122429
-0.00038899 -0.0164092 0.0205932
-0.173168 0.018674 0.087355
0.0010644 0.0442759 0.00977067
0 0 0
0.014474 0.0805368 -0.0666303
0.0611898 0.116345 0.13873
0.0461763 -0.0461018 -0.109956
-0.152358 -0.125719 -0.14736
0.000402635 -0.0172435 -0.0420925
-0.0516103 -0.00777642 0.0955095
0.00802116 -0.0643287 -0.014974
0.00284551 0.0451921 0.012797
-0.0914261 -0.0919802 0.0587724
0.00476446 0.0177204 -0.121989
-0.103046 -0.0581323 0.21094
-0.116529 0.0549281 -0.00985024
0.00145007 -0.0292837 0.0349157
0.0017487 -0.0548868 0.100217
0.0559739 0.24405 0.0821994
0 0 0
-0.150265 -0.10246 0.165793
-0.00118983 0.0896818 0.0273049
0.00258499 -0.0367539 -0.0790246
-0.136892 -0.000521099 0.0470693
0.0112722 -0.00443064 0.00848223
0.0139162 -0.0482739 0.0323485
-0.0074959 0.0288159 -0.0790474
0 0 0
0.135622 0.0082183 0.0813303
-0.031895 0.052206 0.112743
0.0526966 -0.0576394 -0.0571189
0.0767365 0.142265 0.0293558
0 0 0
0.186155 0.00841893 -0.00611073
-0.022437 0.0425472 0.0264568
0 0 0
-0.0235609 0.00721186 0.123072
0.0173003 -0.235935 -0.326702
0.008246 0.319568 0.313594
0.058072 -0.0354886 0.195359
-0.00142364 0.0523217 0.00349078
-0.0713941 -0.183793 -0.0234136
-0.0830689 0.00378299 0.0348435
0 0 0
-0.0179414 0.0933778 0.0542747
0.0156231 -0.0142006 0.0143221
0.121482 -0.00715773 0.111383
0.0243718 0.106383 -0.075956
0 0 0
-0.229013 -0.00462212 -0.00850348
0.12498 -0.00266005 0.0844678
0 0 0
0 0 0
-0.0558415 -0.12046 -0.12305
0.00295397 0.190584 0.219216
0.0639823 -0.00370415 -0.247824
0 0 0
0.108772 -0.0822592 -0.117839
0 0 0
0 0 0
-0.0393491 0.0163719 0.0372486
0.0442744 0.0573233 -0.0414499
-0.0418981 0.109258 -0.341304
0.278432 0.122856 -0.0236542
3.51757e-05 0.119339 0.0796465
0.0828875 -0.377209 0.241625
0 0 0
0.097086 -0.248524 -0.0127594
-0.118318 0.0651228 -0.299478
-0.0658492 -0.000989401 0.0860293
0.22535 0.0535504 0.0275065
0 0 0
-0.180216 -0.12849 0.0802492
0.155238 -0.00612066 -0.147536
-0.0327347 0.233885 -0.27224
0 0 0
-0.416391 0.177951 -4.84307e-05
-0.315141 0.167414 -0.26013
-0.124676 0.00775272 -0.00259732
0.0521628 0.0535024 0.0761213
0.0874073 0.000293992 -0.00162006
-0.0241871 -0.193169 -0.138173
0 0 0
0.118238 0.45032 0.0926733
-0.0778738 0.0961059 0.445314
0 0 0
0.0165427 0.302726 0.02775
0.06695 0.343209 0.10148
0.0364635 -0.0139126 0.0653149
0 0 0
-0.00346157 0.152328 0.213308
0.145776 0.0626283 -0.129188
0 0 0
-0.0755547 -0.24532 0.0760068
0.0503455 -0.016893 -0.0686535
0 0 0
0.388627 -0.0451549 0.215767
0.214881 -0.194181 -0.506445
0.115408 0.144284 0.0132648
0.080901 0.0487214 0.0396254
0 0 0
0 0 0
-0.0018498 0.626999 -0.00451824
0.0325366 0.0163878 0.0867103
-0.116975 0.0640636 0.056589
0.0225141 -0.0554444 0.0392644
0.0271767 0.0637792 -0.16401
0.00977696 0.0524876 -0.11066
-0.146799 0.105181 -0.326977
0 0 0
-0.157527 -0.300029 0.102717
-0.0332549 -0.0545498 0.0380552
-0.281109 0.0100796 0.150219
-0.430307 0.232421 0.0117185
-0.048259 0.117791 -0.00171368
0.109836 0.0625469 -0.0679686
0.0666026 0.116338 0.0659982
0.232609 0.17578 -0.072793
0.200177 0.0686872 0.00244722
0.190249 -0.0486313 0.105263
0.0438694 0.236921 0.0990786
-0.00615761 0.0121097 0.161932
-0.174776 -0.021084 -0.00293413
0.124085 -0.142585 0.286124
0.381198 -0.0931744 0.078568
0.189629 -0.0065621 0.113206
0 0 0
0 0 0
0.322754 0.0346334 -0.0472495
-0.00632288 0.0308686 0.09642
-0.0990574 -0.0205975 0.0898485
0 0 0
0.0994578 -9.91497e-06 -0.197483
-0.106562 0.404217 0.240217
-0.155945 0.319735 -0.0733376
-0.00149659 0.0199487 0.0691794
0.0179022 0.239081 0.0764217
0 0 0
0.0924592 -0.216396 -0.0400681
-0.0853859 0.0459027 -0.215049
-0.0829897 0.230281 -0.0651435
-0.0705308 -0.0100085 0.30214
-0.000319202 0.0147507 0.0455485
0 0 0
0.106606 0.00437229 -0.0768147
0.0273057 0.0386907 -0.0456666
0 0 0
-0.12961 0.18084 -0.102473
0 0 0
-0.00130959 -0.00932729 0.00619914
-0.0156729 -0.00292554 0.00338806
-0.136762 -0.305425 -0.0921461
0 0 0
-0.0274577 0.0981484 -0.17236
0 0 0
0.0625343 -0.030346 0.400649
-0.0941196 0.0705613 -0.0283775
-0.12725 -0.0392745 -0.270193
-0.279981 -0.267884 0.190825
-0.0296828 -0.300227 -0.410742
0 0 0
0.0962821 0.00869366 0.111937
0.24608 -0.197216 0.301439
0.128827 -0.113435 0.0746068
0.0659678 0.0585352 0.0634527
-0.0388205 0.255389 0.286855
0.303996 0.176923 -0.137413
0.523637 0.10315 0.261232
0.389219 -0.0914373 0.084474
0.435424 -0.182971 -0.15626
0.0842257 -0.0488114 -0.0160424
0.00382193 -0.14281 -0.0191859
0.211479 -0.312049 0.30283
0 0 0
0 0 0
0.052089 0.0592636 -0.0717047
0.0807775 -0.00791606 -0.00201006
0 0 0
0 0 0
0.0697447 0.203414 0.0296605
0 0 0
0.0358793 0.147447 -0.171509
0 0 0
0.185994 -0.0654535 -0.140923
0.0128718 0.0849946 -0.382353
0.171526 -0.0329518 -0.226057
-0.278729 0.282375 -0.0304992