<?xml version="1.0"?>
<VTKFile type="RectilinearGrid">
<RectilinearGrid WholeExtent="0 32 0 32 0 32" Origin="0 0 0" Spacing="1 1 1">
<Piece Extent="0 32 0 32 0 32">
<PointData>
</PointData>
<Coordinates>
<DataArray type="Float32" format="ascii">
0 0.524874 1.04975 1.57462 2.0995 2.62437 3.14924 3.67412 4.19899 4.72386 5.24874 5.77361 6.29849 6.82336 7.34823 7.87311 8.39798 8.92285 9.44773 9.9726 10.4975 11.0224 11.5472 12.0721 12.597 13.1218 13.6467 14.1716 14.6965 15.2213 15.7462 16.2711 16.796 
</DataArray>
<DataArray type="Float32" format="ascii">
-5.03879 -3.62163 -2.20447 -0.787311 0.629849 2.04701 3.46417 4.88133 6.29849 7.71565 9.1328 10.55 11.9671 13.3843 14.8014 16.2186 17.6358 19.0529 20.4701 21.8872 23.3044 24.7216 26.1387 27.5559 28.973 30.3902 31.8074 33.2245 34.6417 36.0588 37.476 38.8931 40.3103 
</DataArray>
<DataArray type="Float32" format="ascii">
0 0.524874 1.04975 1.57462 2.0995 2.62437 3.14924 3.67412 4.19899 4.72386 5.24874 5.77361 6.29849 6.82336 7.34823 7.87311 8.39798 8.92285 9.44773 9.9726 10.4975 11.0224 11.5472 12.0721 12.597 13.1218 13.6467 14.1716 14.6965 15.2213 15.7462 16.2711 16.796 
</DataArray>
</Coordinates>
<CellData>
<DataArray type="Float32" Name="Vector" NumberOfComponents="3" format="ascii">
0 0 0
0 0 0
0 0 0
0 0 0
0 0 0
0 0 0
0 0 0
0 0 0
0 0 0
0 0 0
0 0 0
0 0 0
0 0 0
0 0 0
0 0 0
0 0 0
0 0 0
0 0 0
0 0 0
0 0 0
0 0 0
0 0 0
0 0 0
0 0 0
0 0 0
0 0 0
0 0 0
0 0 0
0 0 0
0 0 0
0 0 0
0 0 0
0 0 0
0 0 0
0 0 0
0 0 0
0 0 0
0 0 0
0 0 0
0 0 0
0 0 0
0 0 0
0 0 0
0 0 0
0 0 0
0 0 0
0 0 0
0 0 0
0 0 0
0 0 0
0 0 0
0 0 0
0 0 0
0 0 0
0 0 0
0 0 0
0 0 0
0 0 0
0 0 0
0 0 0
0 0 0
0 0 0
0 0 0
0 0 0
-0.0216117 0.0422171 0.0195648
-0.122562 0.0547707 0.0190741
0.000981175 0.0858685 0.0744825
0.361682 0.216835 -0.076612
-0.100319 -0.0605614 -0.0380836
0 0 0
-0.0026571 0.0663293 -0.00458959
0.222044 -0.101098 0.0623882
0.133172 0.0833959 -0.0664156
-0.263251 0.0678026 0.0182364
0 0 0
-0.0672347 0.0153176 0.120549
0.0345183 -0.0384031 -0.0226438
0 0 0
0.00253366 0.0386008 0.0774089
0.0361893 -0.0291258 -0.00848249
-0.0210696 0.151715 -0.0293665
-0.293474 -0.0269106 -0.0473985
0 0 0
-0.19496 0.0376177 -0.126714
-0.106404 0.0297739 0.0163242
0 0 0
0.107562 -0.039022 -0.182952
-0.124323 -0.360606 -0.212249
0.00660837 0.0112262 0.0778141
-0.125753 0.0128437 -0.00360385
-0.0397894 0.0459767 -0.0784288
-0.185731 -0.0289735 0.114111
0.113689 -0.00721505 -0.0188362
0.0104655 -0.00307635 0.00699476
-0.0502967 -0.0693455 -0.0746038
-0.0175502 -0.0566943 -0.0227276
-0.204224 -0.208737 0.165738
0 0 0
0 0 0
-0.125377 0.334167 -1.94985e-05
-0.0385531 -0.0408749 0.0342607
0 0 0
-0.0315586 -0.0956221 -0.00296256
0 0 0
0.0141369 0.0186128 0.00928504
0.334785 -0.0224435 0.0184021
0 0 0
0.0258911 -0.00264388 -0.036253
0.372024 -0.0167156 -0.00298989
0 0 0
0.0201276 -0.0368205 -0.154886
-0.031686 -0.101619 -0.00667274
-0.00591823 0.0782201 -0.0090147
-0.0670436 0.049044 0.0494597
0 0 0
0.0436296 -0.20166 -0.00511548
-0.0111242 0.0145643 -0.0412324
0 0 0
0.0206504 0.00336076 -0.0117454
-0.0626799 -0.0533208 0.0377866
-0.0709397 -0.00544949 0.0454037
-0.0860048 0.0875939 0.0626129
0 0 0
0.00790204 6.97539e-05 -0.0249666
0.0563179 0.127152 -0.0472243
0 0 0
-0.00490583 -0.023046 0.0410039
-0.192411 0.104623 -0.170406
0 0 0
-0.0260647 -0.0078387 -0.00333387
0 0 0
0.0332104 -0.0501108 0.296729
0 0 0
-0.403916 -0.26008 -0.205738
-0.248917 0.0549605 -0.0481685
-0.411325 0.344529 -0.0572791
-0.178498 -0.175655 0.110168
-0.0363183 0.0139688 -0.155926
-0.00663307 -0.0291409 -0.0168945
-0.045265 -0.0545973 -0.0841899
-0.202015 0.0174604 -0.0596621
-0.0693372 -0.017816 0.0626576
-0.155494 -0.142472 -0.0707756
-0.0017155 -0.0449878 -0.0156031
0.0805936 -0.0156852 -0.029078
0.141198 0.0247561 -0.096451
0.0818619 0.109709 0.0839883
2.11746e-05 -0.0218221 -0.0820376
0.161931 0.0483644 0.148704
0 0 0
0 0 0
0 0 0
0 0 0
0.154992 0.0306082 -0.108307
0.190565 0.0269528 0.0890611
-0.000762085 -0.0152637 -0.00586648
-0.126353 0.0918534 -0.247517
0.0339215 -0.020839 -0.123091
0.0473959 -0.0506111 -0.0959611
0.0162159 0.0250806 0.000674591
-0.0224997 0.139457 -0.111451
-0.075464 0.0215636 -0.0733206
-0.2786 -0.233468 0.0117815
-0.0934767 0.0627245 -0.211292
-0.0520346 -0.0179877 0.255466
0 0 0
0 0 0
0 0 0
0.385958 -0.139282 0.0748708
0.0140042 0.0317582 0.0348156
-0.183187 -0.0755832 0.0808543
-0.146285 0.0837749 0.12545
-0.107764 0.131655 0.0843716
0 0 0
-0.0735598 -0.00359009 -0.00186461
0 0 0
0.0330011 0.125784 -0.147658
0 0 0
-0.108989 0.0514466 0.114476
0 0 0
0.204541 0.249736 -0.0776553
0.0634674 -0.0130716 -0.0177118
0.162435 0.170506 -0.120877
0.146588 -0.132939 -0.0903673
0 0 0
0.00877574 -0.122 0.26131
0.262564 0.125896 -0.0628231
0.00212073 0.012697 0.0121032
0.00853702 0.0860793 -0.0777254
0 0 0
0.0172294 -0.0600269 -0.187912
0 0 0
0.0280591 0.0762903 0.000186471
0.207074 0.168903 -0.178446
-0.0475586 -0.0430858 0.0701204
0 0 0
0 0 0
0 0 0
0.0182118 -0.119514 0.217172
0 0 0
-0.0570684 -0.0759987 -0.000619735
0 0 0
-0.114949 0.0339037 -0.0570236
-0.149443 0.178478 0.421664
0 0 0
-0.302366 0.0343514 0.274008
0 0 0
0 0 0
-0.0242229 0.146668 -0.0901753
0 0 0
-0.318579 0.0551871 -0.420631
-0.0384066 -0.0232318 -0.0572057
0.00533964 -0.0897734 -0.00125776
0.225664 -0.233416 -0.129566
0 0 0
0.0542474 0.0129589 0.0803506
0.130686 -0.100047 0.0518863
-0.127977 0.338743 -0.0356
0 0 0
-0.013801 -0.0464404 -0.00119498
0.103725 0.27325 0.0139633
0.00461564 -0.122629 0.127221
0.0206382 0.693775 0.268108
0 0 0
0.228957 0.39966 0.334439
0.173583 0.211212 -0.114342
0.133715 -0.0185882 -0.0953871
-0.0692951 -0.149075 0.222989
0 0 0
0 0 0
-0.0777514 -0.14485 0.0792273
0.134188 -0.0387058 0.106565
0.258883 0.0602346 0.017743
0.118916 -0.108035 -0.0740598
0.275993 -0.239524 0.00607378
0.143181 0.0183634 0.0071837
-0.0231452 -0.00892005 -0.0332405
-0.0163263 -0.0264402 0.100826
0.163914 0.469017 -0.319906
-0.131121 0.236179 -0.000774495
-0.245371 0.211977 -0.0198238
-0.029104 0.0240948 -0.0256102
-0.434449 -0.17072 -0.196628
0 0 0
-0.459342 -0.265735 -0.165638
-0.00598679 -0.0634733 0.0260411
0.037537 0.02499 -0.090968
-0.000272507 -0.000249841 -0.0259172
-0.265574 -0.295698 0.00195719
0 0 0
0.136777 0.173812 0.166686
0 0 0
0.227801 -0.0904118 -0.506222
0 0 0
0.0940786 -0.0768897 0.195454
0.308807 0.360979 0.095959
0 0 0
-0.303251 0.333878 -0.0148199
0 0 0
-0.0532002 -0.142998 0.528202
0 0 0
0.140588 -0.111865 0.0625273
0 0 0
0 0 0
0 0 0
0 0 0
0 0 0
-0.245478 0.0998687 0.0688799
0 0 0
0.187941 -0.385819 0.219472
0 0 0
0.00429627 0.108815 0.0355525
0 0 0
0.218417 -0.120037 0.191793
-0.0457462 -0.0696691 0.168072
0 0 0
0 0 0
0.0512141 0.208194 -0.335275
-0.106797 0.0456088 -0.136573
0 0 0
0.0347007 0.0128841 0.0220111
0.0810601 0.0407946 -0.0209557
-0.13498 -0.241899 -0.112243
0.00229474 -0.158703 -0.128843
-0.0956003 -0.154538 -0.258371
0 0 0
0.00179388 0.063738 0.0673727
-0.226104 -0.0523987 0.156531
0.527062 -0.141225 0.0382721
0.0633004 0.135089 -0.037004
0.0579367 -0.132559 -0.0807495
0 0 0
0.0253501 -0.416542 -0.0368826
-0.138527 -0.348447 0.035977
-0.194788 -0.301998 0.223884
0 0 0
-0.426468 0.155389 0.109645
-0.000210263 -0.0850257 -0.0125237
0.091682 -0.022754 0.0216484
0.00460072 -0.334892 0.438808
-0.0771965 -0.156806 0.184257
0 0 0
-0.154516 0.112297 -0.0588312
0.0879619 0.0428425 -0.267241
0.00896896 0.0175732 0.034355
-0.408844 0.377432 -0.0184359
-0.243182 0.0270934 -0.0845849
-0.502346 0.160637 0.155019
-0.0282535 0.00370468 -0.0212105
0 0 0
0 0 0
0.264489 0.261667 -0.270177
0 0 0
-0.149263 -0.14972 -0.0785651
-0.303378 -0.0554059 -0.490133
0 0 0
0.102313 0.0553657 0.0732337
0.164537 0.207027 0.138922
0.119252 0.216132 -0.0820397
0.259393 0.0121585 0.130836
0.0541579 0.163418 -0.117766
0.162908 0.130885 0.0884828
-0.286463 0.424596 0.300716
-0.273911 0.0693458 -0.0389168
0 0 0
0.0663157 -0.0923425 0.00832856
0 0 0
0.000508971 -0.176414 -0.0819772
-0.006928 0.00446877 -0.00386577
-0.0576473 -0.0384937 -0.112735
-0.148742 -0.217142 -0.0201429
0 0 0
0 0 0
0 0 0
0 0 0
-0.115265 0.0421013 -0.133685
0 0 0
0 0 0
0 0 0
-0.0696427 0.241287 0.0870919
0.0256541 0.0686795 -0.0734143
-0.112283 0.0581851 0.201424
0 0 0
-0.0615504 -0.136103 0.228981
0 0 0
-0.0759741 0.250661 -0.266301
0 0 0
-0.0903943 0.0224673 -0.0956472
0.0958402 -0.0315708 0.0691068
-0.0444843 -0.0548937 0.000146232
0.0469595 -0.000801153 -0.0121195
0.11509 -0.0959921 0.233257
0 0 0
0.0955054 0.0798398 0.140345
0 0 0
0 0 0
0 0 0
0.38651 -0.0951273 0.172552
0.187874 -0.288432 0.112516
0.238932 0.199775 -0.136702
0.133312 -0.0862604 -0.029485
0.216091 0.13831 -0.0248189
-0.00100055 -0.269354 0.140798
-0.0309868 0.112003 0.0706408
0.117582 0.0379904 0.130023
0.0985514 -0.112068 0.0991747
0 0 0
0.0477868 -0.107942 -0.103855
0 0 0
0 0 0
0.00341767 -0.00542486 0.000401759
0.0475455 -0.00978431 -0.0020058
-0.0442258 0.114217 -0.266764
-0.0925311 0.138569 -0.11304
-0.0297206 0.0766514 0.100082
-0.13361 -0.123444 -0.0729077
-0.0318394 0.079036 -0.149838
0 0 0
-0.0877222 0.472243 -0.00175184
0 0 0
0.301133 0.14228 0.0486688
0.162311 0.0942596 -0.116017
0 0 0
0.260207 -0.0135666 0.0366376
0 0 0
-0.128229 0.0935611 -0.452238
0 0 0
-0.43416 0.115514 -0.118257
-0.115992 -0.0333629 0.00880256
-0.173813 -0.206526 0.00407223
0 0 0
-0.119475 -0.139921 -0.26626
0 0 0
-0.0634202 0.470354 -0.0864403
0 0 0
0.118527 -0.199619 -0.214915
0.172745 0.505953 0.0914051
0 0 0
0 0 0
0 0 0
0 0 0
0 0 0
0.0550737 0.00123628 0.207127
-0.0305694 0.20757 0.0152225
0.420697 -0.0489233 -0.0189102
0 0 0
-0.0823972 0.0410357 0.243649
0.00140087 0.116189 0.185236
0.0699609 -0.0798436 -0.227208
0.114649 0.00719699 -0.0263931
0.478886 -0.00533871 0.10189
0.351199 0.249422 -0.103787
0.210479 0.0266561 0.291863
0 0 0
-0.000206339 0.176138 -0.126624
-0.168657 -0.231528 0.154181
0.0379574 0.213846 0.228369
0.0382668 0.0585211 -0.051718
-0.00458153 0.00765799 0.00290985
0.000135581 -0.0432831 -0.0873
0.242107 0.059143 0.248892
0 0 0
0.145843 0.151703 -0.118181
0.104653 -0.213459 -0.140191
0 0 0
-0.126645 0.0703646 -0.0379333
-0.199732 0.0169633 -0.20411
-0.00112054 -0.147788 0.0278587
0 0 0
-0.110442 -2.61433e-05 0.150712
-0.00653015 -0.136811 0.0216122
-0.320736 -0.0956289 -0.00055334
0.0786945 -0.0267713 0.001786
0.0416773 0.0780623 -0.137126
0 0 0
0.201926 -0.0452624 0.0889848
0.00499271 -0.0396661 0.125706
-0.00984584 0.0708035 0.0879032
-0.0641041 0.0583499 -0.0222022
0 0 0
0.0482394 -0.0705477 0.243706
-0.0833792 -0.0328368 -0.0505194
-0.143789 0.0305232 -0.0483912
-0.040162 0.167608 0.138237
0.0493774 0.0802936 0.111502
0.0996455 -0.205046 0.155314
0 0 0
-0.0306913 -0.392183 0.0353508
0 0 0
0.00239334 0.0523476 0.0055278
0.0904641 0.282138 -0.226371
0 0 0
0.0770658 0.000728813 -0.0450293
0 0 0
0.0822047 -0.00827912 0.108664
0.0355571 0.0211021 0.103118
0.162387 0.171032 -0.0184544
0.0647776 -0.0327643 0.0244099
0.172461 0.203433 -0.220673
0.128746 0.160907 0.126217
-0.0400006 -0.175325 0.277716
-0.00827328 -0.0734162 0.0456163
-0.168305 -0.0083549 0.00351703
-0.0549538 0.0741399 0.00352026
0.0759882 -0.136805 0.0752762
-0.00128631 0.17053 -0.0364695
-0.0212578 -0.221788 0.106725
-0.00433083 0.119036 -0.104912
-0.104266 0.0529562 0.127875
0 0 0
0.288267 -0.0397848 -0.0140736
0 0 0
0.0986613 0.0952172 0.119821
-0.0206379 0.0202428 0.000504412
0 0 0
0 0 0
-0.0156595 -0.242944 0.0680656
-0.1168 -0.13826 0.0309079
0 0 0
0 0 0
-0.00219279 0.150461 0.0440974
-0.237406 0.245699 0.228061
0.0517552 0.0942457 0.0184478
0.0981417 -0.164094 -0.100718
0.000314113 -0.011748 -0.0156611
-0.00519204 0.0167939 -0.169172
-0.0315618 -0.0152095 0.0479594
-0.111703 0.00281475 0.145809
-0.0797476 0.0234475 0.0923539
-0.0215371 0.0505076 0.0719282
-0.267853 -0.0404719 0.305226
0.0728887 -0.00195198 0.00618412
0 0 0
-0.449144 0.323469 0.240837
-0.128067 0.0814862 -0.0654783
-0.00879212 -0.150257 -0.00392607
0 0 0
0.101032 0.156331 0.221952
0.04252 0.0166448 -0.0129493
-0.0353324 -0.177962 -0.0474657
-0.0887954 -0.239178 -0.0485734
-0.0112934 0.109753 -0.0210498
-0.16956 -0.102976 -0.00177901
0 0 0
-0.000234758 0.0423288 -0.13937
0.0178694 -0.0947367 -0.122639
0.0472782 -0.120515 -0.141842
0.177078 -0.0619239 -0.00111625
0 0 0
-0.190558 0.396572 -0.163413
0 0 0
-0.129832 0.0566478 0.00214153
0.100772 -0.149595 -0.257684
0 0 0
-0.119815 0.136857 -0.0716609
-0.181496 0.262705 -0.20426
-0.320266 -0.0180894 -0.291532
-0.474612 0.248686 -0.223007
0.0484 -0.00381105 0.000367667
0.0351617 0.134813 0.226957
0.177122 -0.0586318 -0.0683661
-0.0395202 0.114866 -0.117004
0.280336 0.0594675 0.177731
0 0 0
-0.10626 -0.0859483 -0.138569
-0.237063 0.153344 0.0263521
0 0 0
0.0979805 0.19212 -0.00542061
0.255561 -0.124517 0.0698447
0.0144154 0.0106875 -0.0180285
0.0337125 0.10633 0.0207453
-0.118926 -0.0567605 -0.104237
-0.0693627 0.0135135 -0.114485
-0.00572886 0.00120175 -0.00576706
0 0 0
0.0425713 -0.182195 0.02775
-0.220556 -0.0447825 -0.146259
0.401532 -0.176986 -0.317493
-0.000183405 -0.0158532 -0.11723
0 0 0
0.00693008 0.125088 -0.129912
0 0 0
0.0429864 0.00995479 -0.382605
0.0673543 -0.00151204 -0.107467
0 0 0
-0.0331628 0.0125864 -0.235569
-0.0773556 -0.00323921 0.177578
0 0 0
0.120931 -0.109379 0.00254131
0 0 0
-0.00993 -0.00910101 -0.0127168
0 0 0
-0.0371804 0.531256 0.210021
0 0 0
0.147863 0.189251 0.0405067
-0.00196004 0.0199174 0.0315453
-0.0108534 0.130478 -0.0520775
-0.312478 -0.00162027 0.0910966
-0.0264468 -0.00216481 0.0159771
-0.041041 0.048741 0.120566
0.112546 0.117543 0.061978
0.116707 0.0719069 0.00748534
-0.00133136 0.09514 -0.333697
0.0876262 -0.195196 -0.434299
0 0 0
-0.0548487 -0.215426 -0.0919815
-0.0471901 0.011374 0.0514252
-0.0352771 -0.0104268 0.0111371
0 0 0
0.16542 -0.434193 0.196902
0.0724313 0.131405 -0.0555835
0.47286 -0.0460801 -0.0455005
0 0 0
0.188547 0.173137 0.174844
-0.0488651 0.0749209 0.0116781
-0.00145725 0.715443 -0.0373183
0 0 0
0 0 0
-0.0603041 0.0952934 -0.177292
0 0 0
-0.103669 -0.057397 -0.0155296
-0.0339305 -0.00829633 0.0148093
0 0 0
0.0408702 0.170756 -0.0396338
0.0330833 0.323545 0.0503798
0.0404288 0.545979 0.0943069
-0.0576882 -0.0530754 -0.230493
-0.0893477 0.0394879 0.115594
-0.0669095 0.00131557 0.0203835
-0.0686257 0.0306624 0.0413141
-0.08211 -0.0125469 0.277768
-0.0802965 0.185015 -0.124589
-5.29424e-05 0.00784992 0.179587
0.107072 0.0236516 0.251426
-0.0786797 0.00586697 -0.0795044
-0.292233 0.124341 -0.175874
0 0 0
0 0 0
-0.0934682 0.399056 -0.114424
-0.209661 -0.149088 -0.0458214
0.229234 -0.0283178 -0.260773
0.0494616 -0.407013 0.206821
0 0 0
-0.0166643 -0.249013 -0.130406
0.0483191 0.0650387 -0.0374976
0 0 0
-0.12886 0.416884 -0.0586005
0.00211623 0.354409 0.0246215
0.14089 0.250572 0.115926
0.0170324 0.30328 -0.337558
0 0 0
-0.349849 -0.0431477 -0.19126
-0.00671285 0.0051848 -0.00230066
-0.313428 0.26246 0.0815021
-0.329832 -0.0333302 -0.115288
-0.11992 -0.0417719 0.0201662
0 0 0
-0.174825 -0.129084 0.0234925
-0.156661 0.0942894 -0.0213207
0 0 0
-0.151101 0.130604 -0.0356967
0.0107252 0.00950229 -0.0197687
-0.0631605 0.117345 0.112477
-0.0641897 0.136702 -0.236388
-0.116169 0.0166128 0.299883
0 0 0
-0.21017 0.14125 -0.0465783
-0.0261156 0.0209742 0.0651967
-0.0242153 0.00654446 -0.0160027
-0.065192 -0.0354635 0.0184589
0 0 0
0.0117747 -0.431168 0.0916377
0 0 0
0.196421 0.00910679 -0.158874
-0.0153897 -0.129907 -0.108787
0 0 0
-0.123427 -0.101935 0.032049
0.338061 0.0371726 0.253504
0.13278 0.0307906 0.0638084
0.0729451 -0.0324802 -7.71218e-05
0.0562573 0.0951463 -0.118022
-0.0239912 -0.135189 -0.247885
-0.213988 0.204661 -0.261945
0.0214795 0.492251 0.296177
0.0782237 -0.0335588 0.0754039
0 0 0
0.263689 0.151576 0.0646228
0.159197 0.097882 -0.242995
-0.28975 -0.146914 0.0330164
0 0 0
-0.0197706 0.0280649 0.00110137
0 0 0
0.130019 -0.106773 -0.0793268
-0.021891 0.214383 0.142069
-0.106302 0.357996 0.151549
-0.330595 0.0217428 0.0501657
-0.0252019 0.177531 -0.0883009
-0.234823 0.138945 0.101569
-0.0770221 0.0879281 -0.00239188
0 0 0
-0.452749 0.122442 0.256295
-0.339837 -0.083154 -0.139436
-0.52617 0.216433 0.142392
-0.202952 0.0623749 0.0413281
0.000277915 -0.0190767 -0.00970199
-0.371616 -0.171998 0.0513828
0 0 0
-0.318649 -0.0476457 0.400991
0.00444196 -0.192424 0.0146709
-0.0362772 0.143954 -0.058067
0 0 0
0.0100354 0.00562194 0.000283159
0 0 0
-0.0939264 -0.201647 -0.197141
0 0 0
-0.0565041 0.172888 0.200875
0 0 0
0.029903 -0.0771662 0.0730709
-0.00381075 0.132564 -0.0621166
0.000765686 0.0604968 0.0142187
0.0675945 0.253119 0.140078
0.264689 0.102174 0.5092
-0.0500089 0.0960089 0.115617
0 0 0
0.0744688 0.112336 -0.00346863
-0.211316 0.17798 0.00503952
-0.206649 -0.0120333 0.0443781
-0.164521 0.180141 0.146192
-0.149224 0.18008 0.0898633
-0.0233791 0.104948 -0.323667
-0.017423 0.0219634 0.0013578
-0.106974 -0.0511264 -0.239489
0.0727899 0.129332 0.322757
-0.118321 -0.00751357 -0.0201574
0.25291 -0.175802 -0.121019
0 0 0
0 0 0
0.104045 0.0902889 -0.0271338
0.00370965 -0.00175881 0.00591534
0.0754626 0.0705683 0.10924
0 0 0
-0.0235811 0.0731168 -4.31746e-05
0 0 0
0.169802 0.149252 -0.117513
0.219612 -0.105684 -0.193562
0 0 0
0 0 0
-0.004274 0.20658 0.287756
-0.000281756 0.00867332 0.013183
-0.364192 -0.149425 0.408028
-0.0136548 -0.0324783 0.0856461
0 0 0
-0.244205 -0.324199 0.0707769
0 0 0
0 0 0
-0.0181416 0.397013 -0.0435351
0 0 0
0.046251 0.311316 0.175439
-0.000135046 -0.0155262 0.0128614
0 0 0
0 0 0
0 0 0
0.00157847 0.0220002 0.042568
0.144374 0.639342 0.11909
-0.0652784 -0.0127074 -0.0481962
-0.0080157 0.00748551 0.0440806
-0.257261 -0.083725 -0.142983
-0.525286 -0.0198513 0.0712436
-0.109136 0.177078 -0.155826
-0.0656157 -0.113199 3.80635e-05
0.0238249 0.0294286 0.0398148
-0.185121 -0.285184 -0.152547
0 0 0
0 0 0
0 0 0
0.199136 0.303414 -0.0855493
0.000699005 0.0353476 0.0229063
0.0252764 0.220049 0.16642
0 0 0
0.142847 0.128877 -0.0111812
0 0 0
0.0496137 -0.170291 0.123163
-0.0554304 -0.0405535 -0.0959136
-0.18424 -0.173843 0.282456
-0.0527334 -0.131512 -0.0229481
-0.349304 -0.0383588 -0.079431
-0.128561 -0.0348396 -0.0335305
-0.0278679 0.127879 0.0254739
-0.0523169 0.0168843 -0.00527226
-0.121373 0.0869289 0.112388
0.0322559 0.0954573 0.110747
-0.142625 0.221073 -0.000867967
-0.0822214 -0.0629316 -0.153588
-0.111486 -0.00539016 0.00774015
-0.200705 0.279646 0.111459
-0.0216736 0.247152 -0.0691009
0 0 0
-0.0444212 -0.00187661 0.00542235
0.0203041 0.0230412 0.0370556
0.167708 0.379507 0.0941833
0.228195 -0.27348 -0.247225
0 0 0
0.03068 0.0673259 0.0224155
0.201102 -0.0727872 -0.0767225
0 0 0
0.186925 -0.0495994 0.00260647
0 0 0
0.0241932 -0.0435923 0.217391
-0.0251682 -0.266074 0.0485265
0.0492108 -0.139629 -0.124815
0 0 0
0.218648 -0.356392 -0.0984751
0 0 0
0.0123538 0.134796 -0.0797129
0.254953 0.370252 -0.247749
0.0713119 0.262435 -0.164567
-0.0859477 0.220317 -0.0948454
-0.276395 -0.0581554 0.0586937
-0.0782666 -0.106852 -0.0312902
-0.107918 0.0425783 0.162404
0 0 0
0 0 0
-0.0415934 0.0206562 0.271289
-0.107904 0.033342 -0.0123682
-0.0854926 -0.117143 -0.00427029
-0.0907345 -0.0183625 0.112931
-0.4349 -0.00292129 0.0522117
-0.117529 0.171696 -0.207553
0 0 0
-0.308742 -0.0862671 -0.0792018
0 0 0
0.0868635 0.0131175 -0.013172
0.203929 -0.0504823 -0.0168358
-0.0610257 0.105196 -0.00153699
0 0 0
0 0 0
-0.153194 -0.18001 0.481559
0.00130969 0.0162365 0.0446844
0.0593429 0.0335382 0.0853882
-0.00192562 -0.0925207 -0.00699969
0 0 0
-0.0488543 -0.324703 -0.260374
0 0 0
0.0872738 -0.100847 0.00229068
0.00723635 0.0834096 -0.0441652
0 0 0
0.0103802 0.121886 -0.108532
0.02314 -0.056413 -0.0425473
0.139386 0.198013 0.104907
0.067536 0.162798 0.230609
-0.311246 0.325998 0.0339123
-0.156904 -0.149089 -0.104133
-0.178245 -0.0539216 -0.214729
0 0 0
0 0 0
-0.0224356 0.00767843 0.10722
-0.149021 0.0279789 -0.29413
0.139892 -0.0434797 -0.0765852
0 0 0
-0.398358 0.040533 -0.330672
0 0 0
-0.000886523 -0.058307 -0.0855439
0.081119 -0.125332 -0.437458
0 0 0
0.269875 -0.0425458 -0.210025
0 0 0
-0.0703141 -0.105156 -0.209733
0 0 0
-0.239728 0.0159411 0.096233
0 0 0
0 0 0
0 0 0
-0.144879 -0.135474 -0.0309624
-0.050916 -0.000822424 0.0722448
-0.0729423 0.0357487 0.217913
-0.000787587 0.0215681 0.0396271
0.167639 0.0856326 0.0970079
0 0 0
0.236358 -0.128844 -0.386157
0.233633 0.000562809 -0.117397
-0.115239 -0.00751296 0.139477
0 0 0
0.0569752 0.235923 0.124795
-0.0197065 -0.0317155 -0.022852
-0.304431 0.192405 0.252813
0 0 0
0.00410308 0.0463343 -0.0199797
-0.039389 0.151255 -0.111602
-0.050313 -0.0479562 -0.0336045
0 0 0
0.0396254 0.217593 -0.0532975
-0.0331917 -0.0409345 0.0332082
-0.0197098 0.0421435 -0.0304606
0.00900261 -0.00359826 -0.0320744
0.481766 0.0782222 -0.394203
-0.286766 -0.159784 0.0318069
-0.279304 0.30651 0.19003
0 0 0
0 0 0
-0.206688 0.523563 -0.325239
0 0 0
0.207207 0.0292474 0.0504054
0 0 0
0 0 0
0 0 0
-0.37491 -0.0399153 0.0150142
-0.580076 -0.22161 0.105463
-0.438559 0.500171 -0.111519
0 0 0
0.201249 -0.0863201 0.175834
0.124333 0.178846 0.118586
-0.171492 -0.161952 0.335528
-0.0611967 0.407746 0.0168042
-0.0317415 -0.162774 0.260966
0 0 0
0 0 0
-0.0324517 -0.153283 -0.103746
-0.191948 -0.118988 0.0598204
0.181626 0.112068 -0.194052
0.193578 0.393142 0.0904345
0.127849 0.180797 0.159928
0.115959 0.361528 0.197059
0 0 0
0 0 0
0.097302 -0.330533 0.113986
0 0 0
-0.0265326 0.00904987 -0.00117808
0 0 0
0.366959 0.775798 -0.0313567
0.167674 0.205061 0.311157
0.287797 -0.181176 0.0843032
0.43848 0.284088 -0.162327
-0.072059 0.176299 0.0920885
0.115937 0.308267 0.181255
0.00998698 0.0630702 -0.00899092
-0.212025 -0.176997 -0.138351
0.236698 0.248285 -0.212844
-0.00046485 -0.0165447 -0.0191688
-0.259445 0.0537503 0.0140724
-0.0359252 0.0134997 -0.0183081
-0.204663 0.0455432 0.0180537
-0.0479322 0.232433 -0.107909
0.0420332 -0.0238454 0.0700751
-0.249482 0.307102 -0.172562
0 0 0
0.239463 0.168835 -0.0897713
-0.000559314 -0.262842 0.0052974
0.162003 -0.0225098 -0.137153
0.0234589 -0.0823399 -0.00962406
-0.384489 -0.120943 -0.00908686
0.000335499 0.163407 0.0107785
-0.0304838 0.107603 -0.143114
0 0 0
-0.297701 0.0354759 0.013945
-0.00391939 0.0180532 0.00611644
-0.517422 0.00206742 -0.0586091
-0.0615134 0.0598461 0.117258
-0.120203 0.245423 0.304252
-0.00326395 0.099278 0.00287414
0.0218618 0.0698534 -0.178057
-0.199884 -0.00442911 -0.0440224
0 0 0
-0.112178 -0.207301 -0.0221917
0 0 0
0.283807 0.560079 0.152669
-0.00699991 -0.0061108 0.00529898
0.115377 0.0721499 -0.118386
-0.0474688 0.0638176 0.00483086
-0.0123895 -0.0444783 -0.0374665
0.00123719 0.00473366 -0.0155349
-0.0289114 -0.191211 0.114424
0 0 0
0.159971 0.0227445 -0.236989
0.33153 -0.392626 -0.340117
-0.00168371 0.109548 -0.324656
0.349361 -0.243987 0.184427
0 0 0
0.0589676 -0.0271218 0.000521008
0 0 0
0.640563 0.174424 -0.163117
0.361724 0.263145 0.0205648
-0.0291681 -0.0445384 0.000994765
-0.037047 -0.0199129 -0.0367043
-0.352354 -0.332763 0.176241
0 0 0
-0.128819 0.00742701 -0.000845396
0 0 0
-0.128925 -0.0925625 0.160127
0 0 0
0 0 0
0 0 0
-0.0157802 0.0350772 -0.0181912
-0.088254 0.131779 -0.147982
-0.167266 0.00788681 0.512616
-0.022294 0.0228351 0.0517453
-0.111247 -0.243438 0.089891
-0.00237746 -0.0328157 0.182124
-0.137522 -0.0358679 0.0130514
-0.0184793 0.0426794 0.0542918
0 0 0
0.237829 0.246115 -0.162421
0.0753831 -0.0464412 0.0383148
0.349118 -0.223382 0.0179469
0 0 0
-0.34362 -0.357305 -0.277996
0 0 0
-0.0527821 -0.00250369 -0.084637
0.127334 0.198611 0.234079
-0.0899615 -0.126144 0.0446871
-0.118322 -0.0809056 0.00354682
0 0 0
0.115673 0.0659381 0.0373936
0.0642354 0.283463 0.180805
0.138782 0.0298691 -0.0532019
0 0 0
-0.390458 0.205231 -0.550048
-0.405646 -0.266319 -0.102005
-0.0128135 -0.0725911 -0.0539634
-0.0263354 0.364044 -0.0382412
0.00289745 -0.102139 0.0581518
-0.232706 0.466362 0.225133
-0.152571 0.154146 -0.0904579
-0.0860873 0.00254988 0.0698929
-0.101177 0.0573802 0.110612
-0.0737055 0.044276 -0.265482
0.0963449 -0.0126329 -0.154659
0 0 0
0 0 0
-0.0625237 -0.0706132 -0.419718
0.00103053 0.0860985 0.085304
-0.118872 -0.341192 -0.2941
0 0 0
0.126466 0.0355078 -0.0780242
0.109845 0.20291 0.183257
0.074684 0.155583 0.337497
0.245148 -0.0625837 0.0489786
-0.31848 0.0564137 -0.109515
-0.490503 -0.103783 -0.0869857
-0.0621487 0.00854031 -0.0398364
-0.249726 0.255735 0.473145
-0.139143 0.611511 -0.0352341
-0.280951 0.0823004 0.308183
-0.125514 0.0547218 0.0126625
-0.0397499 0.0347556 0.0214888
0 0 0
0.125623 -0.147754 0.499763
-0.0696763 0.0199735 0.0555683
-0.0137328 -0.0537736 0.0753162
0 0 0
-0.170532 0.0497056 0.412163
-0.124851 0.344912 0.300626
-0.0322403 0.0148014 0.0104247
0.033726 -0.327462 -0.287674
-0.00187727 0.0952245 0.0114623
0.0143942 -0.0601228 -0.102453
0 0 0
-0.0609282 0.0660234 -0.00204069
0.0501459 0.00132498 -0.00113052
-0.0596613 -0.107692 -0.00383434
-0.0784161 -0.0748387 0.00299997
0 0 0
-0.21471 0.208469 0.112497
-0.160273 -0.0994104 0.101184
-0.206556 -0.170954 -0.0846816
0 0 0
0 0 0
0 0 0
0 0 0
0 0 0
0 0 0
0 0 0
0 0 0
0 0 0
0 0 0
0 0 0
0 0 0
0 0 0
0 0 0
0 0 0
0 0 0
0 0 0
0 0 0
0 0 0
0 0 0
0 0 0
0 0 0
0 0 0
0 0 0
0 0 0
0 0 0
0 0 0
0 0 0
0 0 0
0 0 0
0 0 0
0 0 0
0 0 0
0 0 0
0 0 0
0 0 0
0 0 0
0 0 0
0 0 0
0 0 0
0 0 0
0 0 0
0 0 0
0 0 0
0 0 0
0 0 0
0 0 0
0 0 0
0 0 0
0 0 0
0 0 0
0 0 0
0 0 0
0 0 0
0 0 0
0 0 0
0 0 0
0 0 0
0 0 0
0 0 0
0 0 0
0 0 0
0 0 0
0 0 0
-0.00196992 -0.0472928 0.0693849
-0.057446 -0.0869945 0.0429297
0 0 0
0.102124 0.0171689 -0.251018
-0.0557139 0.067733 0.0994763
0 0 0
-0.0426731 0.00339091 0.123237
-0.0370901 0.0159368 -0.0569007
-0.120874 -0.0147464 0.151111
0.0040937 -0.0936156 0.235667
-0.00411683 0.131839 -0.0616912
-0.0291483 -0.0845914 0.0780336
0.20485 -0.0919167 0.0143711
0.00366097 -0.00273492 -0.00227298
0.14114 0.144841 0.137328
0.00460354 -0.103135 0.25596
-0.0652723 0.160175 -0.266534
0.00507967 -0.0584806 0.0538444
0 0 0
0.132707 -0.0555238 0.0867164
0.102055 -0.0140858 0.0754659
0 0 0
0.0263119 -0.00186154 0.038322
0.0174208 -0.178184 -0.149432
-0.00608717 0.227787 0.0633975
0.141358 0.0162863 0.137026
0 0 0
0.00513763 -0.0712104 -0.0262201
0.0200497 -0.0067514 -0.388288
0 0 0
0.025809 -0.00567494 0.0913624
-0.0253719 0.0211721 -0.157669
0 0 0
-0.0249489 -0.00303544 0.0464167
0 0 0
-0.059853 -0.0142726 0.182797
-0.0498076 -0.00512857 0.114663
0 0 0
0.0200045 0.0110131 -0.146845
0.000148256 0.229752 0.321185
0.00733017 -0.198994 -0.247088
0.0975729 -0.00104561 -0.0854638
0 0 0
0.0425885 -0.0185362 -0.0332809
-0.142878 -0.00663224 -0.13149
0 0 0
-0.0227048 -0.00523492 -0.0559765
-0.123081 0.0444125 0.0224169
0.0578628 -0.0503335 0.0908659
0.0648563 -0.0380124 0.0564001
0 0 0
-0.159892 -0.00109196 0.0351189
0.120477 0.0793557 -0.0193761
0 0 0
-0.0355069 0.000556104 -0.0249385
0.00411425 -0.230436 0.0204046
0.0283852 0.217154 0.0194984
-0.0699709 0.00798097 -0.0534959
0 0 0
-0.0231302 -0.148222 -0.0285117
-0.0270957 0.0269306 0.205592
0 0 0
-0.0303574 -0.0481225 -0.0588888
0.025694 0.00121189 0.0387437
0.0849282 0.59572 0.0134227
0 0 0
-0.369781 -0.220682 0.103159
0.298139 -0.0536405 0.0830068
0.000417985 0.0449108 0.0569373
0.0934093 -0.109463 -0.278386
-0.215133 -0.0330879 -0.154527
0.0787213 -0.229605 0.0663929
0 0 0
0.0229254 -0.320577 0.00296236
0 0 0
0.0671313 -0.16159 -0.0665797
-0.100123 0.0247896 0.0392128
0.0750775 -0.335658 -0.0311627
-0.358789 -0.091504 -0.213991
-0.0651261 0.518711 -0.257737
0.104524 -0.346167 0.0645959
0.166808 0.0494018 0.186052
0.000443487 0.00443313 0.0145471
0.111672 0.0166667 -0.309446
-0.0480021 0.107146 0.00348511
0 0 0
0.243056 0.094708 0.0247274
0.0208726 0.0348618 -0.0721935
0.0703162 0.194912 0.132459
0 0 0
-0.0780588 0.0403395 0.0711365
0 0 0
-0.122478 -0.183703 -0.320856
-0.000544771 0.208896 0.0236212
-0.493973 -0.458419 -0.0588438
0.0523544 -0.127258 -0.0299588
-0.0861925 -0.407707 0.151016
0 0 0
-0.0572301 -0.037199 0.0048242
-0.28103 0.0325721 -0.0474965
-0.201384 -0.11364 0.00450114
0 0 0
-0.0756486 -0.379659 0.142354
0 0 0
-0.139396 -0.121532 -0.0535845
0.119928 0.0819261 0.0779616
0.00241829 0.00424057 0.00448477
-0.100921 0.102166 0.0409555
-0.00530723 -0.0438593 0.130439
-0.00915907 -0.142872 0.177146
0.244054 -0.239548 -0.00619629
0.13411 0.0131593 -0.130259
-0.264909 0.00337114 -0.235105
0.00534496 0.00729522 0.0116879
0.00767045 -0.226724 0.00240225
0 0 0
-0.054241 0.0471736 0.195088
0.037968 0.00103569 0.026207
0.362777 0.0779663 -0.336128
0 0 0
0.206083 0.170036 0.151959
0 0 0
0.141836 0.275106 0.25463
-0.0405339 -0.0480076 -0.162897
-0.163329 -0.416345 -0.207638
-0.0278648 0.0436743 0.0165618
0.0801694 0.0808729 -0.0346638
0 0 0
0.132572 -0.156182 0.0424468
-0.206028 -0.171072 -0.00882358
-0.0245305 -0.019955 0.00885495
0.16674 -0.0719622 -0.115674
0.09147 -0.199733 -0.188707
0 0 0
-0.00109746 -0.414851 0.29919
0 0 0
0.335138 -0.0225348 0.0378722
0 0 0
-0.0219243 -0.0311954 0.219532
-0.0699923 -0.0404887 0.053414
0.325862 0.114992 -0.0399267
0.331625 0.061669 -0.24398
0.460498 -0.164273 -0.147166
0 0 0
0 0 0
0.00811879 0.00269679 0.00399301
0.13485 -0.03161 -0.373556
-0.00846457 0.00618557 -0.118894
-0.0108886 0.0120769 -0.0425882
-0.0244731 0.0470721 0.285006
0.172102 -0.268401 -0.21372
0.0882329 -0.0733028 0.00293152
0.252869 -0.0216852 0.107528
0.0238152 -0.00931363 -0.0130479
0.072791 0.0375018 0.0950349
-0.0849408 0.431276 -0.145615
0 0 0
0 0 0
0 0 0
0.320585 -0.0601245 -0.087016
0 0 0
-0.0203398 -0.0250387 -0.0246432
0.0010819 0.170217 0.133471
0.238706 0.273955 0.000437615
0 0 0
0.0749024 -0.228095 0.0727949
0.235813 0.217103 0.0914936
0.0204133 0.013751 0.00118988
-0.0252854 0.00708743 -0.061432
-0.00133529 -0.0641443 0.124167
-0.167618 -0.162478 0.0570635
0 0 0
0 0 0
0 0 0
-0.051246 0.0389209 -0.0327631
0 0 0
-0.176211 0.220673 0.0288546
-0.433756 -0.351177 -0.40569
0 0 0
0.00161367 -0.0671351 0.0762111
-0.00196242 -0.140307 -0.0335993
0 0 0
-0.153859 0.641347 -0.303556
-0.00978955 -0.0857476 -0.0583509
-0.376137 -0.0426685 0.0624226
-0.0592806 -0.0211676 -0.00333182
0 0 0
0 0 0
-0.00966689 0.00804848 -0.00430402
-0.0281882 -0.211127 -0.0491846
-0.415295 0.0868272 0.0182786
0 0 0
0.183174 -0.0368848 0.142376
-0.345505 0.474267 0.104377
0 0 0
0.0121439 -0.0163228 -0.00112594
0.00780597 0.0103778 0.0136389
-0.0015908 0.374902 0.518364
0 0 0
0.129608 -0.0757273 -0.0925156
0 0 0
0 0 0
-0.175405 -0.255657 0.370664