<?xml version="1.0"?>
<VTKFile type="RectilinearGrid">
<RectilinearGrid WholeExtent="0 32 0 32 0 32" Origin="0 0 0" Spacing="1 1 1">
<Piece Extent="0 32 0 32 0 32">
<PointData>
</PointData>
<Coordinates>
<DataArray type="Float32" format="ascii">
0 0.524874 1.04975 1.57462 2.0995 2.62437 3.14924 3.67412 4.19899 4.72386 5.24874 5.77361 6.29849 6.82336 7.34823 7.87311 8.39798 8.92285 9.44773 9.9726 10.4975 11.0224 11.5472 12.0721 12.597 13.1218 13.6467 14.1716 14.6965 15.2213 15.7462 16.2711 16.796 
</DataArray>
<DataArray type="Float32" format="ascii">
-5.03879 -3.62163 -2.20447 -0.787311 0.629849 2.04701 3.46417 4.88133 6.29849 7.71565 9.1328 10.55 11.9671 13.3843 14.8014 16.2186 17.6358 19.0529 20.4701 21.8872 23.3044 24.7216 26.1387 27.5559 28.973 30.3902 31.8074 33.2245 34.6417 36.0588 37.476 38.8931 40.3103 
</DataArray>
<DataArray type="Float32" format="ascii">
0 0.524874 1.04975 1.57462 2.0995 2.62437 3.14924 3.67412 4.19899 4.72386 5.24874 5.77361 6.29849 6.82336 7.34823 7.87311 8.39798 8.92285 9.44773 9.9726 10.4975 11.0224 11.5472 12.0721 12.597 13.1218 13.6467 14.1716 14.6965 15.2213 15.7462 16.2711 16.796 
</DataArray>
</Coordinates>
<CellData>
<DataArray type="Float32" Name="Vector" NumberOfComponents="3" format="ascii">
0 0 0
0 0 0
0 0 0
0 0 0
0 0 0
0 0 0
0 0 0
0 0 0
0 0 0
0 0 0
0 0 0
0 0 0
0 0 0
0 0 0
0 0 0
0 0 0
0 0 0
0 0 0
0 0 0
0 0 0
0 0 0
0 0 0
0 0 0
0 0 0
0 0 0
0 0 0
0 0 0
0 0 0
0 0 0
0 0 0
0 0 0
0 0 0
0 0 0
0 0 0
0 0 0
0 0 0
0 0 0
0 0 0
0 0 0
0 0 0
0 0 0
0 0 0
0 0 0
0 0 0
0 0 0
0 0 0
0 0 0
0 0 0
0 0 0
0 0 0
0 0 0
0 0 0
0 0 0
0 0 0
0 0 0
0 0 0
0 0 0
0 0 0
0 0 0
0 0 0
0 0 0
0 0 0
0 0 0
0 0 0
0.056908 0.117007 -0.0513357
-0.245839 -0.0649453 0.0519723
0.00804489 -0.0249946 0.0300761
-0.0512076 -0.0521463 -0.102906
-0.0720524 0.219924 0.0314239
0 0 0
-0.0719929 -0.00468996 0.00065811
0.0634861 -0.145743 -0.063144
-0.018442 0.00292659 0.0345618
-0.0907643 -0.228346 0.000816674
0 0 0
-0.146039 0.119252 0.009097
0.0358361 0.0417636 -0.161708
0 0 0
0.0130241 0.141301 0.0013183
0.00610194 0.0144681 0.0467145
-0.0777123 0.143713 -0.0713093
-0.00342096 0.0506611 0.0397368
0.0151244 0.0884737 0.171851
0.13527 -0.052203 -0.171188
-0.226125 -0.0583249 0.064409
0 0 0
-0.0568131 0.0057027 0.130869
-0.038183 0.0656893 -0.171275
-0.0124433 0.101363 0.126076
-0.158883 -0.145744 -0.0263054
0 0 0
0.130286 0.0519368 -0.0775309
-0.0243789 -0.11486 -0.00221594
0 0 0
-0.0759918 -0.0594204 0.00563157
0.0524752 0.283604 0.0625085
0.0994263 0.0838233 -0.112766
-0.0369043 5.49862e-05 -0.0140967
0 0 0
-0.164774 -0.208423 0.0018947
0.0156281 0.0125415 -0.0165068
0 0 0
0.0767802 0.291634 -0.0442688
-0.0400845 0.00112998 0.0199355
-0.0157074 0.00832559 0.0121441
0.00298248 0.117034 0.0472642
0 0 0
-0.0666944 0.0455787 0.0621233
-0.183722 -0.065625 0.00887414
-0.00102773 0.0515148 0.0141188
0.0226726 0.0657572 0.00870493
0.0123525 -0.0978343 0.0298158
0.0707161 0.0466887 -0.0415451
-0.0433591 -0.0280045 -0.0497417
0 0 0
0.0674355 0.281512 0.09542
0.0135195 0.0462121 -0.0127877
0 0 0
0.102806 0.0721259 -0.0377955
-0.0790425 0.024403 -0.0150275
0.00479503 -0.0797729 -0.119094
0.0215994 -0.0390653 0.000699734
0 0 0
-0.06178 -0.00473867 0.0179357
-0.00721381 0.188598 0.00807275
0 0 0
-0.282775 -0.0154739 0.0473897
0.0781237 -0.0408922 0.106342
-0.000450547 0.0593484 -0.209673
-0.131351 -0.039034 0.0155107
-0.0927309 -0.028392 -0.205507
-0.00607721 0.0609413 -0.194978
-0.115459 0.139199 -0.0118869
0 0 0
0 0 0
0 0 0
-0.0847378 -0.0282828 -0.291925
-0.175346 0.0169083 -0.0283883
-0.00162293 0.0852885 -0.0918016
0.0353042 0.0931726 0.115754
-0.364648 -0.322288 -0.0974139
0 0 0
-0.0432014 0.147668 0.0359567
0 0 0
-0.0677236 -0.365622 0.1552
0.0252023 -0.0218919 0.0470578
0.00142043 -0.0454951 -0.0457619
0.204099 -0.388097 0.056294
0.022669 0.183026 -0.171828
-0.0621469 0.0374863 -0.000510694
0.0408517 -0.0178714 -0.167813
0.0740581 0.266403 0.046687
0.0407483 -0.106698 0.132185
-0.105811 -0.134142 -0.00292561
0 0 0
-0.154741 -0.156075 0.00101951
-0.200425 0.00793299 -0.097532
-0.00208724 -0.0802308 0.0297724
0.2373 -0.0105584 -0.134894
0.00128609 -0.168777 -0.026187
0.15581 -0.157424 0.0664271
-0.251323 -0.418007 0.109007
-0.00337746 -0.0914848 -0.0884283
-0.285542 0.145914 -0.316084
0 0 0
0.21612 -0.313636 0.192794
0.0266543 -0.0191713 0.0405707
-0.102558 0.170904 -0.185345
-0.0628721 -0.0222603 -0.049345
0 0 0
-0.0343205 -0.165018 0.0199098
0.000559158 -0.0599695 0.00624637
0.0473786 -0.197269 0.0124727
0.0978507 -0.143998 -0.0381501
0.0612378 -0.160491 -0.0611752
0 0 0
0 0 0
0.0927138 -0.176612 -0.311196
0 0 0
0.189486 0.17887 0.143553
0 0 0
0 0 0
0.0112928 0.20948 -0.432276
0.0109047 -0.0547242 0.0257314
0.107727 0.381614 -0.121608
-0.100161 -0.120247 0.0203671
-0.112727 -0.0684565 -0.0911494
-0.219374 0.24869 0.0403372
0.0372781 0.0355563 -0.315993
0 0 0
-0.076059 0.210311 -0.00137971
0.0505476 0.00984061 -0.14236
-8.59603e-05 0.0072844 -0.0278779
-0.228995 -0.151775 -0.129126
0 0 0
0.039877 0.0250478 -0.000475898
-0.0313345 0.0578647 -0.126668
-0.0386108 -0.0460724 -0.0478985
-0.168168 0.174415 -0.141562
0 0 0
-0.227815 -0.0766711 -0.0726993
-0.0666582 -0.379926 0.429281
0 0 0
0 0 0
-0.0936461 -0.119029 -0.147889
-0.0503911 -0.0071119 -0.178269
-0.0779329 -0.0277848 0.000942637
0.192591 0.396481 0.0301767
0.196671 -0.171562 0.0105542
0 0 0
0 0 0
0.229421 0.257778 -0.100212
0.0277872 0.0117386 -0.163273
0.0979742 0.0537048 -0.158335
-0.0598583 0.479151 -0.167333
0 0 0
0.0752489 0.0657387 -0.0357112
0 0 0
0.227897 0.250756 0.0577576
0.133813 -0.328841 -0.220572
-0.00012426 0.0481801 0.0682123
0.155189 -0.0673061 -0.0502478
0 0 0
0 0 0
0.0793214 -0.0150207 -0.268968
-0.108246 0.00569154 -0.0725833
-0.0855022 -0.315326 -0.219657
0.222394 0.150597 0.239313
0.0506387 -0.0301642 0.158767
0 0 0
0 0 0
0.19275 0.179897 0.114433
-0.0106811 -0.0139693 -0.034167
0.00263239 -0.0666082 -5.6185e-05
-0.101902 -0.0924707 0.0566047
-0.000623957 -0.270263 -0.146022
-0.189084 0.0424793 0.177844
0.110623 0.0139699 -0.0441084
-0.0592097 -0.0506804 0.0215135
0 0 0
0.314038 0.13264 -0.0684552
0.179051 -0.0877197 0.126264
0 0 0
-0.00861688 0.00829604 0.418667
0 0 0
0.141354 0.222971 -0.036917
-0.0205809 0.380117 0.317938
-0.0567577 0.0894182 0.169169
-0.191548 0.223126 -0.0817432
0 0 0
0 0 0
-0.00154974 0.0667384 0.0309755
-0.219647 -0.0674347 0.037795
-0.068013 0.0582149 0.00972935
-0.0352011 0.150969 0.409099
0 0 0
0.30189 -0.114089 0.172986
0.262772 -0.252279 0.00018338
0 0 0
-0.0524999 -0.110344 0.395296
0.101981 0.178195 -0.0686064
0.0253924 -0.13281 0.437061
0 0 0
-0.0249767 0.0779395 -0.00107756
-0.0414025 -0.163023 0.270212
0.189522 -0.191538 0.0683365
0.0498377 0.0882648 -0.173226
0.143102 0.11885 0.51128
0.0380216 -0.224956 -0.0307571
0.274411 -0.549301 0.268347
0.0237398 0.0132192 0.0957568
0.125446 -0.110791 -0.110778
-0.0510601 0.0328824 0.100436
-0.10743 -0.00133835 -0.451146
-0.136368 -0.0648956 -0.29994
-0.129281 0.317115 -0.11773
0.000274573 -0.0845325 0.0326787
-0.148723 0.084648 -0.210922
0 0 0
0.0193062 -0.00991041 -0.0277317
0 0 0
0.0444936 -0.0204108 -0.000825721
0 0 0
-0.0882611 0.021852 0.00494692
0 0 0
0.0669802 -0.0290887 0.376961
0.0956176 -0.0486423 0.175612
0 0 0
0.0154585 0.0143464 -0.0337957
0.389352 -0.00511145 0.0983063
0.111166 -0.245501 -0.0237338
0.217244 0.182809 0.0917227
0.0408929 0.0350914 -0.0267793
0.00763719 -0.05561 -0.0023589
0.0670504 0.0134262 0.10264
0 0 0
0.153726 -0.00662118 0.05863
0 0 0
0.0332826 0.0309405 -0.156707
0 0 0
-0.101048 -0.0472533 -0.11538
0.0397377 -0.049674 -0.00178074
0 0 0
-0.257863 0.221704 -0.131563
0 0 0
-0.0618355 0.0771151 -0.339163
0 0 0
-0.274604 0.031826 -0.0638533
-0.318613 -0.261469 -0.00911915
-0.454182 0.283632 0.291893
-0.283536 -0.0031326 0.119359
-0.00399389 -0.00106304 0.0274617
-0.0962963 -0.0461437 -0.0322219
-0.139328 -0.0872023 0.0201782
-0.100053 0.251437 -0.2535
0.111061 0.012709 -0.466103
0.00283441 0.0244625 -0.055199
0.0721744 0.188344 -0.146948
-0.011168 0.0471077 -0.140943
0.343776 -0.000729692 0.457353
0.000644199 -0.00189537 0.0869231
0 0 0
0 0 0
0.0344971 0.0321233 0.0295702
0 0 0
0.131519 -0.152776 -0.0606787
0.1427 -0.0889001 0.154087
-0.0861391 0.0339528 0.279783
-0.027251 -0.0152588 0.0422221
0.25025 -0.538243 -0.242484
-0.268994 -0.170791 0.0405432
-0.320951 -0.0890783 0.0459512
0 0 0
-0.0339355 -0.0948639 0.190218
0 0 0
-0.117798 0.0202435 -0.169618
-0.232078 0.289053 -0.251493
-0.251289 0.0786318 -0.102376
-0.0350808 0.109054 -0.00876518
0.0300593 0.184936 0.129858
0.15276 -0.00795642 -0.107545
0.0122567 -0.00439942 -0.0236106
0.0774007 -0.264093 0.146596
0.0521724 -0.131887 0.00915748
-0.00149962 0.0134957 -0.174473
0.187687 -0.0489818 -0.362089
0.0565516 -0.0446603 0.00209666
0 0 0
-0.162414 0.161537 -0.200584
-0.0116213 0.298209 -0.116574
-0.0728879 -0.0123284 0.0350907
0.0129378 0.0848477 -0.0827639
-0.208508 0.0823769 0.221201
-0.234392 -0.17516 -0.1921
-0.105436 0.0930521 0.0978455
-0.263322 0.254891 0.166364
0 0 0
0 0 0
0 0 0
0 0 0
0 0 0
-0.114308 -0.0410327 -0.0689548
-0.158961 -0.0135718 -0.189873
-0.00713393 -0.0163496 -0.00975529
0 0 0
0.162562 0.0510594 0.0762539
0.0172789 -0.0246062 -0.0205
0.0120937 0.437131 -0.342279
0.00173434 0.214927 -0.123686
0.138789 0.00788368 -0.0927076
-0.141706 -0.272074 0.412768
-0.569937 -0.211343 0.173167
-0.000102402 -0.156444 0.0174889
0.0168002 0.0395628 -0.180599
0 0 0
0.46822 -0.348485 0.34593
0.0332441 -0.0960991 0.113089
0.463996 -0.108844 -0.208458
0.51659 -0.198409 -0.0840817
0 0 0
0 0 0
0.22881 -0.0555906 0.00916761
0.172467 0.170091 -0.0271906
0 0 0
-0.21013 0.06022 0.112748
-0.141426 0.245062 -0.161551
-0.045369 0.0281566 0.0603479
0.0925167 0.0369352 0.0573026
0 0 0
0 0 0
0 0 0
-0.00764155 0.00403207 0.204329
0 0 0
-0.11741 -0.398759 -0.315757
-0.14417 -0.270683 0.401249
-0.00957963 -0.0941243 -0.00952697
0.0347516 0.137895 -0.0908567
-0.0133151 0.00514255 -0.00140044
-0.477304 -0.219673 -0.215347
-0.100702 0.205392 -0.271551
0 0 0
0.370418 -0.109941 0.132955
0.227648 0.211494 -0.284215
0.26138 0.132837 -0.0578997
0.224799 0.333232 -0.0377484
0.0788719 0.0216116 0.103841
0.0205951 -0.00246842 0.0315764
0 0 0
-0.157828 -0.0607476 0.181621
0.208428 -0.205378 -0.108178
-0.114527 -0.0855812 0.0773703
0 0 0
0.0205862 -0.0124833 0.140266
0 0 0
-0.105157 0.267433 0.370765
0.0136574 0.00810664 0.0245343
-0.00829097 0.0335506 -0.0649393
0.0348335 0.0161674 0.125526
0.393718 0.0135751 -0.468477
-0.017221 0.0146362 0.0382194
0.064533 -0.0543282 0.057636
0 0 0
-0.068539 -0.121877 0.0905493
0 0 0
0 0 0
0.0618941 0.017225 -0.000619656
-0.339449 -0.0894153 -0.0498164
-0.304644 0.00901306 -0.363907
-0.198603 0.0144539 0.148095
-0.0917147 0.0787256 0.0668228
-0.0696292 -0.099826 0.101977
-0.0104596 0.0303938 -0.0796264
-0.151023 -0.276159 -0.0405761
-0.000184994 -0.0191963 5.59085e-05
0.119587 -0.285206 0.125842
-0.00460614 0.0124074 0.000208143
-0.126594 0.0918684 0.00109102
-0.0562142 0.00718891 0.184183
-0.246867 -0.14946 0.0311117
0 0 0
0.223493 -0.242249 0.163517
-0.0450198 0.0315063 0.116635
0.049873 0.0736101 0.0529563
0.0702545 0.0843645 0.136748
0 0 0
-0.0321884 -0.0790816 0.121213
0.00708804 -0.0716867 -0.00266135
-0.00915676 0.0125697 -0.051038
0 0 0
0.0494436 0.515293 0.156936
0.175094 -0.100861 -0.0492949
0.012746 0.0646314 -0.0544167
-0.118 -0.062071 0.0172249
0 0 0
-0.00210206 0.191785 0.0662916
0.00415875 0.120087 -0.138621
0 0 0
-0.28023 -0.49194 -0.415861
0 0 0
0 0 0
0.0244013 -0.0872258 0.149937
-0.00185494 -0.347719 -0.148
0.0986999 0.00582851 -0.123867
0.0568786 -0.0477443 0.0485721
0.0874548 0.1451 0.152376
0 0 0
0 0 0
0.00205191 -0.379427 -0.372945
0 0 0
-0.098603 0.0212431 -0.157235
-0.0534788 -0.233571 -0.315568
0 0 0
0.0790961 -0.235409 -0.253901
-0.000405513 -0.0475498 -0.102017
-0.178617 -0.089452 -0.117714
-0.31868 0.0160113 0.0324204
0.0223179 -0.00759799 0.0933595
-0.114811 -0.184379 0.148514
-0.203202 -0.0809317 0.106651
0.0316169 -0.439773 -0.0707646
0.0337662 -0.0122128 -0.0285081
0.245084 -0.130556 -0.0438299
0 0 0
0.0223855 0.0651002 -0.0347718
0.156431 0.257239 0.0110633
-0.362449 -0.168029 -0.200345
-0.123321 0.0543921 -0.0611202
0.0991984 0.0336876 -5.9808e-05
-0.005257 -0.0271169 0.0948267
-0.0518536 -0.0197649 -0.0676754
-0.243415 -0.300875 -0.0784559
-0.0780639 -0.0768539 -0.14118
-0.181885 -0.183783 -0.0595885
0.340854 0.348742 0.288468
0 0 0
0 0 0
-0.0223004 0.126221 0.0340211
-0.136274 0.0312605 0.00818851
-0.068668 -0.0737163 -0.263306
0.00162104 -0.0701353 0.287354
4.58392e-05 -0.200878 0.10564
0.0368061 -0.0745205 0.146144
0 0 0
0 0 0
-0.234512 -0.000482985 -0.0449831
0 0 0
-0.0460672 0.2032 0.261188
0.00257609 0.0417582 -0.00800321
-0.0728663 0.00145249 0.000481609
0 0 0
0.150077 0.103007 0.245321
0.00131396 0.0116154 0.0185527
0.480734 0.145638 -0.328057
0.119007 0.138143 -0.115267
0.0249654 0.000462632 -0.0144975
0 0 0
-0.0213514 -0.272951 -0.237893
0 0 0
-0.0569067 0.040504 -0.0176049
0 0 0
0.0461048 -0.0815035 0.284971
0 0 0
0.0806299 -0.140061 -0.00115033
0 0 0
-0.0209381 0.0200886 0.0417217
0.0215653 0.185229 -0.0519798
0.00739149 0.12356 0.00241684
0.238236 0.0982668 0.17576
0 0 0
-0.0354751 -0.267862 -0.0144445
-0.0320644 -0.00403609 0.0456184
-0.368441 -0.374315 -0.15177
0 0 0
-0.0804827 0.106351 -0.147491
-0.0709042 -0.230129 0.224228
0 0 0
-0.0929624 0.144284 0.00415499
0 0 0
-0.0141389 0.00736496 0.0902312
-0.146081 0.305782 -0.14338
-0.139082 0.188803 -0.232582
-0.0818114 -0.0177077 -0.0939019
0 0 0
0 0 0
0 0 0
-0.0882042 0.00347736 -0.302788
-0.0971479 -0.0378063 -0.0499407
-0.0361782 0.137385 -0.0589891
-0.223484 0.332444 -0.251701
0 0 0
-0.158688 -0.00249111 0.0314255
0.00901796 -0.0223166 0.0440368
0.309431 0.0862213 -0.465752
-0.00318985 -0.0481858 0.0285398
-0.22722 0.385245 0.0591445
-0.0556244 -0.0970541 0.0714642
-0.15111 0.16444 0.231486
0 0 0
0 0 0
0 0 0
-0.0584445 0.0594941 0.0669788
-0.0632508 -0.302883 0.00594117
-0.00221854 0.0579409 0.0778127
0.160025 0.245479 0.127679
0.0893488 -0.122123 0.0066874
-0.0310853 0.106384 -0.0884904
0.0378564 -0.167338 -0.345955
-0.316152 0.178501 -0.0294245
0.201417 -0.0118846 -0.0531943
-0.223009 0.231328 0.0386299
0.130333 -0.0614496 -0.208994
0.139638 -0.0284621 -0.207361
0 0 0
0 0 0
0.0486982 -0.14207 -0.000484706
0.0204589 0.000579216 0.0031486
-0.0595092 -0.2878 0.027572
-0.354958 0.266511 -0.0287672
0 0 0
0 0 0
0.0450323 0.00157241 -0.0496399
0 0 0
0 0 0
0.112982 -0.129599 -0.231973
0 0 0
-0.0289637 -0.274157 0.107256
-0.0029328 0.0459236 -0.00483928
0.118542 -0.0164737 0.109148
0 0 0
-0.101795 -0.0248133 0.0698028
0.071462 -0.4559 -0.239559
0.00227437 -0.0195489 0.118454
0.018145 0.0182244 0.0914093
0 0 0
0 0 0
0.22418 0.247564 -0.260332
0.000121897 0.0236317 0.0213754
0.271759 0.383983 0.158054
0 0 0
-0.140015 0.0690005 -0.0882095
-0.0221999 -0.12443 0.0040725
0 0 0
-0.236385 -0.321825 0.00039838
0 0 0
-0.182303 -0.0834822 0.185031
0 0 0
-0.078386 -0.230379 -0.00406777
-0.0810102 -0.0303477 -0.040228
0 0 0
-0.147021 0.258749 -0.065306
0 0 0
0 0 0
0.310713 0.190259 0.472947
0 0 0
-0.167152 0.186535 0.155919
-0.0428345 0.173286 0.0211764
-0.23209 -0.36742 0.175874
0 0 0
0 0 0
0.0613736 -0.0168421 0.0114258
0.0115315 -0.0157846 -0.00970431
0 0 0
0.312549 -0.246869 0.110365
-0.0413261 -0.000469629 -0.0255449
-0.0803506 -0.11698 -0.0135504
-0.0404919 -0.397594 0.115714
0 0 0
0.148972 0.127123 0.290879
0 0 0
0 0 0
0.0333228 0.00102325 -0.000712917
0.112424 0.300909 0.0389972
0 0 0
-0.0759663 0.137455 -0.0789237
0.106487 -0.0304423 0.000112157
0 0 0
0 0 0
-0.103576 -0.0202891 -0.00150957
-0.028568 -0.000363833 0.0264224
0.0776103 -0.149312 -0.299493
0.0261846 -0.0935904 -0.223333
0.0111491 0.0147604 0.0636414
-0.0337298 0.0236114 -0.131285
0 0 0
-0.221084 0.0975519 0.0519418
-0.252303 -0.0772517 0.084026
0 0 0
-0.093767 0.000364234 -0.14564
-0.100102 0.00173076 -0.0698215
-0.0585875 -0.172712 -0.211627
0 0 0
-0.00807926 -0.151906 0.0923759
0.0944997 -0.0335044 0.0746216
0 0 0
0.0153346 0.172302 -0.0677456
-0.100547 0.00963524 0.14867
-0.0196281 -0.0334237 -0.000187931
0 0 0
0.0858915 0.0471898 -0.128081
0 0 0
0.0644572 0.0648661 -0.0166775
0.125201 -0.113863 0.279031
-0.00541925 0.0666406 -0.0751569
0.102889 0.24305 0.293873
0.527537 0.131605 0.0732506
0.0789137 -0.101273 -0.177247
0.376686 0.000250602 -0.0459177
0 0 0
0.0114463 0.171766 -0.158994
0.0939912 -0.0665666 0.0714549
-0.195197 0.062074 -0.0563196
-0.0964179 -0.332839 -0.0522473
-0.132521 0.431391 0.036491
0 0 0
0 0 0
-0.0674759 0.167316 -0.000322141
-0.06549 0.359574 -0.0904404
0.046847 -0.172239 -0.0333697
0 0 0
-0.0738977 -0.0334608 0.0353891
-0.437085 -0.318914 -0.060772
0.00184739 -0.0238964 0.0724214
-0.0494936 -0.0763841 0.131701
-0.00402583 -0.0525535 0.00421591
0 0 0
0.0519608 -0.0026405 -0.0850261
0 0 0
-0.571993 -0.160128 0.00982926
-0.042355 0.110044 0.0887652
-0.0106647 0.0575017 -0.21757
-0.0107024 0.00351138 0.0031506
0.190177 -0.0556258 -0.337726
-0.140227 -0.103804 0.00155856
-0.0848925 -0.0226126 0.104179
0.031897 -0.00989825 -0.0414531
0 0 0
-0.00293362 -0.110263 0.205688
-0.027242 -0.0192315 0.0599026
0 0 0
0 0 0
0 0 0
0 0 0
-0.0785691 -0.403467 -0.119361
-0.0532709 0.148463 -0.0415685
0.0144647 0.0502867 -0.0189099
0.0111778 -0.0285266 0.0543092
0.064145 -0.0891098 -0.052708
0.115352 0.207978 -0.035524
0 0 0
-0.00436015 -0.208876 -0.0971432
-0.00599798 -0.101545 0.0102097
-0.0122035 0.0259867 0.221574
0.11768 0.0194103 0.0205941
-0.273644 0.00419288 -0.0992764
-0.00206346 0.0384826 0.0162434
0.00409858 0.0493975 -0.00290143
-0.207505 -0.0533714 -0.0348036
-0.210561 0.150335 -0.0523173
0.130877 0.125267 0.180142
0 0 0
-0.181993 -0.142162 -0.0918966
0 0 0
0.12164 -0.0240532 -0.0008164
0 0 0
0 0 0
0 0 0
-0.237922 -0.00215551 0.21097
-0.0591962 -0.0834103 -0.0882803
0.0656428 -0.000721192 0.104337
0.0516057 -0.0457559 0.152545
0 0 0
0.00225618 0.00346478 -0.00520379
0.204609 -0.163778 -0.09942
0.0939638 -0.117703 -0.187288
0.100018 -0.11206 -0.175264
0.0913686 0.206122 -0.326819
0 0 0
-0.219451 0.208234 -0.16677
0.028116 0.00294976 0.13666
-0.150247 0.240415 0.0598265
0 0 0
0 0 0
-0.0595192 -0.11334 0.173892
-0.0418115 0.0304431 -0.0637126
-0.214875 0.284462 -0.0914226
-0.00694507 -0.00161271 -4.86779e-05
-0.0518246 0.0132364 0.156373
-0.0202109 -0.267999 -0.115249
0 0 0
-0.027237 -0.101445 -0.510866
-0.0168234 -0.0479551 -0.459118
0.00276901 -0.0892186 -0.055653
0.257704 -0.14208 -0.248692
0 0 0
-0.0322952 -0.278634 -0.460497
0 0 0
-0.0239454 -0.167894 0.00319281
0.082978 -0.160432 -0.242609
0.142206 -0.308644 0.450563
-0.203974 -0.382233 0.191599
0.0884725 -0.147188 0.246391
0.142219 0.072129 0.269975
0.152969 -0.13718 -0.0406728
0.0526497 0.129554 0.459035
0.0759463 -0.00169959 0.0169088
0.163283 -0.057983 0.022176
-0.457548 -0.284865 0.2012
-0.383323 0.0626591 0.0627137
0 0 0
0.0304598 -0.0238535 -0.0388695
-0.0283752 0.083863 -0.11507
-0.195355 -0.0562016 0.0817915
-0.456474 0.456388 -0.369714
-0.306664 -0.244027 -0.135173
-0.0662173 -0.0381879 -0.360872
0.149894 0.273408 -0.000662695
-0.180616 0.207065 0.0953901
-0.146321 -0.0486117 0.0719365
-0.0108942 -0.00455882 0.389722
-0.0140097 0.255966 0.034727
0.0910439 0.0236223 0.113108
0.2122 0.549891 0.0489715
0 0 0
-0.317726 0.0511923 -0.270565
0 0 0
-0.00648712 -0.00157194 -0.0237757
0 0 0
-0.117805 -0.126096 0.0788027
-0.11489 -0.0356454 -0.101423
0.0999308 -0.0549737 0.260113
0.102399 0.139262 -0.0672641
0 0 0
0 0 0
0 0 0
0.190527 -0.058277 0.119538
0.157562 0.116206 -0.0189064
0.308835 -0.421185 0.1117
0.0174892 0.106344 0.17346
0.128222 0.0122889 0.188546
0.295118 0.142344 -0.0840196
0 0 0
-0.00616258 -0.134828 -0.361463
-0.294627 0.229548 -0.202556
0 0 0
-0.126563 -0.0407987 0.0575673
-0.260898 0.0875362 0.382325
-0.181836 -0.149019 0.406254
-0.018657 0.012506 0.0219577
-0.217196 0.20476 0.0867897
-0.00407542 0.0207315 0.0210188
-0.188808 0.13513 -0.221974
-0.0476638 -0.0547428 -0.102492
-0.193942 0.223194 -0.253098
0 0 0
-0.0567911 -0.227271 0.130321
-0.147802 -0.0199891 0.00153402
-0.000425743 -0.00130915 -0.069901
0.039397 -0.0382551 -0.204501
0 0 0
0.0729098 -0.0864094 0.205288
0 0 0
0.0639571 0.00496702 0.065804
0.0219114 -0.294332 0.177332
0.0299184 0.0734571 0.0854182
0.418098 -0.103376 0.0619529
0.0627884 0.125283 -0.055309
0.00843427 0.0924761 0.105061
-0.071249 -0.020612 -0.00227871
0.0430861 -0.0619276 0.200375
0.287108 0.244809 0.189378
0 0 0
0.0729377 0.272546 -0.209305
0.0560833 0.185216 -0.209158
0 0 0
0.0337889 -0.694981 -0.122405
-9.21445e-05 -0.161808 0.185592
0.304303 0.233261 0.18164
-0.00119329 0.00967539 -0.0420205
0 0 0
-0.0476866 -0.075411 0.0836902
-0.0463305 -0.236652 0.148831
0.0473768 0.000757045 -0.0148093
0.053532 -0.0129233 0.0135139
0 0 0
-0.0235507 0.00244849 0.0410773
0 0 0
-0.0548043 0.237959 -0.217427
0 0 0
0 0 0
0 0 0
0.0016895 -0.227619 5.13953e-05
0.47198 0.0331757 -0.118453
0.0335264 0.0148747 0.0228801
0.684836 -0.406221 0.115926
0.50131 -0.0222947 0.168058
0.0923418 0.0256172 -0.0673389
-0.0010515 -0.0612752 -0.0545856
-0.0624798 -0.0484217 -0.273512
-0.0907728 0.122279 0.155699
0.00127375 0.00783488 -0.0450549
0 0 0
-0.0665701 0.168661 -0.0303112
-0.0240146 0.0459271 0.0477848
0.00407899 0.130327 0.0165846
0.0835821 0.0501797 0.103853
0.0348476 0.0136685 0.0326469
0.226169 -0.0318726 0.406507
-0.0574943 -0.122 -0.0269245
0 0 0
0 0 0
0.121825 0.005331 0.00706412
0.342818 -0.18803 0.148902
0.362315 0.172588 0.0401553
0.344397 0.0404284 -0.061888
0 0 0
0 0 0
-0.192206 -0.0697715 -0.123669
0 0 0
0.302672 0.601146 -0.142221
0 0 0
0.354118 0.094489 0.0816098
0.0121036 0.0567038 -0.00495697
0 0 0
-0.0121395 0.0035258 0.0177536
0.173303 -0.118815 -0.100486
0.123021 0.165505 0.158483
0 0 0
-0.0765805 0.032584 -0.195061
-0.123741 -0.205058 -0.0936559
0.11111 0.217104 0.380605
-0.0967066 0.123 0.351923
0 0 0
0.0050819 0.195592 0.00553174
-0.0260296 -0.0931273 0.406704
-0.0823526 0.100089 0.0809378
0.0875187 0.2851 -0.280249
0.0721625 0.0308501 0.00552725
0.517378 -0.266569 -0.0728371
0.0234922 -0.118664 -0.00543526
0 0 0
-0.0648625 0.0963457 0.115185
-0.0400297 0.025463 0.0412671
0.0213092 0.211929 0.0566107
0 0 0
-0.046467 -0.00792282 -0.012962
-0.0616254 0.144031 -0.40417
0.0441452 -0.0791269 0.0301919
0.261939 0.150127 0.0184071
0 0 0
0.177765 -0.0577797 0.032394
0.202819 0.219861 -0.00750029
0.0834455 -0.127846 0.0465676
0.232587 0.0692576 0.121943
0 0 0
-0.00121964 0.024055 -0.0252398
0.0226724 -0.168758 0.043109
0 0 0
0 0 0
0.0458411 -0.0592219 -0.163528
-0.047536 -0.193481 0.0788618
-0.0963225 -0.0386394 -0.0936156
0.0364656 0.0680176 -0.165513
-0.0817795 0.238497 -0.203206
0.192132 0.0309015 -0.116651
0.119085 -0.247688 0.139944
-0.010589 -0.0826712 -0.0451516
-0.0448582 0.0499909 0.119572
0 0 0
-0.101628 -0.193021 0.334323
0 0 0
0.0862034 -0.170314 0.102109
0.00393114 -0.172844 0.0477092
0 0 0
0 0 0
0.00340327 0.00497376 -0.0137881
-0.023318 0.0456876 -0.0317876
-0.149244 0.0942961 0.316953
0 0 0
-0.386825 -0.532401 0.279948
-0.0537495 0.135449 -0.0725749
-0.019943 0.000231205 0.0388239
0.0180964 -0.182124 -0.329218
-0.0279174 -0.120941 -0.12161
-0.0179198 0.0245337 0.0216212
0 0 0
-0.0280956 0.223359 0.181045
0.114538 -0.190799 0.191667
-0.0219117 0.103123 -0.514771
0 0 0
0 0 0
0.0184806 -0.132716 0.420053
-0.0134338 0.0205961 -0.0254922
0 0 0
-0.143767 -0.155682 -0.333657
-0.0801867 0.0707082 -0.0114362
-0.050378 0.300757 -0.00266266
0 0 0
0.0859191 -0.191153 0.0101653
0.192397 -0.106905 -0.238242
0 0 0
-0.132431 0.0756924 0.0366841
-0.0232337 0.0270035 0.244312
-0.19556 -0.0472831 0.267226
-0.134592 -0.141619 -0.00187268
-0.257391 0.157385 0.0794851
-0.096933 -0.154275 -0.184996
-0.142497 0.21408 -0.179898
-0.0824046 -0.125266 -0.082339
0 0 0
-0.0352922 0.0202103 0.038334
0.327286 0.190933 -0.00404943
-0.198032 -0.0315967 0.00578799
-0.0956538 0.161348 0.213664
0.0141323 0.0125912 0.00217913
-0.0111023 -0.0583281 0.0778613
0.0465285 0.0135869 -0.259139
0.0626047 -0.00142195 -0.0593062
0.0721172 -0.188207 0.118995
-0.0785515 -0.120127 0.140408
-0.112947 -0.274804 0.127821
-0.089002 -0.269093 0.253581
-0.0940635 0.106007 -0.12517
0.00183236 0.124428 -0.327636
-0.0701667 0.0521402 -0.0877174
-0.0502135 -0.0630483 -0.332828
0 0 0
-0.000677842 0.198249 -0.27871
0.223136 -0.0657248 0.301933
0.0220634 -0.124789 0.000809609
0 0 0
0 0 0
-0.0308731 0.0781618 -0.0351636
0.151357 0.0395448 0.0178904
0.142797 -0.17081 0.222075
-0.115997 -0.0764249 0.104208
0.00913756 -0.00785549 -0.0128721
-0.168617 -0.072725 -0.22434
0.00142845 -0.00136319 -0.246868
-0.177421 0.129898 0.47422
7.2227e-05 0.227808 0.0402159
0.0264525 -0.545276 -0.144988
0 0 0
0.233159 0.0215153 0.481944
-0.0881934 -0.0267338 0.0215054
0 0 0
0.0475312 0.00593703 0.0947796
0.25775 -0.247614 -0.0148118
-0.115164 -0.0320723 -0.0964634
0.184806 -0.299597 -0.161671
0.0247036 0.015469 -0.020875
0 0 0
0 0 0
-0.413078 -0.373943 0.0347394
-0.19005 0.0725265 -0.240634
-0.433727 -0.161587 0.527152
-0.210234 -0.100078 0.194467
0.291394 -0.152483 0.00238074
0.461409 -0.0363517 -0.153274
0.175085 -0.0852112 0.0617762
0.357073 -0.286697 -0.253121
0.447746 0.192364 -0.0794526
0.186998 0.0287309 -0.312155
0.173288 0.0164026 -0.0442626
0.191873 0.0350498 0.0740302
0 0 0
0 0 0
0 0 0
0 0 0
0 0 0
0 0 0
0 0 0
0 0 0
0 0 0
0 0 0
0 0 0
0 0 0
0 0 0
0 0 0
0 0 0
0 0 0
0 0 0
0 0 0
0 0 0
0 0 0
0 0 0
0 0 0
0 0 0
0 0 0
0 0 0
0 0 0
0 0 0
0 0 0
0 0 0
0 0 0
0 0 0
0 0 0
0 0 0
0 0 0
0 0 0
0 0 0
0 0 0
0 0 0
0 0 0
0 0 0
0 0 0
0 0 0
0 0 0
0 0 0
0 0 0
0 0 0
0 0 0
0 0 0
0 0 0
0 0 0
0 0 0
0 0 0
0 0 0
0 0 0
0 0 0
0 0 0
0 0 0
0 0 0
0 0 0
0 0 0
0 0 0
0 0 0
0 0 0
0 0 0
-0.093883 -0.241887 -0.118823
-0.0575019 -0.00988185 0.0846527
-0.00408675 0.109142 0.0144988
-0.197907 0.00870311 0.140541
0.0761092 0.0351063 -0.0499018
0 0 0
0.11929 0.162234 0.0212409
0.0789901 0.253639 0.0162272
0.0659176 -0.102406 -0.00929746
-0.0313055 -0.00288827 -0.0232678
0 0 0
0.110454 0.0103015 -0.0979923
0.116233 0.0100374 -0.160068
-0.0276276 -0.00635283 0.00623568
-0.0662414 -0.05902 -0.242607
0.0538737 0.0422089 -0.0561614
0.0606167 0.00648535 0.110567
0.0715905 0.177065 -0.0922869
0 0 0
-0.156377 -0.0381486 0.347051
-0.108285 -0.0908392 -0.00864737
0 0 0
-0.0949644 0.0823251 -0.0356839
-0.00245796 -0.12983 -0.106681
-0.0144278 0.223977 -0.00138211
0.284815 0.0226074 0.0189293
-0.00578413 -0.00294354 -0.0179915
-0.0992929 0.10859 -0.0265945
0.257266 -0.0179521 -0.287728
0.00279015 0.0166142 -0.0384699
-0.0476967 0.0144823 0.16071
-0.0197244 0.0987452 0.00276687
0.0309586 -0.0630215 0.0687446
-0.0873853 0.0900147 -0.0720588
0 0 0
0.0807171 0.0540149 0.0444961
-0.0315396 0.0160725 -0.00517388
1.08585e-05 -0.00541063 0.00304731
0.00595242 0.0210287 0.0464651
-0.0616804 0.288238 -0.130973
-0.0287312 -0.0766727 0.0255437
0 0 0
0 0 0
0.0478222 0.0332378 -0.00390198
0.00844184 -2.85717e-05 0.0378568
0.0260531 0.000226099 0.024157
0.0422845 -0.000108901 0.0424597
0 0 0
-0.0341272 0.000510613 0.0239048
-0.0220127 -0.0781384 -0.0383733
0 0 0
0.0351602 -0.00452927 -0.331661
-0.051992 0.0412264 0.0166806
0 0 0
0.0411615 0.0148446 -0.085022
0.0100374 0.0731149 0.215494
0.0852201 -0.110662 -0.197384
-0.327542 0.0357172 0.00541172
0 0 0
0.0664124 -0.0583818 0.00548951
-0.199577 0.0336813 0.304497
0 0 0
0.0613808 0.0205063 -0.142034
-0.0532576 0.0602342 0.203294
-0.0245579 -0.0730733 0.0225881
0 0 0
0.190324 0.113176 -0.139185
0.0709684 0.0773387 0.182877
-0.0950497 -0.278459 -0.277119
-0.020727 -0.00637368 0.0106787
-0.302946 -0.235392 0.207916
-0.132033 -0.220298 -0.147015
-0.0419373 0.0417824 -0.0146239
-0.27462 -0.145604 -0.119269
0.0162939 0.279363 0.0131475
0 0 0
0.00417768 -0.0050644 0.137849
0 0 0
0.0145361 0.158198 0.0523034
-0.084113 0.079818 0.187626
0.00172681 -0.0015555 0.0630419
0.375919 0.0384048 -0.132074
0.267645 -0.134865 0.11898
-0.0038679 -0.0404902 0.0990804
0.0571301 -0.198815 -0.043623
0 0 0
0.203843 0.0885121 0.0180923
-0.0293505 0.190729 -0.0413393
-0.0120877 0.0360476 -0.340672
0.0376663 0.206866 -0.104007
0 0 0
-0.0250872 0.374221 -0.134853
0.178242 -0.172181 -0.283737
0.00810565 0.0320404 0.192756
0.207197 -0.473676 -0.396776
0.129898 0.0815757 -0.40773
0 0 0
-0.175299 0.191374 0.360857
0 0 0
-0.066302 -0.0947158 0.0017302
0 0 0
-0.138695 -0.208312 0.154741
0 0 0
0.116833 -0.548447 -0.252242
0.0682196 -0.0741106 -0.174835
0.077465 -0.129651 0.0811803
-0.0599105 0.221045 0.0985345
0.0127249 0.0198078 0.11599
0.102681 0.124198 0.192627
-0.0240875 -0.478041 -0.26827
0.00174654 -0.107125 -0.165201
0.556555 -0.190157 -0.392206
0 0 0
0.137074 -0.00922022 -0.000599384
0 0 0
0.146284 0.123405 -0.384635
0 0 0
0.00166525 -0.120231 -0.241121
0.0474764 0.171288 0.0653464
0 0 0
-0.16742 0.0667209 0.0187026
-0.184242 0.0866863 0.0344303
0.0427765 0.175964 -0.00320067
-0.0708164 -0.0358965 -0.0648147
0 0 0
0.121578 -0.364147 -0.0206353
0.0107894 -0.0604252 -0.000806988
-0.294338 -0.322432 -0.130594
0 0 0
-0.0363415 -0.0535893 -0.0428275
-0.0297009 -0.141457 -0.110872
0.186154 -0.232377 -0.323048
0.0963419 0.00491979 -0.00906692
0 0 0
0 0 0
0 0 0
0 0 0
0 0 0
0.069193 -0.239486 0.290698
0.0386947 -0.0498226 -0.0405633
0 0 0
-0.00175875 0.149366 -0.00346404
-0.0379353 0.00088839 -0.28261
0.0843699 0.0666162 0.109821
0 0 0
0.129746 0.233944 0.177142
0.0266684 -0.0890963 0.00240936
0 0 0
0.0375085 0.21214 -0.110669
0.0470951 0.168663 -0.00498553
0 0 0
-0.0198124 0.0225593 0.00962774
-0.256416 0.150962 -0.274378
0 0 0
0.048806 0.0648471 -0.0279407
-0.00954307 0.033192 0.024133
0.00696581 0.00860049 0.00628829
0 0 0
0 0 0
0.0432432 -0.249757 0.188033
0 0 0
0 0 0
0.0199166 -0.27356 -0.270122
0 0 0
0.229242 0.203104 0.321035
0.446912 0.0286034 0.133618
0.16071 0.249046 -0.00268149
0 0 0
0.149329 -0.17542 0.0319875
0.34681 0.0171489 -0.0620716
-0.222319 0.0985358 -0.0104415
0 0 0
0.047828 0.0192569 -0.048909
0.199618 0.0821979 0.112358
-0.0433399 -0.137547 0.104681
-0.00791032 -0.103326 -0.00189467
-0.0531378 0.0791129 -0.0105729
-0.0172577 0.0512656 0.0982363
-0.0444913 0.371412 0.143912
-0.0832812 0.142247 0.105268
0.128727 0.00299224 -0.204505
0.0637025 0.0120719 -0.268663
0.0872113 -0.0122795 0.00420336
0.228987 0.0675108 0.0525705