<?xml version="1.0"?>
<VTKFile type="RectilinearGrid">
<RectilinearGrid WholeExtent="0 32 0 32 0 32" Origin="0 0 0" Spacing="1 1 1">
<Piece Extent="0 32 0 32 0 32">
<PointData>
</PointData>
<Coordinates>
<DataArray type="Float32" format="ascii">
0 0.524874 1.04975 1.57462 2.0995 2.62437 3.14924 3.67412 4.19899 4.72386 5.24874 5.77361 6.29849 6.82336 7.34823 7.87311 8.39798 8.92285 9.44773 9.9726 10.4975 11.0224 11.5472 12.0721 12.597 13.1218 13.6467 14.1716 14.6965 15.2213 15.7462 16.2711 16.796 
</DataArray>
<DataArray type="Float32" format="ascii">
-5.03879 -3.62163 -2.20447 -0.787311 0.629849 2.04701 3.46417 4.88133 6.29849 7.71565 9.1328 10.55 11.9671 13.3843 14.8014 16.2186 17.6358 19.0529 20.4701 21.8872 23.3044 24.7216 26.1387 27.5559 28.973 30.3902 31.8074 33.2245 34.6417 36.0588 37.476 38.8931 40.3103 
</DataArray>
<DataArray type="Float32" format="ascii">
0 0.524874 1.04975 1.57462 2.0995 2.62437 3.14924 3.67412 4.19899 4.72386 5.24874 5.77361 6.29849 6.82336 7.34823 7.87311 8.39798 8.92285 9.44773 9.9726 10.4975 11.0224 11.5472 12.0721 12.597 13.1218 13.6467 14.1716 14.6965 15.2213 15.7462 16.2711 16.796 
</DataArray>
</Coordinates>
<CellData>
<DataArray type="Float32" Name="Vector" NumberOfComponents="3" format="ascii">
0 0 0
0 0 0
0 0 0
0 0 0
0 0 0
0 0 0
0 0 0
0 0 0
0 0 0
0 0 0
0 0 0
0 0 0
0 0 0
0 0 0
0 0 0
0 0 0
0 0 0
0 0 0
0 0 0
0 0 0
0 0 0
0 0 0
0 0 0
0 0 0
0 0 0
0 0 0
0 0 0
0 0 0
0 0 0
0 0 0
0 0 0
0 0 0
0 0 0
0 0 0
0 0 0
0 0 0
0 0 0
0 0 0
0 0 0
0 0 0
0 0 0
0 0 0
0 0 0
0 0 0
0 0 0
0 0 0
0 0 0
0 0 0
0 0 0
0 0 0
0 0 0
0 0 0
0 0 0
0 0 0
0 0 0
0 0 0
0 0 0
0 0 0
0 0 0
0 0 0
0 0 0
0 0 0
0 0 0
0 0 0
0.151167 0.0643976 -0.0640596
0.113277 0.0630687 0.0171724
0 0 0
0.13663 0.0552557 -0.00136526
0.0895612 -0.0930671 -0.000943785
0 0 0
0.122013 -0.1286 0.0668373
-0.0349902 -0.0283773 -0.0409718
0.0424977 0.00119506 0.0138875
-0.299873 -0.0655986 -0.00486658
0 0 0
-0.239096 0.240028 -0.0739102
0.178315 -0.213834 -0.0574987
0 0 0
-0.0345429 -0.153885 -0.0845576
-0.070384 0.0547479 -0.0203404
-0.000174223 -0.0960673 0.0665899
-0.0631873 0.00973363 0.0383469
0 0 0
0.131141 0.147274 -0.073526
0.0178234 0.0687892 0.0127662
0 0 0
0.0989728 0.12894 0.00215532
-0.0281886 -0.0221066 -0.142133
-0.154079 0.00126446 0.0989827
0.0862147 0.0776861 0.0304463
0 0 0
0.235255 0.2587 0.0293002
0.208048 0.0608813 0.000431339
0 0 0
-0.139074 0.0530912 -0.00945443
0.0780721 -0.0313627 0.0637838
0.0490943 -0.35026 -0.0350321
-0.00217236 0.00837208 -0.0187099
0 0 0
0.0438633 0.251561 -0.00365788
-0.260105 0.00347668 -0.0118978
-0.0472546 -0.15424 -0.000483631
0.429285 -0.225609 -0.00705222
-0.00271342 -0.0242897 0.0274178
0 0 0
-0.0490542 -0.135454 -0.0368959
0 0 0
0.115863 -0.00648773 0.0659519
0.115978 -0.277513 0.00944018
0 0 0
-0.00710162 -0.0515634 0.0661788
0.0745374 -0.156268 0.00691382
0.00609486 -0.212637 -0.0465369
0.0135337 -0.0224615 -0.0565135
0 0 0
0.141085 0.320058 0.0120373
0.00429008 0.00190778 -0.0118273
0 0 0
0.120525 0.125109 -0.0132305
-0.0396302 -0.00214862 0.0229429
0 0 0
0.0953417 -0.0905814 -0.00222355
0 0 0
0.000587032 -0.0115924 -0.0274762
-0.0435846 0.314129 0.00402604
0 0 0
-0.0173336 0.00272608 0.010328
0.0298467 0.0113843 0.0377253
0 0 0
-0.19657 -0.0696983 -0.155415
-0.490595 0.0372837 -0.435671
-0.0955164 -0.0869632 -0.0135223
0 0 0
-0.111583 -0.085479 0.369207
-0.0371038 -0.0421119 0.166688
0 0 0
0.309104 0.0188174 -0.00133866
-0.033252 -0.00479267 -0.0181563
-0.166834 0.0328497 -0.239487
0.0512689 -0.120202 0.00836457
-0.34367 0.000545151 -0.213033
-0.427559 -0.223022 -0.102414
-0.115724 0.115956 -0.00354822
-0.0606697 -0.0654776 0.0754929
0.124116 -0.0557455 -0.0636158
0.00888678 -0.0145347 -0.11711
0 0 0
-0.133993 -0.00535848 0.0356627
-0.0065739 0.0018081 0.114694
-0.213577 -0.0570418 -0.142403
-0.11231 -0.100413 -0.309099
-0.14566 -0.280273 -0.0765635
-0.316439 -0.304182 0.0434095
0.0373601 -0.305485 0.0614213
0.0420535 -0.0487567 -0.00301879
-0.309968 -0.391591 -0.074651
0 0 0
0 0 0
0.00758066 0.0173024 0.00266854
-0.0106064 -0.00675165 0.0301962
0 0 0
0 0 0
0.0466996 -0.0152322 0.0283598
0.152188 0.0577361 0.209259
-0.0409768 0.104697 0.0110627
-0.0036368 0.00120374 -0.0122436
0.144704 -0.0125704 -0.0589585
0.0635475 0.1209 0.265081
-0.304854 0.0655819 -0.174804
-0.182395 0.0267504 0.0958225
-0.178367 -0.0534468 0.163335
-0.128454 0.101577 -0.129868
0 0 0
0 0 0
0 0 0
0.0425875 0.0195431 -0.00166376
-0.116165 -0.0133437 0.0776948
0.0139543 -0.0402336 0.346178
0.109559 0.000858879 0.180913
0.0339532 -0.246239 0.463212
0 0 0
0 0 0
0 0 0
-0.231388 0.0408906 -0.182291
-0.0514765 0.0959932 0.0828496
-0.01494 -0.298536 0.107643
-0.0160853 -0.0223946 -0.224644
-0.0579019 -0.00949755 -0.00161486
-0.0518656 0.00775874 -0.00133613
-0.0864272 -0.134353 0.0135701
-0.319012 0.206105 0.181084
-0.514408 0.228963 -0.53376
-0.15126 -0.285607 0.0276257
-0.104922 0.101861 0.084857
-0.299684 0.116297 -0.205759
0.0178266 0.297366 0.0950318
-0.316577 0.266636 -0.434386
0 0 0
0 0 0
0 0 0
-0.0349769 0.0102991 0.0121469
-0.0890645 0.485416 -0.141627
-0.000883976 -0.00764269 0.0226784
0.274788 0.406353 0.242202
-0.0724467 -0.0642396 0.323182
0 0 0
0.146007 -0.207139 0.557512
0.107839 -0.101357 -0.232097
-0.0445059 -0.0354907 0.15156
-0.169784 0.0306153 -0.0497219
0 0 0
-0.13697 -0.20753 0.527621
-0.259703 -0.171557 0.153185
-0.398022 0.331084 0.0526167
0 0 0
-0.018521 0.702825 0.201957
0.000158408 0.0696752 -0.157827
0.000157349 -0.122988 -0.0568137
0.193253 0.180466 -0.193925
0.0667142 0.134039 0.156943
0.112356 0.0319914 0.386745
-0.152117 0.186963 0.00211195
0.0300575 0.139178 -0.00892545
0 0 0
0.247073 -0.0732806 0.149136
-0.187319 0.414533 -0.395378
-0.103286 0.0514602 -0.123712
0.145373 -0.00148031 -0.0527831
0.068619 0.107374 -0.00602841
-0.14249 0.157834 -0.177585
-0.265968 0.0827518 -0.328981
-0.132842 0.307585 -0.0239109
-0.113492 0.292166 -0.312806
0 0 0
0.0489065 0.146296 0.107084
0 0 0
0.198256 0.390065 0.274884
0 0 0
0.00632935 0.00198953 -0.0246116
0 0 0
0.180991 -0.528356 0.130129
0 0 0
0.252174 0.0173201 0.124184
0 0 0
-0.110033 0.21947 0.300849
0 0 0
-0.120562 0.0511705 -0.085574
0 0 0
0 0 0
0.0383802 -0.133607 0.0686143
0 0 0
-0.0649215 0.853993 -0.0335382
0 0 0
-0.214384 -0.504322 0.17955
-0.16389 0.0732609 0.421131
-0.130216 -0.079174 0.104671
0.0656034 0.0452989 -0.0367366
-0.101463 0.174442 -0.077927
-0.0435454 -0.0386395 0.0695694
0.135981 -0.0170704 0.215995
0.0874024 -0.0134594 0.0896367
0 0 0
-0.104564 0.307549 -0.0926453
0 0 0
0.0157313 0.293321 0.0340379
0.0218529 0.0493714 -0.0287457
-0.0300064 -0.026215 -0.0242735
-0.0623703 0.0294495 0.132582
0 0 0
0.0485786 0.173242 -0.0249798
0.110233 8.86579e-05 -0.327123
0 0 0
0.0442611 -0.0519006 0.0755777
0.27721 0.218391 -0.200483
0 0 0
-0.0380048 -0.235205 -0.0127676
0.416732 -0.0710551 -0.397554
0.131744 0.012047 -0.00713417
0.385075 -0.211604 -0.088479
0.00351459 0.171725 -0.231583
0.0959835 0.172767 -0.171732
0 0 0
-0.000831039 0.360364 -0.0612152
0.0099013 0.261211 -0.0888123
-0.0157219 -0.0302918 0.0675628
0.234377 -0.220893 0.00630746
0.0679809 0.0445432 0.124156
0.228983 0.219503 -0.233891
0 0 0
-0.0977367 0.30485 0.156493
-0.272047 -0.237076 -0.144051
0 0 0
-0.0331517 0.749476 -0.4638
0 0 0
0.116184 0.121357 0.211854
0 0 0
0.149761 0.418835 0.0279766
0 0 0
-0.166434 -0.0908122 0.06821
-0.122708 -0.195477 -0.0462127
-0.00655333 0.0163046 0.0583441
-0.00499274 -0.053961 4.92045e-05
0.250705 -0.37296 0.0919385
0.0406289 0.103371 -0.0560565
0.318219 0.107277 -0.137923
0.234465 -0.0432594 0.161084
0.226964 0.119331 -0.162054
0.186482 0.0103994 -0.0800429
-0.0013523 -0.102966 0.00605295
0 0 0
0.147291 0.132109 0.000815663
0 0 0
0.00360597 0.0721134 -0.453453
-0.00295064 0.141048 0.199586
-0.00510354 0.140195 -0.288842
0 0 0
0.0335583 0.0425602 -0.0456896
-0.143607 -0.0392954 0.0485111
-0.0474483 -0.0378058 -0.0575995
-0.173076 0.541974 0.00653506
0 0 0
0 0 0
0 0 0
-0.0308177 0.0685442 0.0370766
-0.218606 0.474314 0.186272
0.00384092 -0.188843 0.0627252
-0.146518 0.60781 -0.0798667
0.163853 0.211375 -0.0571927
0.427371 0.0727438 -0.441658
-0.01738 -0.0589134 0.0891585
-0.193403 -0.220311 -0.111783
0.0154835 0.110022 0.0439352
-0.0415319 -0.225544 0.0346267
-0.076568 -0.317067 0.142697
0 0 0
0.127169 -0.291538 -0.501457
-0.00953106 -0.000349894 0.0111223
0.0493561 0.056345 -0.000491354
0.0015696 -0.00444881 -0.0215232
0.164292 -0.0109959 -0.226857
0 0 0
0.28653 0.0806734 0.179645
0.0626887 -0.193056 -0.327682
0 0 0
0.206466 0.0452284 0.31849
0 0 0
0.219313 0.600311 0.393094
-0.0993664 0.193814 0.00109946
0 0 0
0.0594536 0.0409376 -0.00560791
0.140549 0.150052 -0.0932163
0 0 0
-0.236214 -0.0732267 -0.150551
0.2097 2.37946e-05 -0.240649
-0.169961 -0.112069 0.226655
0.0946703 0.0439621 0.133034
0 0 0
0.027967 0.120022 0.11824
0.118192 0.00150108 0.104789
0.133512 -0.155411 0.141669
-0.169684 -0.111593 -0.0698563
-0.0896229 0.00167606 -0.200186
0 0 0
-0.0406903 -0.173417 -0.0468989
-0.0353912 -0.14953 0.170732
0 0 0
0.288039 -0.0844859 -0.0929156
0 0 0
0.0189386 -0.194441 0.0602261
0.0286446 -0.0898954 0.192969
-0.121245 -0.0230983 0.0885858
0.00229623 -0.00357708 0.0097619
-0.131547 0.0872479 0.256137
-0.00422308 -0.0390503 -0.378542
0.207162 -0.480019 -0.182087
-0.000948999 -0.0504106 0.374205
-0.166648 -0.0259683 -0.0486795
0.135167 0.407521 -0.0116292
0.0499519 0.640134 0.244431
-0.100154 0.250594 -0.0464211
-0.203942 0.107164 -0.270684
-0.0826743 -0.181105 -0.100854
-0.310652 -0.325659 0.0849388
0.00308504 0.120078 -0.101098
0.291669 -0.034754 -0.0383371
-0.0834205 0.0737171 -0.0528848
0 0 0
-0.148301 0.041585 -0.0547887
-0.0238302 0.0672245 0.0540728
-0.141669 0.244978 -0.00286535
0.0881346 0.00206087 -0.0543138
0 0 0
-0.0375534 -0.185719 0.050289
0.096702 0.0700817 0.049097
0.0710946 -0.396351 0.252595
-0.0238059 0.0216636 -0.162552
-0.170342 -0.270458 0.253189
-0.0847111 -0.0201648 0.000895581
-0.0461726 0.0610816 -0.0820372
0 0 0
-0.218644 0.0625438 -0.110786
-0.0903467 -0.0151734 0.126103
-0.00732454 -0.00566176 -0.00467131
-0.0466683 -0.0366632 -0.0273286
0 0 0
0 0 0
-0.228328 -0.214547 0.000540308
-0.029865 0.0853708 -0.379366
0.0667342 0.000868334 -0.0849206
0 0 0
-0.0120823 0.097401 -0.0196059
0.181673 0.358374 0.0523824
-0.000380066 -0.0187183 0.0330383
0 0 0
-0.167108 0.29843 -0.0682441
0 0 0
0 0 0
0 0 0
0.038133 0.0800648 -0.00406137
0 0 0
0.37451 0.423441 -0.263261
0 0 0
0.253547 0.138118 0.339501
-0.0958364 0.224393 0.0337031
0.130143 -0.0569558 0.166159
-0.055917 -0.124854 0.0236888
-0.0785093 -0.0346271 0.0375934
-0.096236 0.252262 0.0310769
-0.0928391 -0.238867 -0.277597
-0.0499315 0.251226 -0.172091
-0.26723 -0.133622 -0.197787
-0.0146667 -0.00776962 -0.0167782
-0.389148 -0.16819 0.0696266
-0.0250666 0.0935308 0.0469004
-0.180354 -0.191685 0.296241
-0.029802 0.0180053 0.54799
0.0686263 -0.13192 0.00535602
0.19173 -0.311601 -0.214769
0.0592483 -0.0310611 0.107171
0.178365 -0.26403 -0.313459
0.150986 0.167851 -0.0594193
0.00358834 -0.0267854 -0.000466142
0.0165139 0.0969524 -0.0792888
0.00662377 -0.1726 0.11855
0.00607188 -0.0331156 -0.0277065
0.129368 -0.370709 0.0343317
0.204527 0.0958684 0.0448218
0.278162 0.0472764 -0.0598392
0 0 0
-0.0802168 -0.150544 0.0729682
0 0 0
0 0 0
0.0852063 0.16153 0.0300476
-0.0014037 -0.00893654 -0.00548494
-0.225674 0.0234839 -0.235558
0.0829669 0.0161902 0.0962307
-0.0581622 -0.0461105 0.107241
0 0 0
-0.127882 -0.191243 0.0654463
0 0 0
0.00328708 0.0227652 0.000240673
0.00173396 0.0774475 -0.0525308
-0.154421 -0.0177706 -0.0409281
0.0199666 -0.147898 0.427426
0 0 0
-0.111677 0.0458157 -0.144597
0.0169557 0.0540984 0.000218921
0.251475 0.0103236 0.354398
0 0 0
0.205833 -0.20372 -0.00310415
0 0 0
0.00513982 -0.0011805 -0.00691399
0.0108674 0.000519177 -0.0449767
0.115282 0.331629 -0.273594
0 0 0
0 0 0
0.0156484 0.199446 -0.00417155
0.0643929 -0.0362326 -0.117716
0.0627514 0.0367258 -0.334549
0.19847 -0.147113 -0.0190777
0 0 0
-0.214261 -0.326861 0.208756
-0.00517281 -0.257997 -0.0755679
0 0 0
0.39095 0.115061 -0.289007
-0.127043 -0.0868406 -0.01229
-0.00475264 -0.00569449 -0.00327476
0.046651 0.0453201 0.0154144
0.0500602 0.441212 0.219319
0.413846 0.268495 0.198171
0.0486628 0.163756 -0.295375
0.040227 -0.00607868 -0.0024254
0 0 0
-0.0783812 0.040736 0.140831
2.53572e-05 -0.00596101 0.00675645
0.0935856 -0.0811487 0.0341714
-0.00248856 0.0455494 -0.000735486
-0.111791 -3.47424e-05 0.00717806
-0.21028 0.0565546 -0.00502197
0.0201205 -0.0612631 -0.0800338
-0.0309431 0.0299877 0.14564
0 0 0
0 0 0
0 0 0
-0.0573146 0.473642 -0.0692189
-0.0251705 -0.0120031 -0.0901523
-0.162891 0.282645 0.194919
-0.292498 -0.189641 -0.207431
-0.0771359 -0.0395675 -0.257691
0.0426394 -0.0475283 0.0603818
0 0 0
0.0521915 0.0317526 0.188522
0.000460749 -0.195588 0.176037
0.301089 -0.353103 -0.0921965
0.136007 0.0177567 0.0844005
0.120496 -0.0414422 -0.0968177
0 0 0
-0.233334 -0.408242 0.152599
0.00197015 -0.18378 -0.0166516
-0.121439 -0.106117 -0.097021
-0.000229195 -0.0240453 -0.0132145
-0.345503 0.240649 -0.0546397
-0.0656766 0.0709087 0.10627
-0.0865352 0.0531043 0.305037
0.0899814 -0.0373978 -0.118746
0.277194 0.216244 -0.200377
0.0197239 0.000836962 -0.137178
0.168665 -0.072025 -0.2075
0 0 0
0.274857 0.18036 0.283307
0.332329 0.0894257 -0.071654
0.00922076 -0.000860585 -0.0410243
0 0 0
-0.0419279 0.0445684 -0.122844
0 0 0
0.212996 0.709557 -0.0703599
-0.00034355 -0.0580402 0.0229432
0.0792086 -0.199999 -0.241794
0 0 0
0.0205901 0.0600542 0.0738553
0 0 0
0.141284 -0.028631 -0.190913
0 0 0
0.18616 -0.196155 -0.0813985
-0.176393 0.389069 -0.0540788
-0.100069 0.0195923 -0.0375693
0 0 0
-0.267503 -0.214687 0.219366
0 0 0
0.050233 -0.0745968 -0.0521148
0 0 0
0 0 0
-0.0962689 0.0642372 -0.00271703
0 0 0
-0.00488926 -0.0709663 0.157112
0 0 0
0 0 0
0.0278475 0.0268256 -0.226811
-0.013202 0.407499 -0.156154
0.0435796 0.00419378 -0.0936143
3.67461e-05 0.159322 -0.514218
0.0019295 0.000840466 0.00248755
0.0460122 0.0713847 0.0149466
0.162652 -0.0722107 -0.201159
0.00268205 0.0683131 0.123933
-0.149896 0.00287575 0.0172332
-0.0166885 0.146934 0.0438459
0 0 0
-0.13363 0.0864325 -0.0291815
-0.207124 -0.00660857 0.321466
-0.128961 0.0111753 0.0112669
-0.0736307 0.202803 0.341543
0.108961 -0.0895754 0.123795
0.0967112 0.299449 0.311438
-0.00190826 -0.118416 -0.0177432
-0.19679 0.142177 -0.183897
0 0 0
0.235878 -0.124938 0.0454999
0.0839502 0.123613 -0.050236
0 0 0
0 0 0
0.0848661 -0.0963259 0.211019
0 0 0
-0.000369498 -0.00243393 0.0815802
-0.11278 0.166079 -0.0961679
-0.0107535 0.119805 -0.217402
0 0 0
0 0 0
-0.0880255 0.131277 -0.118052
-0.187264 0.459713 -0.176968
0 0 0
-0.0601247 0.146022 -0.0979156
0 0 0
0 0 0
0.369721 0.23718 -0.114649
0 0 0
0 0 0
-0.0795491 -0.0767505 0.0041705
0 0 0
-0.17816 -0.0177267 0.0731771
0.0076435 -0.0150232 -0.00799541
-0.00906919 -0.45368 0.441313
0 0 0
-0.0265115 0.00584914 -0.00101067
0 0 0
-0.0205329 0.23019 0.222241
0 0 0
-0.226754 0.480219 0.212548
-0.00435272 -0.00911384 -0.000240422
0.248825 0.106757 -0.49202
0.241509 0.180434 -0.0655691
0 0 0
-0.050375 -0.0425452 -0.203158
-0.0506711 0.102638 0.0599395
-0.384346 0.112626 -0.112496
-0.0871219 0.0470667 -0.0353928
0 0 0
0 0 0
0.0357954 0.055004 0.016377
0.0357509 0.0955395 0.175119
0.0278517 -0.0439672 -0.175788
0 0 0
0 0 0
0.238791 0.208254 -0.308035
0.0868934 0.0464735 -0.00123878
-0.136072 -0.0168059 -0.101461
-0.312798 0.158599 0.102923
-0.159813 -0.150297 -0.133831
-0.0677445 0.0162899 0.01847
0.0211434 -0.0128155 -0.00131472
-0.359833 0.000797924 -0.230293
-0.0339329 0.0808709 -0.089743
0.040596 -0.127923 -0.160197
0.133318 0.0854502 0.102959
0 0 0
-0.266901 0.368803 0.306358
0 0 0
0.055399 0.104334 -0.155835
0.218755 0.0924407 -0.265281
0 0 0
-0.12759 -0.0185247 -0.100591
-0.132325 -0.0504023 0.152471
-0.152184 0.0781648 0.157395
0.0617204 -0.142715 0.331431
0 0 0
-0.153698 -0.13113 -0.123823
0 0 0
0 0 0
0 0 0
-0.0715919 -0.041281 0.0765009
0.549383 0.289438 0.401902
0.231068 0.10597 -0.108985
0.284554 0.154805 0.527561
0 0 0
0.100836 -0.0944746 -0.00168721
0 0 0
-0.0390141 0.175665 0.0701099
-0.0656509 0.364985 0.00270393
0 0 0
0.0487953 -0.27056 -0.0461898
-0.000318073 -0.0100113 -0.00375631
0.0154087 -0.0993779 0.17422
-0.049275 -0.0400031 0.0473793
-0.00251967 0.0280048 0.0189086
-0.13495 0.273992 -0.103647
0 0 0
-0.224189 0.595424 0.0849354
0 0 0
-0.030957 0.00853822 0.268942
0 0 0
0.0714579 0.306404 0.00762219
-0.115367 0.35403 -0.077281
0.0940022 0.071286 -0.236646
0.107976 0.15609 0.00118443
0 0 0
0.0492061 0.179603 0.286379
-0.0806808 -0.0436586 -0.0928041
-0.0133088 0.0247326 -0.101031
-0.0639085 -0.10184 -0.41135
-0.0447144 -0.0523428 -0.244786
-0.129569 0.229382 0.0021289
0 0 0
0.00530239 0.294786 -0.158349
0 0 0
-0.0179246 0.0695632 -0.340956
0 0 0
-0.00543735 0.000992201 -0.000113983
0 0 0
0.0190539 0.0688723 0.0176156
0 0 0
0.00864831 0.133816 0.0761537
0.0331854 -0.00742814 -0.0537543
0.0791261 -0.161101 0.100599
-0.0229092 -0.122221 -0.151014
0 0 0
-0.0122017 0.0672661 -0.0798061
-0.0780048 0.0614037 -0.000247795
0 0 0
-0.0324308 0.517201 -0.137254
0.0834034 0.0192796 0.0285853
0.0909017 -0.184402 -0.0964772
-0.0222889 0.159186 0.179424
-0.124224 0.110534 -0.085095
0 0 0
0.0547807 0.0352004 -0.00825378
0.0524723 0.549275 0.190369
-0.0711947 0.04966 0.0439635
-0.0133151 0.00138696 0.0616207
0 0 0
-0.145854 -0.13783 -0.0772712
0.00565346 0.0461029 -0.136752
0.0856178 -0.0931603 0.0375909
0 0 0
0 0 0
-0.0651882 0.219462 -0.0621199
0 0 0
0.217377 -0.063241 -0.319411
0 0 0
0.101684 -0.0665693 0.0301915
0.0649823 -0.119683 0.214542
0.000372083 0.000856509 -0.00214798
0.0285914 -0.349431 -0.177047
0.0267407 -0.103812 0.166686
0 0 0
-0.124295 -0.0761042 0.0736449
0 0 0
-0.139887 0.28398 0.21109
-0.296056 0.00814533 0.0483823
0.153996 -0.0297913 -0.440705
0.09727 0.142849 0.059375
0 0 0
0 0 0
0.329975 -0.343025 -0.20347
0.136745 0.02339 0.237656
0.083567 0.0983556 0.126629
0.23538 0.0224838 -0.0492626
-0.180809 0.377225 0.397163
-0.106788 0.185867 0.0804486
0.0202793 -0.104448 -0.24739
0.0124618 -0.228348 -0.120988
0 0 0
0.0513621 0.0694672 -0.312507
-0.00179423 0.0157163 0.000774576
0.0231323 -0.193479 0.211904
0.0121109 0.272968 -0.0736764
-0.0201327 -0.0917089 0.0670919
-0.0369045 0.129552 -0.026371
-0.00458414 0.0209883 0.0116157
0 0 0
-0.0299645 0.0684623 -0.0483375
0.321076 -0.285197 0.263757
0 0 0
0.00795738 -0.0625307 -0.0299881
0.00232561 -0.0744156 -0.0540519
0.152056 0.223671 -0.292437
0 0 0
-0.0359917 -0.119541 -0.246944
-0.100818 0.0685053 -0.108624
0.123503 0.0639595 -0.179291
0.128534 -0.050776 0.136038
0.036502 -0.0374487 0.075292
0.0789417 0.0377188 0.0310981
0 0 0
-0.0468705 -0.0742598 -0.00904256
-0.088872 0.121264 -0.227355
-0.400942 0.37352 -0.239407
0.0357802 -0.0364921 0.0658637
-0.0151802 0.0318132 0.0351257
-0.0510291 -0.0584492 -0.0607045
0 0 0
0.0720356 -0.109224 0.0283052
0 0 0
0.00779786 0.00260036 -0.00700508
0.346284 0.112699 0.00754052
0 0 0
0.256543 -0.148623 -0.0949174
0 0 0
0 0 0
-0.0121811 0.0301139 -0.00772896
0 0 0
-0.0782911 0.14547 0.508981
0 0 0
-0.0444474 -0.00616991 0.0507482
-0.0020594 -0.031224 -0.015987
0.0355089 -0.0788539 -0.0550397
0 0 0
0 0 0
-0.410488 0.0579477 -0.126394
-0.00746444 0.000250483 -0.000663009
0.0718649 -0.115572 0.036253
0.0353766 -0.0777053 -0.0524007
0.0123102 0.0723207 -0.189847
0.651663 0.0446471 -0.320738
0.13711 0.23361 -0.161539
0 0 0
0.146151 0.0939239 0.0671554
0 0 0
-0.142838 0.103983 -0.255853
0.0114997 0.174933 -0.172236
-0.0265614 -0.0921311 -0.2431
0 0 0
-0.000609454 -0.0308533 0.117827
0 0 0
0.263369 -0.111412 0.148493
0.222253 0.0698445 -0.251547
0.0125644 0.0055048 -0.0434685
0.0479023 -0.0270677 -0.0414336
0.128193 -0.0653031 0.0381997
-0.0088611 -0.130829 -0.103772
0.143598 0.0936933 0.032196
-0.257836 0.233493 -0.0958719
0 0 0
-0.129479 -0.112427 0.145972
0.046175 0.095091 0.122637
-0.0104169 0.000606484 -0.0469477
0.0165713 -0.0144034 0.0323667
0.129204 -0.270164 -0.0949174
-0.279904 -0.0810528 -0.51339
-0.221335 0.120049 0.281704
0 0 0
0.00828591 -0.204317 -0.00217073
0.00251047 0.0444565 0.241146
-0.0333866 -0.14475 -0.178586
0 0 0
0 0 0
0.273551 0.089677 -0.113713
0.00399668 0.0614205 -0.146813
0.0400234 -0.00227344 0.00413877
-0.000817951 -0.020505 0.0370017
0.2466 0.0598935 -0.0917321
-0.0147501 -0.0353073 0.028638
0 0 0
0.219003 -0.416524 0.570897
-0.0143839 -0.00520729 -0.110973
0.0891571 -0.0194743 -0.176357
0.122591 -0.0613438 0.0496745
0.282085 0.429381 0.137152
0.08264 -0.164555 0.223451
0.0766794 -0.0520401 -0.0341987
0.0921859 -0.092948 0.0887381
-0.0100092 0.231105 -0.153887
0 0 0
0.449716 0.248095 -0.0261319
0.271536 -0.0836217 -0.0556798
0.0150044 0.581638 0.371865
0.0702239 0.00632503 0.0759708
0.05355 0.0582301 -0.314836
-0.00475664 -0.0421836 0.00506595
0.157337 -0.0486941 0.0982522
0 0 0
0.0373173 -0.198508 0.00246438
0 0 0
0 0 0
0.317999 -0.162849 -0.0671735
0.0833456 -0.0303021 0.107681
0.077588 0.0349709 0.101159
0 0 0
0.226377 0.804256 0.0421492
0 0 0
0.138822 0.02909 -0.0323453
0.150837 -0.0661219 0.152399
0.242063 0.0859895 0.218478
0.117789 -0.0992902 0.0760582
0.000984681 -0.0137789 -0.0470851
0 0 0
-0.266135 -0.311523 0.128634
0 0 0
0.166642 0.120315 -0.0514212
0.193862 0.161896 0.0978838
0 0 0
0.130244 0.0586432 0.040411
0.176938 -0.0700583 -0.188578
0.119469 0.0426032 -0.00122976
-0.170176 -0.0380906 -0.0173274
-0.0461652 -0.0955036 -0.0236443
-0.000245351 0.0741772 -0.0679565
-0.0467265 0.310927 0.0426853
-0.172896 0.166599 -0.104957
-0.039096 0.0297094 0.000353143
-0.0514245 0.134926 0.0839724
0.0708253 -0.0944625 -0.515671
-0.208534 0.0436656 0.499545
0.0535077 -0.0285407 0.49478
0.320387 0.266721 -0.0304623
0.0161946 0.028065 0.114783
0.205031 0.0355531 0.0651559
-0.0159043 -0.0460836 0.00730338
-0.0872474 0.167667 0.0106137
0 0 0
-0.00158351 0.0447939 -0.0276102
0.142284 0.114462 0.357047
-0.0108722 0.0512156 0.0265387
-0.116639 -0.208307 -0.036966
0 0 0
0.0717357 0.151795 -0.152178
0 0 0
0.0970375 0.0401214 -0.0889602
0.00264407 0.0860322 -0.0209523
-0.129476 0.185818 -0.0337006
0 0 0
-0.19678 0.162038 0.0435842
0.200278 -0.357089 0.183079
0.0341655 -0.0475959 -0.0964283
0 0 0
0 0 0
0 0 0
0.0471958 -0.0733343 0.0015614
0 0 0
0 0 0
0.186689 0.170038 -0.0506215
0.0174901 0.01617 -0.0200766
0.294931 -0.0911088 -0.293567
0.0418654 -0.150849 -0.178098
-0.0640306 0.0422599 0.334918
0 0 0
-0.0214546 -0.0759537 -0.0177347
0 0 0
0.00402063 0.153962 -0.0494713
-0.13586 0.115756 0.0143927
0 0 0
-0.0571251 0.350729 -0.0185702
0 0 0
-0.0246247 0.34446 0.250619
-0.00196878 0.119298 -0.0367703
0.0513374 -0.141743 -0.0194976
0 0 0
0.0548821 -0.152831 0.0324326
0 0 0
-0.0143265 -0.021228 0.00221633
0 0 0
0.11228 -0.115461 -0.503671
-0.15673 0.151905 0.254393
-0.034194 0.0293141 0.000635604
0 0 0
0.0186883 -0.0162938 -0.0162611
-0.112274 -0.00374415 -0.0024921
-0.202415 0.271405 -0.349796
-0.0105829 0.119248 -0.0209479
-0.0450716 0.238694 -0.177236
0.416658 -0.181501 0.0863857
0.179595 0.101027 0.207593
0.346594 0.205695 -0.11967
0.194455 -0.153545 -0.349209
-0.00124224 0.0399097 -0.0406367
-0.0988749 -0.0475449 -0.151953
-0.113398 -0.101561 -0.0246361
-0.11992 -0.035221 0.249259
-0.00538231 0.0281926 0.00396736
0.312502 -0.163948 -0.16465
0.0440912 0.214058 0.152504
0.194281 0.0216501 -0.212443
0.042107 0.102184 0.162162
0 0 0
0.0579076 0.239373 0.156275
-0.0686147 -0.00565547 0.000307215
-0.0754229 0.0131422 -0.00721987
0 0 0
-0.208263 -0.0432859 -0.0289015
0 0 0
-0.269079 -0.173287 0.152213
-0.0537044 -0.0934754 0.0326093
0 0 0
0 0 0
-0.115353 -0.079705 0.0807433
-0.00243234 -0.148136 -0.0406844
0.00413132 -0.165102 -0.0164154
-0.106881 0.16567 0.104114
0.359142 0.214141 -0.259286
0 0 0
0.0374095 -0.00555219 0.0479619
0.093563 -0.304502 0.173186
0.0645089 -0.229847 0.113094
0 0 0
-0.150964 0.324609 -0.0295444
0 0 0
0 0 0
-0.166793 0.0454355 -0.0249981
-0.231479 0.0371323 -0.0183807
0.00184773 -0.139209 -0.0294806
-0.0519817 -0.146859 0.115817
0 0 0
-0.0235214 -0.0647285 0.000856002
-0.0302662 0.000243295 -0.00494144
0 0 0
0 0 0
0.0171429 0.0710875 0.151185
-0.00388927 0.0542668 -0.164676
0.0327683 -0.0562522 0.0492974
0 0 0
0.0290736 0.0755818 0.107646
0 0 0
-0.0147753 -0.138513 0.0967447
0.0444141 0.0402184 0.224748
0.281224 0.0678854 -0.147908
0.0407755 0.0737068 0.269451
0 0 0
0.111117 -0.136674 0.08761
0 0 0
-0.208649 -0.0929038 -0.0820815
0 0 0
-0.338047 0.00570064 0.287919
0.0377497 0.166359 0.0986163
0 0 0
0 0 0
-0.200907 -0.149591 0.031293
0 0 0
0 0 0
0.14899 0.113305 0.0297824
-0.0350177 -0.128208 0.0219245
-0.0342743 -0.0187512 -7.76959e-05
0.0587334 0.132753 -0.000842483
0.124824 0.0423116 0.0738886
0.183653 0.0953034 0.0263743
0.0197913 0.00560091 -0.0239912
-0.0627811 0.258548 0.358826
-0.00413483 -0.172458 -0.318303
0.0220559 -0.0100098 0.000676541
-0.222272 -0.0819648 0.162254
0.00131356 0.0977341 0.0544542
0 0 0
0 0 0
0.104436 -0.0247983 0.0635349
0 0 0
-0.0437039 -0.0168524 0.127309
0 0 0
0 0 0
0 0 0
0 0 0
0 0 0
0 0 0
0 0 0
0 0 0
0 0 0
0 0 0
0 0 0
0 0 0
0 0 0
0 0 0
0 0 0
0 0 0
0 0 0
0 0 0
0 0 0
0 0 0
0 0 0
0 0 0
0 0 0
0 0 0
0 0 0
0 0 0
0 0 0
0 0 0
0 0 0
0 0 0
0 0 0
0 0 0
0 0 0
0 0 0
0 0 0
0 0 0
0 0 0
0 0 0
0 0 0
0 0 0
0 0 0
0 0 0
0 0 0
0 0 0
0 0 0
0 0 0
0 0 0
0 0 0
0 0 0
0 0 0
0 0 0
0 0 0
0 0 0
0 0 0
0 0 0
0 0 0
0 0 0
0 0 0
0 0 0
0 0 0
0 0 0
0 0 0
0 0 0
0 0 0
-0.0073521 0.145061 0.125667
-0.0817422 -0.21825 -0.0944554
0.00676887 -0.0240435 -0.0491725
-0.0460295 0.104328 -0.143941
-0.0278949 0.104296 -0.0256384
0 0 0
-0.06684 0.0441826 -0.00459595
-0.0343983 -0.200057 0.0460211
-0.0843908 0.161181 -0.133765
0.0549894 0.0165688 -0.0368728
0 0 0
-0.0829032 0.0923138 0.0351858
-0.149699 0.109137 -0.0530178
0 0 0
-0.033084 -0.115005 -0.117874
-0.0236856 0.144677 0.116583
-0.014057 -0.0860079 -0.0999865
0.0926072 0.01191 0.0929164
0 0 0
-0.0908318 -0.0024218 -0.179011
-0.0307756 0.0133129 -0.0321393
-0.00696049 7.86194e-05 0.02472
0.0741166 0.00100149 0.025845
0.0318714 0.28414 0.0381816
-0.00706057 -0.166357 0.0881263
0.0967688 -0.0117533 -0.158933
0 0 0
0.137162 0.0800504 0.00238903
-0.289028 -8.39748e-05 -0.0918427
0 0 0
0.125444 -0.104962 0.164222
0.0640225 -0.090608 -0.0181157
0 0 0
0.113455 -0.0228663 -0.0156742
0 0 0
-0.00853173 0.0274437 0.0927728
0.0248951 -0.00814639 0.183667
0 0 0
0.141688 -0.00478559 -0.232293
-0.0201729 -0.0114308 0.150414
-0.0230124 0.134071 -0.130433
-0.0339268 0.0159361 0.0207383
0 0 0
0.0214786 0.0618346 -0.107821
0.0530614 -0.000999078 0.0639331
0 0 0
0.0634084 0.0121571 0.0594829
-0.00853486 0.065279 0.0113964
0 0 0
-0.0567188 0.0933442 -0.129104
0 0 0
0.0947862 0.0644497 0.111515
-0.0596233 0.0185357 -0.11832
0 0 0
-0.103303 -0.00138073 0.00184421
-0.0500868 0.299368 0.459609
-0.000436721 -0.308559 -0.391944
-0.076649 0.006012 0.0340529
-0.000869295 0.0726249 -0.0136995
0.108412 -0.126714 -0.0469361
0.321429 -0.0231413 -0.0733473
0.00523386 0.0112105 -0.000509367
0.00206807 -0.0447502 0.0314365
-0.049061 -0.00514981 -0.0729755
-0.140557 0.179838 -0.246032
-0.0514674 0.149683 -0.0042861
-0.0520148 -0.116306 -0.169783
0 0 0
-0.105536 -0.00881155 -0.0616173
0.030579 -0.00251054 0.0186185
-0.00498756 -0.201943 0.220058
-0.0691879 0.0103186 0.299458
-0.0445511 -0.100456 -0.122337
0.029831 -0.337357 0.17505
-0.363313 0.05105 -0.13021
-0.0959171 -0.11313 -0.160689
-0.0444076 -0.0159805 -0.0571908
0.000492745 -0.0184374 -0.0822148
-0.00353504 -0.20823 -0.31049
-0.0852354 -0.196651 -0.0647427
0.106896 -0.246888 0.13453
0.355126 -0.513473 -0.0920562
0 0 0
0.317295 0.174092 0.255906
0.184324 0.219022 0.192697
0.190724 -0.268404 -0.02737
-0.355165 0.111125 0.0843112
-0.10443 0.146172 -0.0325457
0.0570465 0.104955 -0.200247
-0.194015 0.0636353 0.457055
-0.0258159 0.00615788 0.006059
0 0 0
-0.430714 -0.0491878 -0.0656177
-0.243622 -0.111798 0.187042
0 0 0
-0.173765 -0.101841 0.143165
0 0 0
0.194271 0.124111 -0.205999
0.108111 0.159201 -0.228433
0 0 0
-0.168565 0.177401 0.0121081
0.00435253 0.0103033 -0.130308
-0.324213 0.171916 0.444454
-0.063805 0.0059442 0.0848264
0.0250632 0.0328182 0.171893
-0.115207 0.163639 0.0960751
-0.239966 -0.0634003 0.0255306
-0.099439 -0.0199006 0.0994814
-0.331421 -0.225746 -0.131972
0.0417093 -0.07234 0.0353162
0.0372085 -0.611565 0.00623312
0.186156 -0.03561 -0.0368735
-0.13231 -0.614702 0.291631
0 0 0
0 0 0
0.108124 -0.0216914 0.119332
0.0562997 -0.0497091 0.0195314
0.00604607 -0.0338597 -0.143009
0.0126354 -0.245008 0.17713
0 0 0
-0.165384 0.210189 -0.574608
-0.160815 0.188937 0.301681
-0.0897644 0.136645 -0.0750089
0.0110336 -0.214667 -0.306646
0 0 0
0.0541556 -0.640643 -0.261685
0.00239241 -0.0332704 -0.0537322
0.271595 0.560986 -0.411806
0 0 0
0 0 0
0.0135405 0.0815745 -0.197675
0.0595826 0.140285 0.402499
0.059744 0.0170864 -0.278568
-0.147182 0.124919 -0.0616979
-0.323225 0.397294 -0.0313778
-0.0472164 -0.0423162 0.0044231
-0.000186513 0.0488389 -0.117158
-0.0926991 0.178089 -0.104022
-0.000646475 0.0393486 0.0220867
0 0 0
0.303388 -0.21987 0.270266
0 0 0
0.0341778 -0.0121493 0.0271161
0 0 0
0.0449198 -0.0560925 0.11447
0.0811145 -0.215435 -0.116326
0.0723659 -0.0795233 0.152227
0.205976 -0.124051 0.197732
0.0994661 -0.121746 0.189807
0 0 0
-0.115629 -0.107832 -0.0303102
-0.0180425 0.0264641 0.0212113
-0.217562 0.504621 0.00119078
0 0 0
0 0 0
0 0 0
0 0 0
0 0 0
0.0378169 -0.00137309 -0.162355
0.100379 0.248303 0.265661
-0.386953 0.481775 0.209852
0 0 0
0.140535 0.107665 -0.180824
0 0 0
0.0832816 0.114286 -0.313162
0 0 0
0.220124 0.111362 -0.254783
0 0 0
0.303136 0.105877 -0.171361
0.211006 0.0487798 -0.0907244
-0.0911527 -0.0454461 -0.0681312
0 0 0
0.0305571 -0.116459 0.000613928
0 0 0
0.41661 -0.11166 0.156693
0.0660938 0.0330635 -0.00656414
-0.0835057 -0.0783508 0.0546288
-0.101869 -0.00187997 -0.0581025
0.0267628 -0.0353571 0.213367
0 0 0
0.280781 -0.146321 0.027236
0 0 0
-0.136975 -0.355197 -0.154666
-0.148608 0.0176762 -0.0309351
-0.0368187 0.0561543 -0.115188
0 0 0
0.0840518 0.266887 -0.355844
0.0288523 0.0313596 0.0139041
0.105289 -0.0558837 0.0652901
0.192858 0.203291 0.018385
-0.022392 0.0750584 0.0167117
0 0 0
0.0088506 0.00192784 0.0502656
-0.0491479 0.000782264 -0.0351369
0.0299429 0.0106327 -0.000389621
0.0867921 0.469472 -0.128518