<?xml version="1.0"?>
<VTKFile type="RectilinearGrid">
<RectilinearGrid WholeExtent="0 32 0 32 0 32" Origin="0 0 0" Spacing="1 1 1">
<Piece Extent="0 32 0 32 0 32">
<PointData>
</PointData>
<Coordinates>
<DataArray type="Float32" format="ascii">
0 0.524874 1.04975 1.57462 2.0995 2.62437 3.14924 3.67412 4.19899 4.72386 5.24874 5.77361 6.29849 6.82336 7.34823 7.87311 8.39798 8.92285 9.44773 9.9726 10.4975 11.0224 11.5472 12.0721 12.597 13.1218 13.6467 14.1716 14.6965 15.2213 15.7462 16.2711 16.796 
</DataArray>
<DataArray type="Float32" format="ascii">
-5.03879 -3.62163 -2.20447 -0.787311 0.629849 2.04701 3.46417 4.88133 6.29849 7.71565 9.1328 10.55 11.9671 13.3843 14.8014 16.2186 17.6358 19.0529 20.4701 21.8872 23.3044 24.7216 26.1387 27.5559 28.973 30.3902 31.8074 33.2245 34.6417 36.0588 37.476 38.8931 40.3103 
</DataArray>
<DataArray type="Float32" format="ascii">
0 0.524874 1.04975 1.57462 2.0995 2.62437 3.14924 3.67412 4.19899 4.72386 5.24874 5.77361 6.29849 6.82336 7.34823 7.87311 8.39798 8.92285 9.44773 9.9726 10.4975 11.0224 11.5472 12.0721 12.597 13.1218 13.6467 14.1716 14.6965 15.2213 15.7462 16.2711 16.796 
</DataArray>
</Coordinates>
<CellData>
<DataArray type="Float32" Name="Vector" NumberOfComponents="3" format="ascii">
0 0 0
0 0 0
0 0 0
0 0 0
0 0 0
0 0 0
0 0 0
0 0 0
0 0 0
0 0 0
0 0 0
0 0 0
0 0 0
0 0 0
0 0 0
0 0 0
0 0 0
0 0 0
0 0 0
0 0 0
0 0 0
0 0 0
0 0 0
0 0 0
0 0 0
0 0 0
0 0 0
0 0 0
0 0 0
0 0 0
0 0 0
0 0 0
0 0 0
0 0 0
0 0 0
0 0 0
0 0 0
0 0 0
0 0 0
0 0 0
0 0 0
0 0 0
0 0 0
0 0 0
0 0 0
0 0 0
0 0 0
0 0 0
0 0 0
0 0 0
0 0 0
0 0 0
0 0 0
0 0 0
0 0 0
0 0 0
0 0 0
0 0 0
0 0 0
0 0 0
0 0 0
0 0 0
0 0 0
0 0 0
0.0976899 -0.237183 0.00890852
0.0171445 -0.0231535 -0.0444926
0 0 0
-0.00701297 -0.0505996 0.0291714
0.174871 -0.107556 0.00572463
0 0 0
-0.0859045 -0.234756 -0.057309
0.0502714 0.0603066 0.00914856
0.088424 -0.0640595 -0.00114722
-0.0503425 -0.0289858 -0.0298032
0 0 0
-0.0541544 -0.188698 -0.0575327
0.226845 -0.184258 0.0183143
-0.000110759 -0.0171742 0.0204074
-0.0411058 0.10821 0.0122445
0.021284 -0.197522 -0.00650479
-0.0066265 -0.0149351 -0.0959893
-0.0248711 0.0541778 -0.0383615
-0.0299143 0.0249038 -0.0326992
-0.180706 0.0237977 0.0214175
0.0652737 0.0126359 -0.0293483
0 0 0
0.14803 -0.110118 -0.0351832
-0.129565 0.0776882 -0.00106906
-0.0281037 -0.132003 0.00103999
0.0708824 0.0313925 -0.070365
0.0147881 -0.0161015 0.0279081
0.0770205 0.0846224 0.0224512
-0.10948 -0.143492 0.0216084
0 0 0
0.312697 -0.0490711 -0.0334984
0.0407016 0.0349553 -0.00676582
-0.0882489 0.0531234 0.161537
0.176344 0.0405774 0.102628
0 0 0
-0.0934991 0.195189 -0.00874755
0 0 0
0 0 0
-0.182124 0.232908 -0.00149741
0.03841 -0.0456398 -0.0946204
0 0 0
0.306707 -0.188293 0.0148042
0 0 0
-0.00281746 -0.030546 0.0597828
-0.0377171 0.101049 0.0697285
0 0 0
-0.0519989 -0.0388907 -0.0478517
-0.117522 0.262113 -0.156563
-0.0985842 -0.0333896 0.151888
-0.00346381 -0.0718304 0.00036068
0 0 0
0.0023591 0.105603 0.00316641
-0.08397 -0.0783995 0.00526368
0 0 0
0.450853 0.160242 -0.00205063
0.014948 -0.00233578 -0.0540886
0 0 0
0.0445039 0.0145837 0.000914215
0 0 0
-0.081002 0.0359882 -0.0414333
0.266227 -0.0710871 0.0176286
0.00741915 -0.0290893 -0.00838801
-0.0206053 -0.122183 0.105122
-0.267595 0.0282736 -0.166773
0.00220366 0.119546 -0.0113573
-0.0850684 0.0103427 0.068562
-0.00105425 -0.0851994 0.0436891
0.0976005 -0.022717 -0.0891175
-0.0219142 -0.196303 -0.000123357
0 0 0
0.448409 0.949763 -0.0908788
0.0127824 -0.313928 -0.188471
-0.0679597 -0.140501 -0.150824
0 0 0
0.0022716 -0.16077 0.0232791
-0.297267 -0.143423 -0.115096
0 0 0
0 0 0
-0.110777 -0.0156403 -0.151759
-0.0489313 0.137181 0.0266063
0.0214742 0.000276386 -0.259444
0.0447293 -0.533523 0.321529
-0.0173943 0.0571696 0.026106
-0.20102 -0.196002 -0.0570328
0.155404 -0.120559 -0.0224451
0.0214747 0.0429852 0.0375378
0.0048979 -0.0813469 -0.000610495
0.0451075 -0.0562656 -0.0704247
0.374217 -0.132036 0.205941
0.0593031 -0.107934 0.000275757
0.292726 0.079592 0.346314
0.0963944 -0.247516 0.296055
-0.177274 -0.0495242 0.134637
-0.160279 -0.131274 -0.190433
0.000431592 0.0590565 -0.125837
-0.0491364 0.0356701 -0.00365674
0 0 0
0 0 0
0.329516 -0.33332 0.300085
0.124943 -0.066868 0.0116038
0.31961 -0.57312 0.0416153
0 0 0
0.0513385 -0.0539396 -0.0610375
0 0 0
0.298955 -0.0310425 0.425821
0.0610348 0.084299 0.0335218
0 0 0
0.0960137 0.0761698 -0.577549
0.000526234 0.0090444 -0.103146
0.15513 -0.0266074 -0.29458
-0.109557 0.0323173 -0.200806
0.0934987 -0.036027 0.128341
0.12344 -0.0396061 0.115818
0.0337716 -0.0267511 0.0960949
0.0269805 -0.0231282 0.01018
-0.130221 -0.117297 -0.276838
0 0 0
0 0 0
0 0 0
-0.0419878 -0.146149 -0.116335
-0.0882756 -0.18192 -0.0983435
-0.0577244 0.0833546 0.0281469
-0.0370891 -0.0774406 0.115677
0.00306073 0.0018914 -0.00411086
-0.0485275 -0.101613 0.0961189
0.0520721 -0.139029 -0.156513
-0.00364866 0.0270701 -0.00373682
0 0 0
0.0628697 -0.0378801 -0.129475
0.00101129 0.0334133 0.125242
0 0 0
0 0 0
0 0 0
0.011217 0.00562705 0.0599122
0 0 0
0.125712 0.132148 0.00125475
0 0 0
-0.117842 0.145154 -0.340894
0 0 0
0.0300838 0.0027696 -0.0197192
0.519873 -0.100628 -0.247576
0.235317 0.24835 -0.0173588
-0.0416869 0.159735 0.0740437
-0.0017493 0.0248527 -0.0648591
0.0497956 0.139563 0.0651637
-0.00197482 0.0586743 -0.0306745
-0.0694693 0.00536318 0.154402
-0.0471554 -0.0162206 -0.0467564
0 0 0
-0.0954998 -0.333182 -0.259888
0 0 0
-0.167857 0.226087 -0.056145
0 0 0
-0.0481065 0.168805 0.156452
0.0364643 -0.010385 0.046018
-0.00047818 -0.198387 0.0439768
-0.182724 -0.222873 -0.0438812
0 0 0
0.125768 0.0208847 0.265763
0.137689 0.0886094 0.184732
0.340675 -0.165852 0.0231102
0.164458 0.099272 0.0902094
0.0393738 0.00784488 0.0436787
0 0 0
-0.0978427 -0.122687 0.170132
-0.0673032 0.00547437 0.0681978
0.292155 0.374326 0.00549897
-0.122195 -0.00524632 -0.0222034
0 0 0
0 0 0
-0.310499 -0.125027 -0.0959653
0 0 0
0.0257567 0.0107015 0.00526518
-0.33879 0.156983 0.0775315
0.226986 0.243968 -0.403114
-0.000359983 -0.00138092 0.00678507
0.0109067 -0.0283945 -0.140751
0.0711781 -0.101048 -0.320601
-0.00649836 -0.0420314 0.057867
0.0964705 0.120657 -0.287503
0.327506 0.103633 0.145476
-0.00172589 -0.0792008 0.060935
-0.173642 0.00129991 0.0103487
-0.036402 0.191032 0.0454068
0 0 0
-0.000186378 0.00707633 -0.0178452
-0.184789 0.225767 0.285736
-0.00316877 0.216057 0.0307824
-0.105442 0.286065 0.043236
0 0 0
0 0 0
0.447363 0.150532 -0.118513
0 0 0
0.190919 0.0214601 0.124313
0 0 0
0.170775 -0.172847 0.00685722
0 0 0
0 0 0
0 0 0
-0.0125431 -0.805475 -0.00160113
0.151266 -0.0534366 -0.0493213
0.000379452 -0.23257 -0.0159091
0.281233 -0.427039 0.254768
0 0 0
-0.0619234 0.0149243 0.0652407
0 0 0
-0.111847 -0.340714 0.0296145
0.0308821 -0.129807 0.137783
0.115393 -0.234558 0.000503576
0.147679 -0.101714 0.0615345
-0.00443975 -0.0442929 0.00310297
0.0282055 -0.0227537 -0.00636972
-0.0108961 0.153558 -0.225424
-0.0437232 0.185711 -0.0191327
-0.0544177 0.0475385 0.062155
-0.354703 0.348161 -0.267719
0 0 0
0.100406 0.48393 0.137933
-0.118388 0.083346 0.110655
0.101046 0.400065 0.436181
0.00107172 0.0285904 0.0293095
0.134439 -0.41588 0.240104
-0.0047267 -0.0224399 -0.0273725
0.199492 0.000608821 -0.269641
0.527115 -0.027102 -0.0751084
0.389855 -0.00376726 0.167625
0.084639 -0.00505303 0.0403561
0.230429 -0.126185 0.1027
-0.0551469 0.122917 0.0024041
0.0942808 -0.0568777 -0.0245491
0.00960973 0.0130066 0.0997787
0.0581705 -0.168848 -0.131509
-0.00962348 -0.00924446 -0.0392266
0.0261156 -0.320547 0.102039
0 0 0
0.1506 0.0672248 0.140001
0 0 0
0.253629 -0.210871 0.0818824
-0.00117569 0.0677755 -0.0084163
0.125742 0.0112441 0.0701876
0.00533402 -0.203901 0.276964
0.158118 -0.173245 -0.17821
0 0 0
0.114525 -0.473054 -0.0929114
0 0 0
-0.0772616 0.190883 -0.315995
-0.069064 0.00698915 -0.100616
-0.0666121 0.0921055 0.00366363
-0.0801177 0.0585805 0.126371
0 0 0
0.000195895 -0.0351513 0.012746
0.165889 -0.336136 0.0578691
0.0300282 -0.073059 0.0747565
-0.021868 -0.0781234 0.0299034
0.0153066 -0.015686 -0.00539048
0.140834 -0.196932 -0.270313
-0.20446 -0.00933813 -0.0837828
0 0 0
-0.158316 -0.205905 -0.234921
-0.171077 0.0607278 0.00481649
-0.0752592 -0.172265 0.203567
0.127118 -0.186131 0.18193
0 0 0
0 0 0
0 0 0
-0.123966 0.183172 0.236354
0 0 0
-0.220601 0.218611 0.124416
-0.13005 -0.00583026 -0.0209425
-0.530133 -0.63979 0.060269
-0.0871996 -0.115147 0.0122407
-0.0173747 0.00388863 -0.00802789
-0.198203 -0.109531 0.272195
0.0184654 -0.0679353 0.376815
-0.173362 0.0247532 -0.145399
0 0 0
-0.0925084 0.0306373 -0.000130187
0.133545 0.120121 0.130459
0.0617886 0.115239 0.178788
0.184488 -0.0142165 0.0865194
0 0 0
0.213159 -0.186789 0.0183727
0.0329741 0.0213441 -0.0177209
0.00442178 -0.00433395 0.0101581
-0.0667945 -0.0999785 0.084731
-0.0337734 -0.0256308 -0.0139824
0.103178 -0.115642 0.0260326
0.0716342 -0.0623621 -0.114613
0.00546256 -0.0868248 0.120246
-0.0539304 -0.0912885 0.0771853
0 0 0
0 0 0
0.0212398 -0.524455 -0.140762
0.00113409 -0.00405132 0.0384234
0.251416 -0.185263 -0.23244
0.341168 0.174912 0.141292
0.0152247 0.0209606 -0.0739932
-0.173429 -0.3781 0.0832937
0.333761 -0.0304808 0.313899
-0.0208943 0.05558 -0.155461
0 0 0
0 0 0
0.0927026 0.121841 -0.00814056
0.000578451 0.0454815 -0.0128106
-0.227513 -0.0866648 0.116868
-0.0720451 -0.0383361 0.269254
-0.145537 0.234834 -0.0853773
-0.0156245 0.0336756 -0.0232869
-0.589824 -0.0404968 -0.152888
0 0 0
0.0762998 -0.0452302 -0.095004
-0.031159 0.128726 -0.219119
0 0 0
0 0 0
0.0857333 0.0847037 0.0128743
-0.110985 0.0243635 -0.125489
-0.132268 0.049692 0.14546
0.211481 0.551495 -0.220714
-0.0510516 0.0102343 -0.111817
0 0 0
-0.0120267 0.0023447 -0.000661473
0 0 0
-0.0170781 0.28803 -0.0841849
-0.582275 0.240633 -0.0498409
-0.235519 0.0383903 -0.03087
-0.111567 -0.116365 -0.180778
0.0127773 -0.0830597 -0.110707
-0.00262431 0.10545 -0.0286528
-0.0846467 0.0810831 -0.149409
-0.00568452 -0.0472423 0.0133579
-0.39171 -0.22444 -0.182516
0 0 0
0 0 0
0.091093 0.167052 0.0854185
0 0 0
-0.0106722 -0.0910945 0.108172
-0.233657 0.0265458 0.434039
-0.0588183 -0.0058901 0.0353809
-0.138105 -0.07858 -0.00229808
0 0 0
0.0534394 -0.179301 -0.0589919
0 0 0
-0.0295003 -0.107646 -0.11469
0.00754768 0.0398236 -0.0197766
0 0 0
-0.181924 0.0321468 0.112513
-8.1189e-05 0.153698 0.024541
-0.199526 0.0093603 0.203132
-0.122689 0.200263 0.0456516
0 0 0
0.322112 0.211005 0.167967
0.0909004 0.0558997 -0.0262328
0.167575 0.224347 -0.21427
0.176086 -0.0953979 -0.132177
-0.0571461 -0.157497 0.35971
0 0 0
0.495393 -0.157334 -0.0114228
0.208149 0.0511305 0.0639808
-0.0804341 -0.0298314 0.0814089
0.102731 -0.273519 0.347087
-0.000418911 -0.135058 -0.0915528
-0.0174283 0.0507464 -0.0775196
-0.016 -0.0037023 0.00934841
0.0274348 0.0119841 -0.19924
0.00315695 -0.0426224 0.0404036
0.0958076 0.383172 0.369364
0 0 0
0.14821 -0.00382187 0.0422689
0 0 0
0.321497 -0.155472 0.190396
0 0 0
0 0 0
0 0 0
0 0 0
0 0 0
0.0253964 -0.221507 -0.0611908
0 0 0
-0.160774 0.178913 0.000253119
-0.125973 0.0457348 0.0119769
-0.174131 -0.0267873 0.136995
0.15529 -0.00627348 -0.0158833
0.0977884 0.0979768 -0.0547177
0 0 0
0 0 0
0.0173542 0.0389406 -0.0193942
0.252197 0.0215358 -0.193968
0.0217372 -0.136095 0.133884
0.316219 0.124929 0.310834
0 0 0
0.00725648 -0.0627645 0.256564
0 0 0
0.135527 -0.379978 -0.247032
0.196344 0.0839527 -0.0148136
0.0849703 0.0187118 0.0416937
-0.432779 -0.036895 -0.0781824
0 0 0
0 0 0
0 0 0
0.0407203 -0.244729 -0.11759
0.601539 -0.125592 -0.107381
0 0 0
0.375273 -0.472291 0.143023
0.2475 0.258339 -0.0784636
0 0 0
0.174968 0.239445 0.090547
-0.17959 0.16042 -0.123312
0 0 0
-0.33734 0.242614 0.164989
-0.527591 -0.00267784 -0.0583037
-0.024395 -0.122015 -0.107879
-0.0768418 -0.0639984 0.206884
0 0 0
0.0467488 0.10012 0.34965
0.305966 0.167591 -0.0434852
0.265116 0.148318 0.176902
0.284998 0.072093 0.0265661
-0.00979552 0.123143 0.285728
0 0 0
-0.190559 -0.0704323 -0.0116879
0 0 0
0 0 0
0.188984 0.257394 -0.294151
0 0 0
-0.0863249 -0.308211 0.00193571
0 0 0
0.325205 0.12481 0.00105301
0.0319202 -0.0998648 0.0240664
0.223829 0.0106773 0.0329329
0.196633 -0.00548806 0.168368
0 0 0
0.00433978 -0.054824 -0.0270251
0.084329 0.080592 -0.0919653
0.233788 -0.182884 0.0596837
-0.0135936 0.166534 -0.0739016
0.0509525 0.034343 -0.00289862
-0.0454099 0.00613068 -0.0710568
-0.141239 0.0564818 0.146547
0 0 0
0 0 0
0.0236911 -0.0401835 0.0249286
0.00721512 -0.00414715 -0.00720445
0.0877258 -0.107553 0.00819764
0 0 0
0 0 0
0 0 0
-0.219658 -0.0837092 0.229558
0.0437518 -0.165765 0.294477
0.00782683 0.00652721 0.011846
0 0 0
0.022874 -0.0406085 -0.0346971
-0.111752 0.0672323 0.0756674
0.222186 -0.206365 0.163437
0 0 0
-0.251182 0.107282 0.155349
-0.00191596 0.190724 -0.317153
0.000193106 -0.266753 0.0879139
0 0 0
0 0 0
0 0 0
0.378484 0.00525445 -0.00534947
0 0 0
0.0927311 -0.0925628 -0.095281
0.251299 -0.335358 0.074408
0.206617 0.0586025 -0.148109
-0.0118268 0.0223897 -0.0207939
-0.0770978 0.115837 0.0186025
0.0461234 -0.00216388 0.0188447
0.024568 0.139351 -0.193611
0 0 0
-0.0881233 -0.175347 0.000483795
0 0 0
-0.0847645 -0.0375825 0.0233878
-0.0182029 -0.00574068 -0.00593143
-0.320829 -0.175318 -0.0150303
0 0 0
0.333637 -0.082039 -0.140321
0.286231 -0.256008 0.0664377
0.423853 -0.243834 -0.0358952
-0.192408 0.0474934 -0.201322
0 0 0
-0.0343375 0.0110052 -0.337354
-0.0405454 -0.22743 0.00820691
0.168276 -0.171194 -0.0270645
-0.000569689 -0.0206664 0.00879426
-0.143961 -0.0857242 -0.182732
-0.0121013 0.00889194 -0.0139471
-0.114304 -0.178141 -0.0695816
0.0129695 -0.0775399 -0.522448
0.0640587 0.029959 0.0328905
-0.171059 -0.0548192 -0.0440226
0 0 0
-0.229885 0.15169 -0.184673
-0.0743648 0.000289808 0.160443
0 0 0
-0.0953353 -0.0473348 -0.0575865
0.000776621 0.0689023 -0.115132
-0.00373618 0.0744377 -0.0412917
0 0 0
-0.00641589 0.134431 -0.166779
0 0 0
0.205079 -0.499149 -0.221578
0 0 0
0.000354591 -0.0478274 0.0256769
-0.122102 -0.0101287 -0.012982
-0.152337 -0.449495 0.143756
-0.0707909 -0.0807051 -0.0192165
-0.0361876 0.0208075 -0.0266331
0 0 0
-0.00996916 -0.0553361 -0.101612
0.291831 -0.208934 -0.0247266
0.124833 -0.00967689 0.0897401
0.0261656 -0.0170556 0.0218591
0.0030035 0.279996 -0.0923932
0 0 0
-0.321608 -0.131727 -0.100585
-0.108826 -0.0657889 0.21578
-0.0864496 -0.110495 -0.151326
-0.0293401 0.104509 0.0161776
0 0 0
-0.0156104 0.00544762 -0.0732587
-0.0365788 -0.00223188 -0.0312057
-0.1287 -0.397372 0.0287172
0.22165 -0.0821732 0.0612747
0.113025 -0.0476988 -0.0613666
-0.154537 0.0749877 -0.0507086
0.0465181 0.0409326 -0.181334
0.00312173 -0.140806 -0.101112
0.267408 -0.361092 0.0865921
0 0 0
-0.034784 -0.00331812 -0.129518
0 0 0
0.148972 -0.170087 0.142811
0 0 0
0 0 0
0.064711 -0.0899305 -0.000788647
0 0 0
-0.136711 -0.0299621 -0.295429
0 0 0
-0.086738 -0.0984894 -0.43514
-0.105151 0.0631502 0.266878
-0.132612 0.074822 -0.167967
0.314404 -0.200236 -0.234731
-0.0550586 0.0541299 -0.230744
0.30145 0.018568 0.0591201
-0.133922 0.38527 0.0502964
-0.158798 -0.082064 0.0326744
-0.118088 -0.124529 0.194234
-0.000242577 -0.00561441 -0.0843721
0.0216327 0.0533334 0.0622481
0.0397275 0.0273792 -0.0275745
0.00903597 -0.0100598 -0.00727017
0.0750501 0.0140325 0.094344
-0.00163535 -0.10883 0.083445
-0.177255 -0.420756 -0.0140021
-0.0471286 -0.112698 0.272382
0.000774388 -0.0901129 -0.00941432
-0.0123318 0.165731 -0.0291486
-0.0605362 -0.172336 0.226701
8.81857e-05 -0.0109244 -0.0204724
0.00229135 -0.0494721 -0.22994
-0.00383628 -0.0387774 -0.0829744
0.155138 -0.0619443 -0.147457
-0.0308133 0.029156 0.00563905
-0.0509124 -0.0264421 0.027137
-0.00276357 0.0191666 -0.0219783
-0.0109921 0.101089 -0.122758
0 0 0
-0.00557548 0.100901 -0.179539
0.0013376 -0.0992171 0.165
0 0 0
0 0 0
0.0399034 -0.00944274 0.0393625
-0.172538 -0.0752019 -0.170846
0.097877 0.00632667 -0.290394
-0.070259 0.161957 -0.204555
0 0 0
0.0167953 0.106617 -0.218506
0 0 0
-0.23598 -0.2638 0.222218
-0.052735 -0.018306 0.0887463
-0.22078 -0.0187798 0.175148
-0.0258401 0.204111 0.16631
0.0997042 -0.257953 -0.0593232
-0.0761583 0.0669363 0.046343
-0.133717 -0.239743 0.0503149
-0.0146555 -0.0349927 -0.0299767
-0.183417 -0.462429 -0.155298
0 0 0
0 0 0
-0.195274 -0.172102 -0.145625
0 0 0
-0.0968387 -0.0587238 -0.000807414
0 0 0
0 0 0
-0.047911 0.450646 0.250441
0 0 0
0.0148922 0.126141 0.187766
0.417832 0.120975 0.203508
0.148887 0.20589 -0.0808412
0.191905 0.166285 -0.00739038
-0.15384 -0.16547 -0.387728
-0.0160652 0.0280673 -0.000686444
-0.125278 -0.115518 0.00139871
0.0110384 0.022088 -0.0172321
0 0 0
0 0 0
0.184952 -0.0679999 0.000259968
0.0566506 0.00015481 -0.129149
0.12455 0.130756 -0.180781
0.0790176 0.0852829 0.141754
0 0 0
0 0 0
0.171466 -0.0363389 -0.0834944
0 0 0
-0.289763 -0.121119 0.383612
0 0 0
0 0 0
0.0376999 -0.130647 -0.0765118
-0.178831 -0.0430842 -0.136299
0 0 0
0 0 0
0.00600093 0.1484 -0.0674027
-0.00211649 -0.0473266 0.300507
0 0 0
-0.499292 -0.065806 -0.00608597
-0.0447009 -0.0534861 -0.0894102
0.132362 -0.1594 0.0637694
0.0751481 -0.049917 0.129632
-0.159621 0.233182 0.0950452
0.174239 -0.00342784 0.0611433
0.114595 0.0884568 -0.0369046
0 0 0
0 0 0
-0.043056 -0.0723822 0.108984
-0.0412481 -0.0935931 -0.0130431
-0.123074 -0.0409864 0.0220277
-0.00504192 0.107111 0.142882
0.168231 -0.0780717 0.0173245
0 0 0
-0.0889716 -0.104627 0.0529601
0.0213568 0.0863193 0.0499492
0.316506 0.0520722 0.0610485
0.13036 0.154543 -0.100167
0.201222 0.052535 0.129282
0.0911298 -0.048848 -0.0350684
0 0 0
0.0856081 -0.144468 0.137442
0.209857 -0.119805 0.250735
0 0 0
0.396844 -0.102259 -0.192212
0.229094 -0.14097 -0.136487
0.0137711 -0.001322 -0.0628215
0.236653 -0.0594093 -0.114941
0 0 0
0 0 0
0.250393 0.168535 -0.312505
-0.112227 -0.0618771 -0.119601
-0.558737 0.0704858 -0.190392
0 0 0
-0.196526 -0.146363 -0.13116
0.00181138 -0.0423726 -0.0597324
-0.0474966 -0.064331 -0.40823
0.0170809 -0.0668063 -0.00962551
-0.159144 0.0315033 -0.103836
-0.124411 -0.283016 -0.0382973
0 0 0
0.269067 -0.125106 0.140703
0 0 0
0 0 0
0.158672 0.170529 -0.191945
0.16925 0.0766625 0.0769851
0.188375 0.0658457 -0.524366
-0.0517039 -0.0564692 0.0490152
0.0312281 0.0329024 0.0328561
0.229888 -0.00325944 -0.0409086
0.038469 -0.0985505 0.0469026
0.044201 -0.0806934 0.112092
-0.247011 -0.00890734 -0.16151
0.0636589 0.00528186 -0.00144221
0.0844601 -0.112149 -0.0237392
0.0118369 -0.446622 0.0755746
0.143948 -0.25619 -0.2282
0.0524104 0.152874 -0.0452857
0.0945137 -0.22136 -0.0691788
-0.0294379 0.00848305 -0.000554927
0 0 0
-0.0409902 -0.117717 0.00110812
-0.0625642 0.101537 0.0229923
0 0 0
0.174171 -0.00498896 -0.0371371
-0.216069 0.0914971 0.0945144
-0.0668191 -0.0863768 -0.128618
-0.213462 -0.19754 -0.0181245
-0.481624 -0.151292 0.0964549
-0.0855217 -0.090986 -0.0934735
-0.0265652 0.0105602 -0.0270093
-0.0300651 -0.0932088 0.264581
-0.270212 -0.419833 0.315845
-0.0746752 0.102258 0.0237548
-0.0945993 0.225262 -0.0265774
-0.157867 -0.12191 -0.0348098
-0.0433504 0.0373172 0.0621469
-0.111631 0.0616339 -0.0805863
-0.0474256 -0.0965128 -0.139687
0.0236093 -0.0577282 -0.286316
0 0 0
0.134817 -0.0768009 -0.0843241
0.170075 0.415659 0.368351
0 0 0
0.0207361 0.220405 -0.255266
-0.0107915 -0.102191 -0.0984853
-0.0422767 0.0102321 0.0152305
-0.0837211 -0.170399 0.0346507
0.0893192 0.178207 -0.00547165
0.000542464 -0.0486094 -0.113604
-0.0378532 0.193981 -0.26415
-0.115762 0.0533103 0.0621275
0.144444 -0.354104 -0.130234
0 0 0
0 0 0
0.0276398 0.174032 0.0817452
0.0906162 0.0637219 -0.0633471
0 0 0
0 0 0
0.0456435 0.0898011 -0.034125
0 0 0
0 0 0
-0.316027 -0.162689 0.128697
-0.225081 -0.360391 -0.166014
0 0 0
0.255797 -0.314905 0.0830649
0 0 0
-0.0305156 0.148577 0.028876
-0.0233302 0.041955 0.0212506
0.0410557 -0.172374 0.107085
0 0 0
0.0600553 0.147183 -0.148513
-0.10403 -0.125838 0.0357033
-0.0832327 0.042156 -0.0396273
0.070829 0.0366969 0.227097
0 0 0
0.069421 0.372811 0.185624
-0.000692732 -0.0290621 -0.101049
0.139569 0.0248647 0.0319017
0.110306 0.159474 0.0189281
0 0 0
0.0797516 0.306598 -0.163739
-0.0301244 0.0224168 0.0356905
0.351303 -0.0164517 -0.230341
0.101443 0.0735039 0.0079619
0.0619472 -0.0521889 -0.0384336
0.0377877 -0.116464 -0.217303
0.00993304 -0.0206876 -0.0498658
-0.0221257 0.12508 0.0251883
0 0 0
-0.121404 -0.124387 -0.111232
0.0883026 -0.02472 -0.00123739
0.129039 -0.260351 -0.108196
-0.0755044 -0.313256 -0.28378
0.0023927 -0.109294 -0.0168949
-0.114232 -0.0117797 -0.0672599
0.0744762 0.122406 0.00636484
0.326493 -0.200124 0.157593
0.000217569 0.0129913 0.0276045
0.0913941 0.0973373 -0.134969
0 0 0
0.0942124 -0.120257 0.0296263
-0.113947 0.171828 0.0809383
0.208027 0.146784 -0.0398259
0.0540702 -0.000572877 -0.0607317
-0.0680254 -0.288479 0.0274731
-0.0658065 -0.0166835 0.0114954
0.235018 0.130502 -0.0457222
-0.0161589 0.0247154 0.0272526
0.16824 0.0776154 0.382887
0.0269218 0.0190909 0.0734357
0.0987658 -0.172565 -0.0341812
-0.00495999 -0.235532 -0.0138737
-0.267175 0.286467 0.128194
0 0 0
0.245659 0.234912 -0.092381
0.126513 -0.13657 -0.128794
0 0 0
0.10576 -0.0834278 -0.174157
0 0 0
-0.00218405 -0.329189 0.158624
-0.00101318 -0.0459189 -0.0809315
-0.0254227 0.163249 -0.377722
0.0805641 -0.0191736 0.00092845
-0.0540449 -0.19551 0.248785
-0.127105 -0.0994459 0.10946
0 0 0
0 0 0
0 0 0
0 0 0
-0.0340747 0.0882324 -0.0811844
-0.0929624 0.274827 0.128621
0.0126744 -0.0445805 -0.0305974
0.278804 0.266509 0.449194
0 0 0
-0.119672 0.0537803 -0.0877465
0.317036 -0.0567881 0.153981
-0.0163228 -0.0346806 -0.00474488
-0.148203 -0.220344 0.167901
0 0 0
0.114643 -0.236708 0.382141
0.273988 0.330296 0.103676
0 0 0
0.0967038 -0.0815529 0.129482
0.00137549 0.212399 -0.0911289
0.086829 -0.125842 0.31965
-0.0477931 -0.0477367 0.067283
-0.0352043 -0.0135111 -0.0670166
0 0 0
0 0 0
0.127795 0.322949 0.0786187
0 0 0
0.191404 0.0130164 -0.145758
0.360389 0.122379 0.319858
0.319745 0.196499 0.389491
0.172496 0.0160365 0.132522
0 0 0
-0.291186 -0.0627875 -0.161966
0.0494732 -0.154921 0.167515
-0.266548 0.0105783 0.155754
0 0 0
-0.0101622 0.18323 0.146431
0 0 0
0 0 0
-0.452336 0.117573 -0.296287
0.0698344 0.371928 0.206816
-0.0197934 0.00632507 -0.0197244
0 0 0
0.00471811 -0.0986158 0.0108877
0 0 0
-0.22361 -0.152864 -0.000216865
0 0 0
0.0168552 -0.0270341 -0.000849431
0 0 0
-0.00397562 0.212092 -0.0531616
-0.302001 0.0155426 0.11519
0 0 0
-0.194005 0.053777 -0.141952
0 0 0
0.0992051 0.0188012 0.00290086
-0.145766 0.0828965 -0.0784204
0 0 0
0.234884 0.117428 -0.15564
0 0 0
0.231387 0.254921 -0.109304
-0.0670432 0.373359 -0.00756675
0.0678312 0.0368954 0.0185577
0.0538195 -0.0580366 0.171317
0.330763 0.307903 0.104838
0.00120315 -0.00114942 0.0564999
-0.0717162 -0.108425 -0.0751682
-0.0362751 0.09251 0.0761649
0 0 0
-0.139328 -0.0996073 -0.199956
0 0 0
0 0 0
-0.13151 -0.0637191 -0.0181961
-0.303695 -0.536174 -0.0838728
0 0 0
0 0 0
0.118458 -0.0521161 -0.207171
0 0 0
0.279805 0.123996 0.10272
0.106729 0.280798 -0.114303
-0.274384 0.0851863 0.030815
0 0 0
-0.015464 0.0598689 -0.0245762
0 0 0
-0.106442 0.0828364 -0.109348
0.0954288 -0.109943 0.0372908
0.0560837 0.169872 0.224464
0 0 0
0 0 0
-0.104163 0.0256758 0.0474512
0.000989096 -0.222235 -0.0354921
-0.126986 0.111126 0.430771
-0.0099012 0.189167 0.0181062
0.0364085 0.419118 0.00126501
0.276817 0.155599 -0.0590257
0.0187563 -0.00441537 0.0628535
0.0314875 0.0474736 0.0261382
0.0817789 -0.00211774 0.101207
0.000523372 -0.0309078 0.0622785
-0.103142 0.0858929 0.0965426
0 0 0
0.340369 -0.335854 -0.121594
0.0300669 -0.0321832 0.0253992
0 0 0
-0.173437 0.0892762 -0.126522
-0.00565994 -0.0160674 -0.00520157
-0.287813 -0.165854 0.344119
-0.0299598 -0.0818484 0.033793
0.0988392 0.01233 -0.172952
0 0 0
-0.0785841 0.332867 -0.164843
0.0660264 0.00228683 0.167827
0 0 0
-0.00288184 -0.00891275 -0.000415416
0 0 0
0 0 0
-0.0505662 -0.00524793 0.00751685
-0.00554541 0.027605 -0.00175487
0.0773424 -0.00801795 0.0931112
0.497327 -0.0328775 -0.162239
0.0777219 0.0949076 -0.145782
0.21463 0.30324 -0.319164
0 0 0
0.0450112 -0.00993391 0.107763
0 0 0
-0.0629287 0.198298 -0.0508847
0 0 0
0.193427 0.263817 0.298362
0.165281 0.273596 -0.339445
0 0 0
-0.0790576 0.0266257 0.153156
0.459056 0.27587 -0.0439198
0.0924415 0.0257527 -0.0452284
0.260772 0.445901 0.160937
0 0 0
-0.174913 -0.0238024 -0.0491502
-0.157447 0.0266147 0.0226652
0 0 0
0.051831 -0.309415 0.225602
-0.0951137 0.0371472 -0.260405
-0.304114 0.019657 -0.106735
-0.495929 0.180083 -0.218306
-0.191556 0.0418955 0.110755
-0.273654 0.188817 0.0250345
-0.00323251 -0.00215994 0.00192203
0 0 0
0 0 0
0 0 0
-0.346059 0.0534435 -0.0337081
-0.245484 0.21912 -0.139793
0 0 0
0.00163539 -0.0794975 0.34236
0 0 0
0.0616051 -0.0747791 0.0714316
-0.209389 0.0245069 -0.0626595
0 0 0
-0.275687 -0.0696019 0.0389981
0 0 0
0.00965235 0.166373 -0.0450702
0 0 0
0.0534469 0.0240997 -0.0157758
0.0245674 0.0115695 -0.156032
0 0 0
-0.126715 0.13894 0.181123
-0.282792 0.111059 0.134576
0.0681405 0.416122 0.155448
0.266113 0.635371 0.729973
0.027741 -0.0895566 -0.0884687
0.0708059 -0.046222 -0.047533
-0.00133679 0.0289187 0.0437043
-0.10936 -0.00725446 -0.0400663
0 0 0
0 0 0
0 0 0
0 0 0
0 0 0
0 0 0
0 0 0
0 0 0
0 0 0
0 0 0
0 0 0
0 0 0
0 0 0
0 0 0
0 0 0
0 0 0
0 0 0
0 0 0
0 0 0
0 0 0
0 0 0
0 0 0
0 0 0
0 0 0
0 0 0
0 0 0
0 0 0
0 0 0
0 0 0
0 0 0
0 0 0
0 0 0
0 0 0
0 0 0
0 0 0
0 0 0
0 0 0
0 0 0
0 0 0
0 0 0
0 0 0
0 0 0
0 0 0
0 0 0
0 0 0
0 0 0
0 0 0
0 0 0
0 0 0
0 0 0
0 0 0
0 0 0
0 0 0
0 0 0
0 0 0
0 0 0
0 0 0
0 0 0
0 0 0
0 0 0
0 0 0
0 0 0
0 0 0
0 0 0
-0.0669312 0.0699482 -0.0431138
0.0643303 -0.022345 -0.0890052
0.00150529 0.125605 -0.0115989
-0.0767362 -0.0661596 -0.0917613
0.0186659 -0.0376721 0.0138221
0 0 0
0.0652856 0.0145429 0.105413
0.0271039 -0.119499 0.0556961
0.00822685 0.0376451 -0.0236887
0.0254406 0.0187565 -0.111469
0.00204237 -0.00232895 0.0106604
0.0978987 -0.171054 0.0962849
-0.0935838 0.0586456 -0.0247714
0 0 0
0.0790398 -0.0892777 -0.110569
-0.0246607 -0.037667 0.0797472
-0.0583918 0.00666911 -0.121426
-0.0489313 -0.00763708 0.0731318
0 0 0
-0.14255 -0.145473 0.124109
-0.0530375 -0.078319 0.159209
0 0 0
-0.0497482 0.0647904 0.0268236
-0.0119857 -0.045433 -0.0735109
-0.03873 0.0166957 0.0885935
-0.0736832 -0.0160539 0.128479
0 0 0
0.0134659 0.0487258 -0.101267
0.0290681 -0.0221148 -0.128445
0 0 0
0.0727191 -0.0648129 -0.0416411
-0.0568597 -0.113226 0.0305416
0.0277947 -0.0964682 -0.0123288
-0.0773268 -0.0379863 0.124383
-0.061517 0.0557369 -0.0929447
-0.174933 -0.0385621 -0.00124568
-0.00878494 -0.116835 -0.0825427
-0.0257581 -0.0211858 0.0553528
0.00436555 0.0103469 -0.0206896
-0.000765088 -0.0923951 0.143103
-0.0488051 0.109789 -0.0863334
0.0234324 0.00189263 0.0268772
0 0 0
-0.038187 -0.041612 -0.0221279
0.0292976 0.00219963 -0.0137467
0 0 0
0.00365668 -0.0292188 -0.129704
0.0642042 -0.0677495 -0.0142165
0.0611937 -0.0122167 0.0225725
-0.0145416 -0.0484074 -0.0120535
0 0 0
0.0555751 -0.0531311 -0.156987
0.100466 -0.0825745 0.0376604
0 0 0
0.107305 0.00548141 -0.121854
-0.055146 0.241815 0.173989
-0.0625405 -0.21532 -0.093693
-0.0237919 0.008367 -0.118529
0 0 0
0.126799 0.0434093 0.0178901
-0.0712028 -0.00512485 0.0523352
0 0 0
-0.0105935 0.0164408 0.0153162
0.0585933 0.0606758 0.0176218
-0.0963977 -0.0750361 0.139525
-0.00425209 0.177927 -0.118098
0.056158 0.120129 -0.11142
0.16482 0.0430566 0.42742
0.176111 -0.339906 -0.0225743
0.0228788 0.123934 0.0605475
0.199776 -0.177108 -0.0915431
0 0 0
0.127507 0.0652979 -0.113384
0.272452 -0.262611 0.301321
0.0867297 0.0542972 -0.363017
0.0495893 -0.0268477 0.0521322
0.119549 0.0872824 -0.0749736
0.301305 0.184676 0.000190595
0 0 0
0.239228 0.127228 -0.175144
0 0 0
0.255442 0.176798 0.524956
0.252332 0.0156711 -0.321341
0.19939 0.000300791 0.0747028
-0.0680375 0.230839 -0.305638
0.0395314 0.14581 0.104696
0.0179721 0.349231 -0.0158076
0 0 0
-0.210937 0.0555698 0.524967
-0.141297 -0.154546 0.287937
0.000694368 0.0550638 -0.127011
-0.131854 0.121322 0.525423
0.0583276 0.123357 0.0997437
-0.0467004 -0.145235 -0.000254679
0.115977 -0.0840797 0.109291
-0.366145 0.190847 -0.210241
-0.127778 -0.296963 0.0885638
-0.00108494 -0.21587 0.0443163
0.0855402 0.0110379 0.153405
0.0540694 -0.160158 0.372518
-0.0177409 -0.0228464 -0.0188349
0.297672 0.0541793 -0.278827
0.185 0.00118596 -0.116271
0.139443 -0.246354 0.265121
0.00528136 0.465493 0.0653948
-0.0332083 -0.0189439 0.0438222
0.0462993 0.223229 0.116453
-0.0800647 -0.219475 -0.328691
0.0712413 -0.308008 -0.423477
0.0201147 -0.0285999 -0.0280181
-0.0792764 -0.126166 -0.141729
0 0 0
0.0446328 -0.0708063 0.00688308
0 0 0
0.0594445 0.180905 0.00238679
-0.0977088 0.121871 -0.0501065
-0.37635 0.406144 -0.245504
-0.160292 0.108555 -0.310474
-0.208615 -0.0333715 -0.210076
0 0 0
-0.00269325 -0.461142 -0.413357
0.0254555 0.00451128 -0.0314988
0.155557 0.000188798 0.350066
0.304764 -0.436784 -0.48272
0.058732 -0.0732957 0.241146
0.190225 -0.124951 -0.0890448
-0.236259 0.118925 0.255376
0 0 0
0.145472 -0.227725 -0.242629
0 0 0
0.0165219 -0.198645 -0.0905266
0.127934 -0.121055 -5.07361e-05
-0.0986117 0.000572361 0.147318
0.125084 0.110409 0.05515
0 0 0
0.268543 0.305271 0.0056395
-0.0292824 0.218187 0.0956526
-0.108813 -0.00346804 -0.0949626
0.234445 -0.231322 -0.0572813
0.114041 0.375403 0.0200953
0.108629 -0.0853186 0.000989524
0.003717 0.0399076 -0.174218
0.188275 -0.0151051 0.177675
0 0 0
-0.189947 -0.194045 -0.107001
0 0 0
0.059158 0.0767561 -0.000375872
0.0699832 0.666734 -0.480016
0 0 0
0 0 0
0.013066 0.0231929 -0.013502
0 0 0
0 0 0
0.0896322 -0.040868 0.101733
0 0 0
0 0 0
0.082098 0.400349 -0.0124372
0 0 0
0.038393 0.296592 -0.00277396
-0.113788 -0.160462 0.0309271
0 0 0
0 0 0
0.567444 0.23328 0.196849
0 0 0
0.142234 0.0307909 0.17097
0.00405957 -0.0439013 0.0201018
-0.257113 -0.359702 0.0707894
0.147668 0.0292919 -0.0106201
0.107403 -0.176089 -0.0295447
0.0190541 -0.0636912 -0.0503554
0.507155 -0.825237 0.043224
0.0738246 -0.05391 0.00632245
0 0 0
0.0424204 0.0815155 0.285854
0.0623357 0.0872234 -0.0249459
-0.183583 0.10626 0.00338438
0 0 0
-0.312323 -0.477395 -0.132916
-0.0154418 -0.297242 -0.167792
0.119317 0.0433001 0.119022
0 0 0
0.0342623 0.0632573 0.133532
0.410162 0.327273 0.14276
0 0 0
-0.179534 0.0724009 -0.140524
0.000509642 0.0658149 -0.106537
0 0 0
0.252933 -0.152787 0.082194
0.00520782 -0.00862312 0.00572632