<?xml version="1.0"?>
<VTKFile type="RectilinearGrid">
<RectilinearGrid WholeExtent="0 32 0 32 0 32" Origin="0 0 0" Spacing="1 1 1">
<Piece Extent="0 32 0 32 0 32">
<PointData>
</PointData>
<Coordinates>
<DataArray type="Float32" format="ascii">
0 0.524874 1.04975 1.57462 2.0995 2.62437 3.14924 3.67412 4.19899 4.72386 5.24874 5.77361 6.29849 6.82336 7.34823 7.87311 8.39798 8.92285 9.44773 9.9726 10.4975 11.0224 11.5472 12.0721 12.597 13.1218 13.6467 14.1716 14.6965 15.2213 15.7462 16.2711 16.796 
</DataArray>
<DataArray type="Float32" format="ascii">
-5.03879 -3.62163 -2.20447 -0.787311 0.629849 2.04701 3.46417 4.88133 6.29849 7.71565 9.1328 10.55 11.9671 13.3843 14.8014 16.2186 17.6358 19.0529 20.4701 21.8872 23.3044 24.7216 26.1387 27.5559 28.973 30.3902 31.8074 33.2245 34.6417 36.0588 37.476 38.8931 40.3103 
</DataArray>
<DataArray type="Float32" format="ascii">
0 0.524874 1.04975 1.57462 2.0995 2.62437 3.14924 3.67412 4.19899 4.72386 5.24874 5.77361 6.29849 6.82336 7.34823 7.87311 8.39798 8.92285 9.44773 9.9726 10.4975 11.0224 11.5472 12.0721 12.597 13.1218 13.6467 14.1716 14.6965 15.2213 15.7462 16.2711 16.796 
</DataArray>
</Coordinates>
<CellData>
<DataArray type="Float32" Name="Vector" NumberOfComponents="3" format="ascii">
0 0 0
0 0 0
0 0 0
0 0 0
0 0 0
0 0 0
0 0 0
0 0 0
0 0 0
0 0 0
0 0 0
0 0 0
0 0 0
0 0 0
0 0 0
0 0 0
0 0 0
0 0 0
0 0 0
0 0 0
0 0 0
0 0 0
0 0 0
0 0 0
0 0 0
0 0 0
0 0 0
0 0 0
0 0 0
0 0 0
0 0 0
0 0 0
0 0 0
0 0 0
0 0 0
0 0 0
0 0 0
0 0 0
0 0 0
0 0 0
0 0 0
0 0 0
0 0 0
0 0 0
0 0 0
0 0 0
0 0 0
0 0 0
0 0 0
0 0 0
0 0 0
0 0 0
0 0 0
0 0 0
0 0 0
0 0 0
0 0 0
0 0 0
0 0 0
0 0 0
0 0 0
0 0 0
0 0 0
0 0 0
-0.119732 -0.0662963 0.0854221
-0.0808193 -0.0239393 0.0784904
-0.00103898 -0.00453943 -0.0102672
-0.0235286 0.275384 -0.0425251
0.111789 0.108482 0.0562811
0 0 0
-0.192455 -0.0333132 -0.00944849
0.102607 0.000894329 -0.026599
-0.0156524 -0.04208 0.0238
-0.0831756 0.160807 0.0036846
0 0 0
0.00965928 -0.115253 -0.043986
0.113738 -0.0377649 -0.00273963
0 0 0
0.0276326 -0.0152053 -0.0204828
0.0698137 0.579634 0.00833688
-0.0172402 -0.0532439 0.0279377
0.033191 0.0767015 -0.0120459
0 0 0
0.103535 -0.00209768 0.00598289
-0.172973 -0.143479 -0.163945
0 0 0
0.12777 0.0329349 0.0137203
-0.14997 0.0463937 -0.0666187
-0.0880814 -0.138998 -0.0158699
0.137532 0.057418 -0.0975385
0 0 0
0.0442569 -0.0310208 0.0446639
-0.102104 -0.0922312 0.0618045
0 0 0
0.138029 -0.0831347 0.0242144
-0.0724968 -0.0892104 -0.152329
0.0226847 0.219929 -0.0934472
0.054227 0.0507659 -0.08421
0 0 0
0.331987 0.0609297 -0.00392858
0.0347032 0.011978 -0.0515406
0 0 0
-0.216546 0.25556 -0.0412044
0 0 0
0 0 0
0.103262 -0.0794917 -0.0247273
0 0 0
-0.00831717 -0.0338042 0.0509658
-0.0360527 -0.0682884 0.0017857
0 0 0
0.0564576 0.0433743 -0.0243355
0.162202 0.0845348 0.194871
0.123892 -0.00713268 -0.200092
0.0430297 0.095352 0.0591095
0 0 0
-0.0923356 -0.0411315 -0.00185735
-0.124881 -0.00279028 0.0329007
0 0 0
-0.347427 -0.0130694 -0.0512515
0.0441988 0.00933572 0.011143
0.0621371 -0.043866 0.0543505
-0.106308 0.092199 -0.000671943
0 0 0
0 0 0
0.518456 0.206139 0.114791
0.0662454 -0.0219052 -0.0743456
-0.0200108 0.00823382 -0.0337117
0.0851572 -0.113987 0.08688
0 0 0
-0.0172792 0.0460216 0.140696
-0.312512 0.161691 0.0279439
0 0 0
-0.291266 0.370696 0.00415003
0 0 0
-0.120328 0.0462995 -0.150532
-0.154592 0.142446 -0.00418098
-0.140032 0.19231 -0.37083
0.13431 -0.0884892 -0.0300714
-0.244492 -0.610143 -0.351778
-0.102803 0.00802011 -0.0574783
0 0 0
0.172033 -0.013744 -0.0168738
-0.0471924 0.0153528 -0.050175
0.0685213 0.0455059 0.19733
0.10265 0.0691895 0.169254
-0.0375553 0.103575 0.282548
0.101208 -0.0625222 -0.00712486
-0.0339468 0.0683156 -0.193217
0.114634 -0.192464 0.212582
0.034815 -0.00372474 0.0224739
0 0 0
0.0685267 0.109179 0.135336
-0.47296 0.281429 0.185876
-0.481906 0.123517 0.0176422
0.000754203 -0.0725691 -0.0602883
-0.0684969 0.352912 0.0631405
-0.215653 0.169313 0.0018196
0 0 0
-0.0427681 0.0939921 -0.371842
0.0297015 -0.0676038 -0.0158823
0.0220027 0.223011 -0.148759
0.193401 0.139082 -0.144213
0 0 0
-0.0237734 0.0719815 -0.000624175
0 0 0
-0.250008 -0.0162547 -0.251957
0.152802 0.00220925 0.11619
0.00861604 0.00175458 -0.0553002
0.219874 -0.29078 0.00270251
0.0301708 -0.0687298 0.0258605
0.328644 -0.241602 0.299947
0.283523 0.294855 -0.247227
0.40006 -0.406657 0.0267552
0.338755 -0.312379 -0.0303226
0 0 0
-0.0698263 0.0263881 0.0844704
-0.0407166 -0.196428 0.0157901
0.0818133 -0.167037 0.0668845
0.0796329 -0.218928 0.229243
0 0 0
-0.0607271 -0.000914439 0.149884
0 0 0
0.284194 -0.0865053 0.0033991
0.307146 0.131576 -0.0614186
0.151751 0.0505413 0.150933
0.263795 0.463614 0.258233
0 0 0
-0.0621496 0.0287067 0.136483
-0.209174 -0.130864 -0.150665
-0.22092 -0.00968186 0.00400923
-0.0522433 0.0105438 -0.0683886
0.149098 0.301282 0.252924
0.0794933 -0.136861 -0.124489
0 0 0
0.00299824 -0.0624764 -0.317505
0.24344 0.0169879 0.0456774
0 0 0
0.220145 0.00152736 -0.139157
0.000932341 -0.0805787 0.0376333
0.403872 -0.394714 0.00323558
0.236458 0.0679981 -0.0887105
0.155537 -0.486874 0.179479
-0.0866091 -0.0587199 -0.167284
-0.0647816 0.161795 0.161636
0.0504223 -0.0271115 -0.0573218
-0.135533 -0.139442 0.0609792
0.0812696 0.0489805 -0.158672
0.589575 0.146427 0.122031
0.00907247 -0.0380212 0.1394
0.482138 0.0794304 -0.100275
0.0532108 0.077545 0.107155
0.0277125 0.121436 -0.00356086
0.047651 0.0973339 0.0232274
0.049069 0.088377 0.0278768
0 0 0
0.30151 -0.0876481 -0.40389
-0.00385119 -0.0313293 -0.122505
-0.0629468 -0.150444 -0.222239
0.140528 0.132668 -0.69264
-0.325578 0.292858 0.0519313
-0.0718941 0.0433103 0.324025
-0.137556 0.0788664 0.153368
0 0 0
0.209967 0.38978 -0.254616
-0.0548164 0.0239842 -0.208395
-0.0420566 0.0547288 -0.0562501
-0.187515 0.247498 0.0661764
0 0 0
0.284786 0.0375036 -0.287101
-0.00543655 0.023567 0.0146885
0.198931 0.00851935 -0.154489
0 0 0
0.0156144 -0.0237014 -0.112366
0 0 0
0.00556524 0.0105884 -0.000517742
-0.312098 -0.0214855 -0.0566697
-0.1666 0.0593734 0.00702315
-0.0661514 -0.307375 -0.436588
0.0142413 -0.0263578 0.0316413
0.0540373 -0.277444 -0.112393
0 0 0
-0.0081591 0.201206 -0.325028
0.409447 0.0418555 -0.0349666
0 0 0
-0.229184 0.543485 0.0718738
-0.114786 0.127385 -0.0381956
-0.0473975 0.168969 -0.153901
0 0 0
0 0 0
0.0286452 -0.0342335 0.00480154
-0.0741054 0.0581062 -0.0537194
0 0 0
-0.0586269 0.0490872 -0.21108
0 0 0
0.153223 0.264494 0.203654
0 0 0
0.0992269 0.31839 -0.251033
0 0 0
-0.15255 0.108361 -0.0541839
0 0 0
-0.259463 0.228723 0.0183253
-0.00368663 -0.381089 -0.210973
-0.393816 0.042227 0.299534
0 0 0
0.240851 -0.112024 -0.131123
0 0 0
0 0 0
-0.122739 0.135563 -0.213473
0 0 0
0.0883946 0.139405 -0.453227
-0.000417418 -0.00571078 -0.0724709
0.00054298 0.0105415 -0.0466759
0.255764 -0.253435 -0.232177
-0.123175 -0.0233594 -0.000727458
0 0 0
0 0 0
0.21247 0.184486 0.0105557
-0.0234157 -0.0675217 0.000227276
0 0 0
0.110268 0.38464 0.129586
0 0 0
0.0697596 -0.0536448 -0.0376152
0.017242 0.0505365 -0.145468
0.143534 0.16746 -0.127656
0.265889 -0.0230346 -0.151755
-0.114355 0.181265 -0.219405
0.138021 0.0693227 0.00829149
0.00228899 0.189941 0.0741325
-0.0100413 -0.0264392 0.00775016
-0.378988 -0.154199 -0.0429645
-0.00534395 -0.0419528 -0.0186412
0.101673 -0.583191 -0.194055
0.0399839 -0.136928 0.0672403
0.00128975 -0.0720818 0.139262
0.309 -0.0776196 -0.318277
-0.024983 0.0258124 -0.194707
-0.201225 -0.115556 0.00617923
-0.14693 -0.142651 0.0309002
0 0 0
0.00247304 -0.0483666 -0.0136451
0 0 0
0.0533358 -0.00812348 0.350247
0.0344349 0.0103341 -0.0224439
0.164191 -0.141203 -0.153404
-0.0344198 0.0637277 0.0231275
-0.0134912 0.0410593 -0.0248638
0.0945991 0.0208815 0.0862978
0.124607 0.16404 -0.0836835
-0.0400271 0.0878762 0.0405087
0 0 0
-0.0443486 0.0235845 -0.0815463
0.320932 -0.0874363 -0.211336
0.140865 0.104567 -0.0355969
-0.0723038 -0.127333 -0.414524
-0.097639 0.03883 -0.0807333
-0.0672967 0.0941068 -0.138166
-0.0982428 0.0111973 0.00164592
-0.0694651 0.297754 0.193741
-0.0682027 0.0233179 0.15206
-0.269052 0.637579 0.47986
0.218284 -0.11709 -0.327672
0 0 0
0.0573688 0.141942 0.186873
-0.0825107 -0.0902466 0.0159194
0 0 0
-0.0952199 -0.119214 0.395014
-0.086452 0.0278705 -0.0010421
-0.140804 0.446409 -0.151687
0.328376 0.184042 -0.0514648
-0.320392 -0.0169299 -0.135917
-0.00200597 -0.173719 -0.283305
-0.0154841 -0.455314 -0.0548368
0.200061 0.10252 -0.161356
-0.0198091 -0.0245403 0.00158448
0.0263848 -0.0521577 -0.112832
0 0 0
0 0 0
-0.187771 -0.016772 -0.000461297
-0.0425559 -0.0960118 0.35898
0 0 0
0.0553498 0.267945 0.23339
0 0 0
0.453442 0.102527 -0.285848
0.148511 0.0171586 0.123826
0 0 0
-0.0460582 0.0328374 -0.087104
-0.190024 0.05973 -0.108642
-0.0407064 0.1684 -0.234479
-0.176299 0.181005 -0.105813
0.0306148 -0.155436 -0.190996
-0.135019 -0.0597958 0.0853536
-0.0396087 0.384556 0.0970672
0.0564407 -0.0360533 -0.195597
-0.0198732 -0.113089 -0.150256
0.0409553 0.235796 -0.154018
-0.011838 -0.203663 -0.0714792
0 0 0
-0.152493 -0.135595 -0.0228865
-0.0313613 -0.0736469 0.0423544
-0.0400147 -0.0606973 -0.0522948
0 0 0
-0.185178 0.0514434 0.0432966
0 0 0
0.139997 -0.0442143 0.0214601
0.000403571 0.242474 0.0255182
-0.041577 0.0926957 -0.137724
-0.0448207 -0.0875994 -0.126213
0 0 0
-0.0766088 -0.00726 0.138539
0.0165929 0.114437 0.233327
-0.168005 0.0553573 -0.0653164
-0.0806174 -0.000705947 -0.143771
0.127157 -0.148695 -0.386322
0.000809988 0.114915 0.159826
0 0 0
0.0362897 0.0709462 0.113735
-0.151197 -0.027308 0.0318572
0 0 0
-0.219545 -0.301356 -0.270828
-0.0360438 0.00748329 -0.0278545
-0.428019 0.129955 0.175011
-0.090052 0.0347498 -0.123971
0.0622359 -0.234808 0.00336704
0.0341851 -0.19485 0.0885774
-0.0823426 -0.0948064 0.132821
0.254405 -0.403984 -0.196678
0.128914 0.00908098 -0.106054
0.444848 0.0230714 -0.140686
0.223804 0.0646316 0.0125256
0.0619481 -0.043938 -0.156007
-0.201184 0.192353 -0.122427
-0.437809 0.103406 0.356603
0 0 0
0.00249676 0.0136013 -0.0205942
-0.166459 0.0548493 -0.103926
-0.446486 0.278202 -0.541123
-0.0781896 -0.011362 -0.046283
-0.209111 0.205151 0.0358984
-0.230849 0.0189053 -0.0163382
-0.364916 -0.111823 0.135863
-0.1041 -0.0263466 0.0710719
-0.0848579 0.0296829 0.117968
-0.0501337 0.0762946 0.0168877
-0.0623769 0.0017653 -0.0336449
0.103294 0.00859562 -0.00146749
0 0 0
0.157139 0.0855532 0.373626
0 0 0
0.334246 -0.261806 0.143291
0 0 0
0.134046 -0.0708617 -0.0424468
-0.164647 0.248448 0.116932
-0.0866124 0.0444054 -0.00966973
0.0575014 -0.10105 0.38812
0.00218352 -0.00482498 -0.105553
-0.00399249 -0.074652 -0.0308073
0.153215 0.0760574 -0.0148729
0.224863 -0.0867095 0.0666458
0 0 0
0.126642 0.0896598 0.359168
0 0 0
-0.146318 0.348897 -0.185453
0.00032041 0.0692437 0.036379
0 0 0
0 0 0
-0.114256 0.0796127 -0.0309351
0.0927636 0.0169554 0.044634
0.00243887 -0.0146528 0.00636698
0 0 0
-0.0478687 0.348056 -0.201815
0 0 0
0 0 0
0.0266063 0.215703 -0.020412
-0.0575393 -0.00402988 0.153351
0.0158459 0.00121358 0.0797825
0.0694857 -0.0253179 -0.0979986
0.258151 0.218445 -0.0540422
0.237227 0.0773145 -0.00377302
0 0 0
0.0162883 -0.0599986 -0.0597906
0 0 0
0.0847808 -0.27383 0.0568136
0.191025 -0.229874 0.12642
0 0 0
0.105209 -0.0883675 0.000582101
0.0198983 0.172355 -0.209706
0 0 0
0.248795 -0.273851 -0.0634849
0.00944337 0.0618132 -0.0925421
0.145715 -0.0769879 -0.130186
0.136998 -0.136167 -0.16186
-0.0973896 0.189767 0.272102
0.106351 0.0138848 0.313882
0 0 0
0.2815 0.19926 0.221623
0 0 0
0 0 0
0 0 0
0.0172735 -0.0264231 -0.00843185
0.217217 0.27223 -0.330215
0.154813 0.0941162 -0.0915378
0 0 0
0 0 0
0 0 0
-0.0695827 0.251986 -0.0624755
0.00640398 0.0104481 -0.00869761
0.0804226 -0.173954 0.00219455
0 0 0
0 0 0
-0.0835744 0.0109717 0.00201577
0 0 0
-0.00243786 0.0307482 0.0120178
0.156357 0.0572855 0.0088801
0 0 0
-0.0353086 -0.115438 -0.21327
0 0 0
0 0 0
0 0 0
0.0520117 0.120706 0.0725943
0.155961 -0.142015 0.311443
-0.0508539 0.0610339 -0.199388
0 0 0
-0.0724256 0.0947368 0.0231439
0.0178278 0.0107224 0.0546037
0.137392 -0.158946 0.077553
0.153906 0.484897 -0.0502391
0 0 0
0 0 0
0.437308 -0.155887 -0.211614
0.123988 0.0337507 0.157804
-0.060158 -0.242578 0.298531
0 0 0
0 0 0
-0.0920997 0.107241 -0.161787
-0.00114958 0.106484 -0.0404528
0.0522424 0.0203462 0.0713902
0 0 0
0.174437 0.045269 -0.195112
0.303225 0.200373 0.0252467
-0.183037 0.107663 0.0852764
0.0856194 0.0802489 0.048138
0 0 0
5.7781e-05 0.301867 -0.0875925
0 0 0
0.0647165 0.00272591 -0.0394479
-0.214468 0.0775708 0.0193766
0.072938 -0.0226243 -0.000534163
-0.172627 0.162092 -0.0318539
-0.175322 -0.257771 -0.32284
-0.216238 -0.00444663 0.219617
-0.155947 0.181737 -0.130694
-0.322528 -0.129835 0.226748
0.00961055 0.334004 0.31314
0.0398042 -0.0164881 0.521768
0.0297779 -0.027549 0.107566
0.0874908 0.073696 -0.0838133
0.0141606 -0.323088 -0.229919
-0.0106625 0.164424 0.235094
-0.138079 -0.396057 -0.261207
0 0 0
-0.140363 -0.58429 -0.0865721
0.341593 0.0878315 0.132861
-0.149356 0.0586868 0.257042
0 0 0
-0.209826 0.336681 0.0284658
-0.376863 0.0502536 0.103332
0 0 0
0.08834 0.130559 -0.1831
0.0174662 0.0139145 -0.032127
-0.181622 0.689681 -0.13499
-0.0413061 0.116865 0.0764997
0.131116 0.0504317 0.000356731
-0.118696 0.570615 0.179877
0 0 0
-0.130322 0.573335 0.186164
0 0 0
0.0747035 0.0618624 0.0695738
0 0 0
-0.0652068 -0.134516 0.00592549
0 0 0
0 0 0
0.0938306 -0.185877 -0.122845
-0.00490423 0.0552632 0.0385705
-0.0389031 0.309155 0.0512129
0.123589 0.470437 0.04076
0 0 0
0.00227866 0.0326425 0.000729896
-0.0687523 0.163101 -0.329562
-0.151365 0.584094 0.273896
-0.165703 0.0112081 0.0535874
-0.261719 -0.316276 -0.0438662
0 0 0
-0.0691822 -0.230371 0.254167
-0.121073 0.0113897 -0.131974
0.211972 0.0389165 -0.122258
0 0 0
0.193197 0.179211 0.0801883
0 0 0
-0.0450381 0.1508 0.0318147
0 0 0
-0.163545 -0.0351712 0.000964062
-0.0402489 0.0763906 -0.0274703
-0.332268 0.675743 0.291687
0 0 0
0.13063 0.218043 0.00448484
0 0 0
-0.102573 0.0541594 -0.0138431
-0.119223 -0.0173946 0.0106738
-0.00439035 0.00538379 0.0367455
0 0 0
-0.0168367 0.11809 -0.0464334
0 0 0
-0.0344284 -0.181829 -0.0107514
-0.116824 0.136994 0.00247681
-0.04806 -0.27513 -0.0556887
0.0418221 0.0265781 -0.0351353
-0.155446 0.287786 0.0554362
-0.089368 -0.0711926 -0.0858104
-0.26141 0.385843 -0.159833
-0.171406 -0.111796 -0.0882295
-0.0860389 0.218138 -0.0459197
0.019896 -0.0505078 0.153261
0.623126 -0.200673 0.427715
0 0 0
-0.184906 0.00552703 -0.0406695
-0.527883 0.174494 -0.0532685
0.0189516 0.0119261 -0.235238
0 0 0
-0.0999251 0.0645615 0.0473659
-0.054816 0.15477 -0.233488
-0.0796789 -0.0390438 -0.129117
0.0433853 0.173085 0.0675853
0 0 0
0.164583 0.309875 0.0842469
0.0191032 0.0307136 -0.0494322
0 0 0
0 0 0
-0.221446 -0.0562897 -0.148712
-0.28392 -0.273905 -0.0663236
0 0 0
0.271854 0.123011 -0.0826648
-0.234362 -0.0242363 -0.125869
0.000138291 -0.0588831 -0.0022611
-0.23156 -0.368544 0.300716
0 0 0
-0.307606 -0.529342 -0.0740643
0 0 0
-0.310337 0.136785 -0.111773
-0.00344344 -0.0286622 -0.002323
0.221509 -0.244914 -0.199407
0.000736326 -0.05833 -0.0352274
0 0 0
-0.216625 -0.137984 0.00100798
-0.392732 -0.410554 -0.0612198
-0.157433 -0.288377 -0.042011
0 0 0
-0.0103862 -0.0340398 -0.0468368
-0.464229 0.0908574 -0.00522802
-0.144387 -0.273791 0.0495054
-0.247544 -0.238808 0.24102
-0.0628265 0.0643692 0.000453583
0 0 0
0 0 0
-0.0787341 -0.0688306 0.146995
-0.097263 0.000136153 -0.12631
-0.00769087 0.136869 -0.379397
-0.166237 0.109996 0.0034494
0.00116335 0.160725 -0.0330098
0.236857 0.153927 -0.176682
-0.125266 0.05079 -0.293541
-0.0228367 -0.00196109 0.00950679
-0.175014 -0.0705068 -0.331096
0 0 0
0 0 0
-0.0466761 0.066755 -0.0643894
-0.000490019 0.0351196 -0.0114943
0.0529703 -0.151737 -0.0335989
0.428939 -0.458256 -0.0890061
0 0 0
0.0482004 -0.169596 0.126447
0 0 0
0.0119332 -0.00278004 0.0085292
0.193847 0.16813 0.256658
0 0 0
0 0 0
-0.00187137 -0.0118834 0.0542204
0 0 0
-0.0774902 -0.267559 0.095899
0.119137 -0.0555968 -0.206611
0 0 0
0 0 0
0 0 0
-0.293129 -0.0684102 -0.291352
-0.0451637 -0.0115669 -0.233634
-0.311953 -0.0524238 0.0541997
-0.00144206 -0.045369 0.0358084
-0.100607 0.319203 0.240865
0 0 0
0.00400121 0.07818 -0.0461455
0 0 0
0 0 0
0.0848334 0.108688 0.159663
0.0296573 0.0539437 -0.0150822
0.0600272 0.0183221 -0.263246
0.0769912 -0.0457103 -0.0252625
0.03361 0.122969 0.279328
-0.0268294 0.0321473 -0.0242546
-0.0873095 0.0413687 -0.108175
0.122793 0.432248 -0.174635
-0.0512712 0.327316 -0.168943
0.116356 -0.0265732 -0.00631719
0 0 0
0.118451 0.0184962 0.0534363
0.0381157 -0.0563027 -0.0497308
-0.0621531 0.0531787 0.0735892
0.104282 -0.0642921 -0.265008
-0.113632 0.0162483 -0.206297
0 0 0
0.349225 0.0976569 -0.305469
0.0768759 0.199465 -0.0401587
0.0138653 -0.171398 -0.111101
0 0 0
0 0 0
-0.169092 -0.458419 -0.0333932
0 0 0
-0.337538 -0.15457 0.127692
0 0 0
-0.247534 0.121503 0.523982
0 0 0
0.0627443 -0.103827 -0.182412
-0.00174723 0.132262 -0.0327473
0.0713054 0.106921 -0.134113
0 0 0
0.211458 -0.158542 0.183607
0 0 0
0 0 0
-0.0464467 -0.086745 0.118517
-0.267418 0.0972947 0.03484
0 0 0
0.202171 -0.213961 -0.0322369
0 0 0
0.0822197 -0.342505 -0.449347
0 0 0
-0.0700067 0.245714 0.00348856
0.00340228 -0.06151 -0.032094
-0.528299 0.0766639 0.000570058
-0.0340681 -0.0704324 0.0197756
-0.0839025 -0.156046 -0.00714588
0.00328726 -0.131921 0.348393
0 0 0
0.0492061 0.189865 -0.164711
-0.0040331 0.250341 -0.512115
0.0872963 0.0295568 -0.0633647
-0.130428 0.139752 0.0785951
0 0 0
-0.0609169 -0.00375985 0.00283554
0.0708516 0.0703447 -0.0608539
-0.0590639 0.0677235 0.0830706
-0.119037 -0.00454631 -0.213494
-0.170063 -0.0920558 -7.456e-05
-0.0459196 0.0477298 0.0517998
0 0 0
0.208108 0.128861 -0.211698
0 0 0
0.171463 -0.241289 0.00324322
0.00793221 -0.00060745 0.000247135
0.0485974 0.131448 0.0421743
-0.00175949 0.173729 0.0341117
-0.0411555 0.0327526 0.110463
-0.0908817 0.124157 -0.184993
-0.00252969 0.0394418 0.0475865
0.0562704 0.118328 -0.0465387
0 0 0
0 0 0
-0.0199352 0.238967 -0.210741
0.000315807 0.00860935 -0.007315
-0.0189307 -0.469134 -0.109832
0.00377762 0.0693897 0.0407496
0.0409076 -0.113962 -0.0530917
0 0 0
-0.155975 -0.0299078 0.187707
0 0 0
0 0 0
-0.137102 0.050255 0.300131
0.139156 0.127866 0.000246883
-0.229294 0.045769 -0.378964
-0.00804333 0.00378943 0.034623
0 0 0
-0.141382 -0.0544841 -0.350327
-0.174285 -0.185179 -0.383312
0 0 0
-0.0243383 -0.0286533 0.199827
0 0 0
-0.122175 0.176856 0.224776
0 0 0
0.22413 -0.0197906 -0.0768599
0 0 0
0.0518375 0.274498 -0.356087
-0.207022 0.0192858 0.126155
-0.0508336 0.0352627 0.309212
0 0 0
0 0 0
0.0413165 -0.360045 -0.201103
0 0 0
-0.106115 0.108762 -0.130509
-0.0204349 0.148798 -0.156158
-0.0182097 0.108428 -0.0594566
-0.010164 -0.1057 0.00409449
0.101751 0.193204 0.314931
-0.153457 -0.207925 0.0950742
0 0 0
0 0 0
-0.0307573 0.00602441 -0.021856
0 0 0
-0.0062229 0.0103587 -0.00893038
-0.36465 0.163844 -0.177252
0 0 0
0 0 0
0 0 0
0.00546199 0.249544 -0.0216805
-0.107375 0.309363 -0.0165837
-0.180869 0.124989 0.225725
-0.00097072 -0.130257 -0.145852
0.00230691 0.237109 0.198572
0.0225888 0.0476653 0.0761315
0 0 0
0.0561856 0.237205 -0.0846064
0 0 0
-0.001036 0.24658 -0.00287119
0 0 0
-0.00348726 0.213369 0.0717649
-0.00709119 0.0170041 -0.00753234
0.00290543 -0.0747442 0.00524974
0 0 0
0.241695 -0.30802 -0.0290031
0 0 0
0 0 0
0 0 0
0.138888 0.0145254 -0.0410753
0 0 0
0.173861 0.0375919 -0.204509
-0.0773412 -0.0505046 0.0389185
0.0454122 0.45462 0.131859
-0.409336 0.476767 -0.292984
0 0 0
-0.310723 -0.150059 -0.00172892
0.0127873 0.0578478 0.0758686
0.0204791 0.0190297 0.282945
0 0 0
0 0 0
-0.0242786 0.0693859 0.0476387
-0.065554 0.145222 0.126616
-0.000405548 0.177682 -0.181079
-0.165686 -0.163569 0.0423396
0.0205602 -0.0551068 -0.0963181
0.118688 -0.110506 0.200312
-0.145008 -0.144019 0.0858203
-0.00226728 -0.139223 -0.228664
0.0944347 -0.0804623 0.033496
0 0 0
-0.109736 0.294244 0.316498
-0.249973 -0.141381 -0.121935
0 0 0
0.105769 0.543557 0.330796
0.00240904 0.0752718 -0.0782337
0.150952 -0.307554 -0.32047
0.25185 -0.214667 0.0890042
0.092902 0.127598 -0.169956
0.0132135 -0.0664238 -0.189938
0 0 0
0.195432 -0.0177432 -0.0449989
0 0 0
0.00182842 -0.116935 -0.313604
-0.163215 0.159351 -0.0598307
-0.0336076 0.24107 -0.0137607
-0.249855 0.111837 0.0834502
0.049292 0.146686 -0.123572
-0.10294 0.263592 -0.0203164
-0.0579247 0.111337 0.0446955
-0.0466429 -0.0657927 0.0682458
-0.0492927 0.00903348 0.120124
0.228756 0.161726 -0.0860059
0 0 0
0 0 0
0.00285549 0.271031 0.116474
0.109567 -0.0633223 0.0594542
0.173934 -0.14795 0.364216
0 0 0
0.153704 -0.011008 -0.120764
0.241647 -0.00854289 0.0285492
0.200508 0.227599 -0.314103
0.131581 0.116968 -0.0425138
0.269275 0.164811 -0.0581919
-0.0165879 0.0257818 0.0816204
0 0 0
0 0 0
0 0 0
0.0914452 -0.109321 -0.0343494
-0.0020688 -0.00899135 -0.0632083
-0.100167 0.184753 0.104354
0.165552 0.101322 -0.230833
-0.343716 0.054972 0.265119
0 0 0
0 0 0
0.114326 -0.177993 0.0116149
-0.304134 0.204325 -0.599755
0 0 0
0.0814448 0.0214646 -0.000673343
-0.0215428 0.00816721 0.0174556
-0.0949465 -0.0121216 0.101487
0 0 0
0 0 0
0.171679 -0.14504 -0.128748
-0.180159 0.287459 0.0911505
0 0 0
0.150251 0.0824262 -0.000949526
0.0650065 0.0140549 -0.0182285
0.117524 0.430561 0.354476
0 0 0
-0.393525 0.430382 -0.156723
0 0 0
-0.129044 0.382416 -0.384761
0 0 0
-0.346124 0.442101 -0.00344482
-0.1877 -0.128011 0.038619
-0.25347 -0.167913 -0.215182
0 0 0
0 0 0
0.0438836 0.0160387 0.055728
0 0 0
-0.128565 -0.0633546 -0.264562
0 0 0
-0.165699 0.002982 0.168559
-0.105013 -0.0306396 0.000108914
0.0251319 -0.0357719 0.0317385
0 0 0
-0.128001 0.0696227 0.0977252
0 0 0
0 0 0
-0.290973 0.314293 -0.173365
-0.491333 0.433331 -0.124132
0 0 0
-0.236615 0.266486 0.00132012
-0.232915 0.141748 -0.121985
-0.140159 0.0483149 -0.0604616
-0.0543281 -0.0712087 -0.000946533
-0.0475093 -0.00713344 -0.0317319
0 0 0
-0.153757 -0.18932 -0.00429074
-0.209842 0.369896 0.0853123
0.0105955 0.0840217 0.0182444
0.0196674 0.282105 0.0946953
-0.0632177 -0.196542 0.016689
0 0 0
0 0 0
-0.00349212 0.10538 -0.0226832
-0.161198 -0.0154034 -0.0273097
-0.0347385 -0.0235878 -0.154929
0 0 0
0 0 0
-0.0610611 -0.157959 0.368163
0 0 0
-0.355139 -0.0206062 -0.335286
-0.0104767 0.261571 -0.088959
-0.132696 -0.00509783 -0.00789361
-0.0642335 0.251424 -0.0562563
-0.16681 0.000692227 -0.0489496
-0.00343473 0.0592596 -0.103009
0 0 0
-0.00690192 0.419094 0.295658
0.0260201 0.036748 0.24538
-0.00227757 0.0902838 -0.150923
-0.0894303 -0.0473542 0.00736696
0.042337 0.0380341 0.186426
0.424835 0.0201024 0.0728232
0 0 0
0 0 0
-0.0293357 -0.185888 -0.0748999
0.180846 0.0840068 -0.0914167
0.0122116 0.0228339 0.0105136
0 0 0
0 0 0
-0.282374 0.188214 -0.130245
-0.00121265 -0.0440118 -0.158882
0.0488149 -0.159209 0.121517
-0.0487252 -0.0343844 -0.0236152
-0.0663622 0.0392932 0.104284
-0.00420906 -0.00265745 0.000126652
-0.012583 0.0534133 0.000811642
-0.308093 -0.195112 -0.395259
-0.0400983 0.0137022 0.01043
-0.444184 0.095552 0.0941933
0 0 0
0.0539686 -0.158349 0.0962303
0 0 0
-0.26514 -0.196164 0.197595
0 0 0
-0.103322 0.0635059 -0.134256
-0.0222427 -0.0633206 0.106028
0.0318864 -0.0627936 0.268801
0.00032262 0.043096 -0.0511815
-0.2262 0.149021 0.0156812
0.0196021 -0.143412 -0.0780211
-0.0767014 -0.133646 -0.000397219
0 0 0
0.00119398 0.0797985 0.211381
-0.0427843 -0.184447 0.196788
0.390242 -0.264165 0.131511
0.490003 -0.559427 0.0544596
0 0 0
0.201397 0.187705 -0.27811
0.136468 -0.022765 -0.0430693
0 0 0
0.0919542 0.0346044 -0.00198985
0.123515 -0.229638 0.0515438
0.0989723 -0.0887495 0.195735
-0.101182 -0.0308957 -0.253666
0 0 0
-0.0409092 0.0735045 0.0668991
0 0 0
0.305192 0.161975 -0.25386
0 0 0
0.384941 0.183658 0.154606
0.0122908 0.033441 -0.00485374
-0.0480606 -0.0300703 -0.000708414
-0.0145078 0.0358999 -0.116014
0.14503 -0.187087 0.0497046
-0.00263098 0.118176 -0.152174
-0.0929539 -0.179264 -0.0366345
-0.0795749 -0.472428 0.118987
0 0 0
-0.198029 0.0535652 -0.0867487
-0.000795857 0.0784739 0.00734093
0.241716 -0.00468356 -0.283408
0.101553 0.346444 0.147181
0.227198 -0.304367 0.0645844
0.180611 -0.0345648 -0.0116961
0.418562 -0.0612655 0.0436313
0.194493 -0.00324694 -0.215138
0.212809 -0.00420779 0.500903
0.0505945 0.0278267 -0.00783071
0.149449 -0.128927 0.101847
0 0 0
0.0290682 -0.263341 -0.00182784
0 0 0
-0.141195 -0.0586759 -0.158986
-0.021629 -0.0132808 0.00301221
0 0 0
-0.00115506 0.0332142 -0.00446837
0 0 0
-0.102248 0.203908 0.00346814
-0.0551268 -0.134394 -0.0103292
-0.100975 -0.197597 0.165356
0.0985897 0.0927382 0.162661
0.0895104 -0.0352077 0.336189
0 0 0
0.132785 0.465268 -0.0015419
-0.000445683 0.0414732 0.0748968
0.18417 -0.19695 0.1192
0 0 0
0.314694 -0.0166979 0.168446
0.165183 0.0702089 -0.140859
0.0838837 0.176571 -0.0378478
0.0770136 -0.107463 -0.211755
0 0 0
0 0 0
0 0 0
0 0 0
0 0 0
0 0 0
0 0 0
0 0 0
0 0 0
0 0 0
0 0 0
0 0 0
0 0 0
0 0 0
0 0 0
0 0 0
0 0 0
0 0 0
0 0 0
0 0 0
0 0 0
0 0 0
0 0 0
0 0 0
0 0 0
0 0 0
0 0 0
0 0 0
0 0 0
0 0 0
0 0 0
0 0 0
0 0 0
0 0 0
0 0 0
0 0 0
0 0 0
0 0 0
0 0 0
0 0 0
0 0 0
0 0 0
0 0 0
0 0 0
0 0 0
0 0 0
0 0 0
0 0 0
0 0 0
0 0 0
0 0 0
0 0 0
0 0 0
0 0 0
0 0 0
0 0 0
0 0 0
0 0 0
0 0 0
0 0 0
0 0 0
0 0 0
0 0 0
0 0 0
0.0616297 0.129176 -0.022926
-0.0435446 0.0593964 0.0568271
0 0 0
-0.259439 0.0616247 -0.143833
-0.0632363 -0.013429 -0.0859398
0 0 0
-0.0281114 -0.00532025 -0.10655
0.0239655 0.169242 0.103397
0.0856571 -0.22538 -0.122982
0.0451569 -0.0630524 0.0309802
0.00351231 -0.0549489 -0.0579597
-0.0332512 -0.0186057 0.0708257
0.0404087 0.0431514 0.0378331
0.00152932 0.0376423 0.0243559
0.0139366 -0.00475846 -0.0337506
0.0630867 -0.268927 -0.0699485
0.0915218 0.157169 0.0296561
-0.0707178 -0.239408 -0.0388199
0 0 0
0.178682 -0.0113735 -0.0576047
0.128536 0.115856 -0.177003
0.0145747 -0.0284411 0.048187
0.0307579 -0.0482287 -0.0497734
-0.0580566 -0.247017 -0.186141
-0.000315993 0.086636 0.14514
0.124558 0.103422 0.0549376
0 0 0
-0.0956351 -0.0451985 -0.0787016
0.0145495 0.0871802 -0.0665882
-0.0086499 -0.127723 0.041455
-0.00881779 0.0203819 -0.0633492
0.0648158 -0.0461383 0.075892
0.00654951 0.0123246 -0.0211369
0.022741 0.0712942 -0.00891635
-0.00152118 0.0447404 0.077453
0.217165 -0.0340831 -0.12151
0.103543 0.143524 0.141398
-0.000384733 -0.11373 -0.0642241
0.0394583 -0.0102529 0.0252148
-0.003792 -0.0476874 -0.115591
-0.0758997 0.150895 0.12335
-0.062962 -0.00669802 -0.025754
0.0091505 0.081453 -0.311249
0.0156174 -0.0879448 0.294538
0.071452 0.00258573 -0.0410958
0 0 0
-0.047277 0.107297 -0.104691
-0.102786 -0.047459 -0.0469046
-0.0854352 0.0388183 0.116022
-0.0420394 -0.0258084 -0.0272071
0 0 0
-0.0798785 -0.0066467 -0.0175348
0.0962644 -0.0512443 0.0714437
0 0 0
0.002262 -0.005614 0.156196
0.0632571 -0.0343318 -0.288344
-0.002947 0.01196 0.247107
-0.0584756 0.0587172 -0.0184003
0 0 0
-0.0297527 0.0463188 0.052816
0.0865953 -0.0692778 -0.0131327
-0.00287982 0.0382137 0.0550259
-0.081155 0.0402871 -0.0507704
0 0 0
-0.0458833 0.330638 -0.0402877
-0.0107607 0.00714717 0.0303013
0 0 0
-0.0513509 0.273561 0.336869
0.0693247 0.125047 0.0930746
0.013778 0.030374 -0.119654
-0.0994423 0.0588752 -0.097709
0 0 0
0.0178482 -0.246401 0.189407
0 0 0
-0.00715886 -0.236536 -0.0273241
-0.193092 -0.0859291 -0.0896791
-0.0951511 0.0822486 0.293527
-0.337822 0.0061677 -0.201966
-0.500015 0.0834088 -0.0360516
-0.259407 0.00652509 0.327583
-0.0399474 0.0528967 -0.134829
-0.240406 0.267835 0.416175
-0.00189979 0.25592 5.94056e-05
-0.10353 0.107391 0.0925089
0 0 0
0.15861 -0.107163 -0.19954
0.034377 -0.0184903 0.402863
-0.0173229 0.000203775 0.0694893
-0.0463594 0.174845 0.111449
-0.193791 0.326831 -0.434728
-0.000268209 0.104064 0.0116518
-0.154715 -0.217345 0.0620868
0.0595391 0.134925 -0.0343391
0 0 0
-0.155235 0.170765 -0.368076
-0.108733 -0.151747 -0.0798075
-0.0329103 -0.00423481 -0.0300623
0 0 0
0.35483 0.242185 0.0928357
-0.0530732 -0.233798 -0.0350552
-0.00522867 0.0225206 -0.01947
0.292959 0.101536 -0.133583
0.0932748 0.0197422 0.112807
0 0 0
0.235648 -0.354776 0.0166638
0 0 0
0 0 0
-0.00618809 -0.258435 0.231955
0 0 0
0.0970071 -0.0876321 0.0438877
0 0 0
-0.0688329 -0.048698 0.36086
0 0 0
0 0 0
-0.0543964 -0.193207 -0.0465738
-0.00112101 -0.112226 0.219027
-0.0404753 -0.464698 -0.0454699
0.0475965 -0.00024596 0.165461
0 0 0
-0.000341787 0.00507812 0.0561351
0.000842294 0.239604 -0.00151408
0.0174773 -0.300204 0.117455
0.00340658 -0.0579943 0.136832
-0.209203 -0.157199 0.236523
-0.156771 -0.148776 0.00227049
-0.300537 0.0489123 -0.2737
0.0231967 0.0651087 0.0188773
0 0 0
0.000542448 0.164143 0.103033
0.261577 -0.26441 -0.334755
0 0 0
0 0 0
0.316352 0.12248 0.0296795
0.0371861 0.108496 0.0981198
-0.195216 -0.488545 -0.401016
0.0736734 0.117747 -0.202491
0 0 0
0.0578401 -0.0602726 0.127342
0.102228 0.0158116 0.0309175
-0.0132706 -0.00225126 0.0797897
-0.0980062 -0.0168757 -0.318308
0.000990171 -0.113702 0.0318493
0.00988338 -0.53906 -0.146445
-0.206206 -0.126337 0.211421
-0.00823659 0.0030213 0.00452701
0.110207 0.12887 -0.283353
0 0 0
0.082859 0.088008 -0.0719973
0 0 0
0.340342 0.394727 -0.365777
0 0 0
-0.0216729 0.283799 -0.365753
0.167439 0.103174 -0.162076
0.131075 0.121591 -0.42581
-0.0354122 -0.0149487 -0.0274739
-0.170119 0.110734 -0.142414
0 0 0
0 0 0
0.00984809 -0.000923273 -0.00755268
0.167668 -0.171046 -0.447043
-0.0290686 -0.0184077 -0.0201437
-0.212055 -0.00193315 0.252215
0 0 0
-0.000184811 -0.00574608 -0.00163703
-0.00578211 -0.251821 -0.087232
-0.0248221 0.0372366 -0.0387819
0.0725286 -0.0194803 -0.23813
0.00980234 -0.00183494 -0.00533846
0.299965 0.232089 -0.112161
-0.00904556 -0.011238 0.0395373
0.091953 0.329326 -0.106025
0.0162067 0.0346326 0.00625747
0.202397 0.00237391 -0.0324985
-0.00658985 -0.00830627 -0.00449898
-0.141205 -0.315117 0.087943
-0.135723 -0.00119244 0.0152156
0.0316502 0.00518938 -0.115662
-0.0726945 0.194553 -0.0904883
0 0 0
0.0546208 0.238088 0.0791641
0 0 0
0.486353 -0.0112577 0.293076
0.46285 -0.21103 0.118055
0.167529 -0.0154613 -0.0167522
0.303489 0.139589 -0.128935
0.0637005 -0.151087 -0.089202
0.240002 0.0780366 -0.153215
0 0 0
0 0 0
0.108265 0.258395 -0.138912
0.123289 0.0489535 0.227522
0.197509 0.109588 0.0646609
-0.133551 -0.00642284 -0.00839991
0 0 0
-0.405237 -0.0828798 0.172303
0 0 0
0 0 0
0 0 0
-0.0464238 -0.0124165 -0.0479513