<?xml version="1.0"?>
<VTKFile type="RectilinearGrid">
<RectilinearGrid WholeExtent="0 32 0 32 0 32" Origin="0 0 0" Spacing="1 1 1">
<Piece Extent="0 32 0 32 0 32">
<PointData>
</PointData>
<Coordinates>
<DataArray type="Float32" format="ascii">
0 0.524874 1.04975 1.57462 2.0995 2.62437 3.14924 3.67412 4.19899 4.72386 5.24874 5.77361 6.29849 6.82336 7.34823 7.87311 8.39798 8.92285 9.44773 9.9726 10.4975 11.0224 11.5472 12.0721 12.597 13.1218 13.6467 14.1716 14.6965 15.2213 15.7462 16.2711 16.796 
</DataArray>
<DataArray type="Float32" format="ascii">
-5.03879 -3.62163 -2.20447 -0.787311 0.629849 2.04701 3.46417 4.88133 6.29849 7.71565 9.1328 10.55 11.9671 13.3843 14.8014 16.2186 17.6358 19.0529 20.4701 21.8872 23.3044 24.7216 26.1387 27.5559 28.973 30.3902 31.8074 33.2245 34.6417 36.0588 37.476 38.8931 40.3103 
</DataArray>
<DataArray type="Float32" format="ascii">
0 0.524874 1.04975 1.57462 2.0995 2.62437 3.14924 3.67412 4.19899 4.72386 5.24874 5.77361 6.29849 6.82336 7.34823 7.87311 8.39798 8.92285 9.44773 9.9726 10.4975 11.0224 11.5472 12.0721 12.597 13.1218 13.6467 14.1716 14.6965 15.2213 15.7462 16.2711 16.796 
</DataArray>
</Coordinates>
<CellData>
<DataArray type="Float32" Name="Vector" NumberOfComponents="3" format="ascii">
0 0 0
0 0 0
0 0 0
0 0 0
0 0 0
0 0 0
0 0 0
0 0 0
0 0 0
0 0 0
0 0 0
0 0 0
0 0 0
0 0 0
0 0 0
0 0 0
0 0 0
0 0 0
0 0 0
0 0 0
0 0 0
0 0 0
0 0 0
0 0 0
0 0 0
0 0 0
0 0 0
0 0 0
0 0 0
0 0 0
0 0 0
0 0 0
0 0 0
0 0 0
0 0 0
0 0 0
0 0 0
0 0 0
0 0 0
0 0 0
0 0 0
0 0 0
0 0 0
0 0 0
0 0 0
0 0 0
0 0 0
0 0 0
0 0 0
0 0 0
0 0 0
0 0 0
0 0 0
0 0 0
0 0 0
0 0 0
0 0 0
0 0 0
0 0 0
0 0 0
0 0 0
0 0 0
0 0 0
0 0 0
0.111188 0.0916805 -0.141781
-0.00778282 -0.101914 -0.0675294
0.0102887 0.0336241 0.0548709
0.351859 -0.298791 -0.0541584
0.031614 -0.00550262 -0.0122035
0 0 0
0.278626 -0.0614081 0.00131762
-0.00357691 -0.0866262 -0.10346
0.000969204 0.0465925 0.0341104
-0.0612427 -0.234487 -0.0338855
0 0 0
0.0807247 0.0805361 -0.0526291
-0.0102459 0.147726 -0.0042306
0 0 0
0.0479947 -0.26834 -0.0573919
-0.0348596 0.18926 -0.0676468
-0.0961287 -0.0743145 0.0359321
0.00378771 -0.0882624 -0.044711
0 0 0
0.043423 -0.0118416 -0.00331869
0.0484913 0.0384075 0.00319549
0 0 0
-0.194186 -0.0312654 0.0415794
-0.0589286 -0.0151609 -0.036132
0.0128437 -0.0576428 0.0015189
0.091766 0.223568 -0.100923
0 0 0
0.199533 -0.0826278 -0.0279911
-0.0422222 0.100561 -0.0456739
-0.00551041 -0.0114912 0.0114755
-0.0773794 0.00292059 -0.0743824
0.0948967 -0.0101991 0.143568
0.158597 -0.0301145 -0.1035
0.057666 0.00244164 -0.0800915
0.00893557 -0.00805124 -0.0642437
-0.137015 0.305248 0.00478981
-0.0567687 0.0264148 -0.0282363
0 0 0
0.0469107 0.0128327 0.0715127
0.0134469 -0.0561074 0.0349309
0.00107703 0.0960196 -0.0252205
-0.0920872 -0.068362 0.0349242
0 0 0
-0.0115692 -0.0135609 0.0316884
0.1627 -0.04392 -0.0172297
0 0 0
0.0738177 -0.0271625 0.0560167
-0.0540425 -0.014624 -0.00976956
-0.0297669 -0.252276 0.0103285
0 0 0
0 0 0
-0.0678925 -0.0422855 0.0586508
-0.121161 -0.0306882 -0.0691463
-0.00138884 0.00611002 0.0112954
0.137557 -0.0561527 -0.0148471
0.0351897 -0.0540227 -0.066928
0.0655702 -0.0440297 0.0880069
-0.333024 0.229694 0.00699532
0 0 0
0 0 0
0.235491 0.0390221 0.00105039
-5.53395e-05 0.0143749 -0.00932474
-0.0366678 -0.0775108 0.0993367
0.198106 -0.00419004 0.0835627
0 0 0
0.0357346 -0.179239 0.0614525
-0.0705989 0.136137 0.255659
-0.188138 -0.0739214 -0.000254194
-0.171361 0.0940121 0.0186169
0 0 0
-0.0671096 0.0373499 0.000697729
-0.0547845 -0.0807656 0.00655902
-0.0798953 -0.18355 0.332719
0 0 0
-0.084306 0.0367894 -0.0684907
-0.238969 -0.123037 -0.000231679
0.24926 -0.178939 0.253056
-0.105512 0.11668 0.182856
0.064085 0.00120493 0.0616954
0.0790356 0.00611073 0.039005
0.0439597 0.275278 -0.0370539
0.197785 0.0247907 0.0349538
0.199106 -0.142432 -0.0748992
-0.0244711 0.0129794 -0.190485
-0.00919831 -0.128553 -0.323008
-0.151353 -0.0513548 -0.164102
-0.206733 -0.133789 0.231091
0.0876125 -0.204761 -0.0106332
0.0484194 -0.123914 5.63296e-05
-0.138709 0.0626448 -0.181309
-0.0997245 0.0766374 -0.00024927
-0.101824 0.30483 -0.0121159
-0.184496 -0.150989 -0.359969
0 0 0
-0.044781 -0.108376 -0.171165
-0.253762 0.135458 0.0640541
-0.0200085 -0.0196297 -0.0216755
-0.437071 -0.236696 0.0620696
-0.0549151 -0.0957536 -0.00297649
-0.386516 0.405835 -0.132941
-0.200707 0.438885 -0.0836122
0.00174913 0.00354255 -0.0010702
-0.258495 0.00264554 0.093213
0.0103145 0.0720184 0.0407156
0 0 0
0.00295698 0.0662121 -0.183209
0.322041 0.186523 0.239776
0 0 0
0.0400775 0.199562 0.0492339
0 0 0
0.0411586 -0.0752507 0.0861144
0.221405 0.216406 -0.131446
-0.010419 -0.001411 -0.0967955
0.0408678 -0.0316829 -0.145537
-0.19115 -0.131673 0.266267
-0.0868934 0.0149472 -0.171424
-0.0175596 -0.0760146 -0.0287679
0.143154 0.00544241 -0.207247
0 0 0
-0.142633 -0.0152602 -0.120541
-0.00570042 0.0277715 0.0279992
-0.084705 -0.0815605 -0.00502204
-0.0540637 0.00466532 0.0127961
-0.258954 0.118181 0.050701
-0.113124 -0.163832 -0.152557
0.00639381 -0.246648 0.0970573
0 0 0
-0.0845024 -0.0417816 -0.105635
0.01289 -0.0975073 -0.270772
-0.159166 -0.0943296 -0.177084
-0.164209 -0.0272519 -0.00240328
-0.31257 0.260954 -0.0312821
-0.207355 -0.0022294 0.0399273
-0.0508694 0.093472 -0.185521
0 0 0
-0.00621722 -0.0149271 0.0315934
0.00200495 0.072233 -0.0318046
0.0945917 0.194417 0.0913622
0.107195 -0.196841 -0.215017
0.234627 0.163201 -0.00597675
0.0993171 -0.0531983 0.0412191
-0.307474 -0.339499 -0.41635
0 0 0
0.00117892 -0.215279 0.250909
0.396933 -0.318632 0.0925131
0 0 0
-0.00136909 -0.00935846 -0.000566011
0 0 0
-0.013946 -0.19361 -0.0873824
-0.00844974 -0.176184 0.0929017
-0.0237347 -0.202758 0.0621495
-0.0296596 0.0296382 -0.0302237
-0.378981 -0.0126633 -0.0666427
-0.00338304 -0.012409 -0.0336256
-0.28925 -0.0297211 -0.114526
0 0 0
0 0 0
-0.0635962 0.0557738 0.0793373
-0.0634495 -0.239943 -0.194044
0 0 0
-0.437807 0.167632 0.238505
-0.223503 -0.0739601 0.148065
-0.118326 0.0593261 0.115099
-0.0406559 -0.0478657 0.213485
-0.044514 -0.00639124 0.0314816
-0.176871 0.108257 -0.458868
-0.161776 -0.0370978 -0.130651
-0.00468546 -0.00920601 -0.0218729
0.027494 -0.31573 -0.388416
-0.00702504 0.11322 -0.0384867
-0.136225 0.0599364 -0.14606
-0.0548923 -0.0060645 -0.0765498
0 0 0
0.373575 -0.0800649 -0.0787302
0.10782 -0.05801 0.0834514
-0.0293928 0.00802727 0.0172462
0.155533 -0.0352364 -0.0399301
-0.0822062 -0.0576727 -0.0873147
0.261509 -0.0514934 0.0131755
0.192287 -0.141233 0.232267
-0.260785 -0.241217 -0.0868989
0.0843438 -0.0290867 0.0244182
-0.0380865 0.147932 -0.326702
-0.21854 0.0489306 -0.208787
0.023244 -0.0365465 0.0394624
-0.0287201 0.00153023 0.0141131
0.143196 0.0336833 0.108884
0.0777204 -0.03873 0.00319475
0.409382 -0.123474 0.163693
-0.0718445 0.0447603 -0.347952
-0.0787771 0.0862575 -0.215084
0 0 0
-0.00409991 0.350434 -0.210371
0 0 0
-0.0369059 -0.225007 0.00372967
0 0 0
-0.197782 0.0161293 0.101537
-0.0272519 0.0571117 -0.0301599
-0.059874 -0.0790065 0.129151
0 0 0
-0.157324 0.0569252 0.00142264
0.0570823 -0.0220922 -0.0330435
0.199801 -0.636064 -0.282115
0.243831 0.0648033 -0.111627
0.104279 0.125405 -0.0583889
-0.124355 0.117623 0.0195219
0 0 0
0.0690462 -0.642939 -0.00460995
-0.0128922 -0.152579 -0.113638
-0.271785 0.529674 0.470997
0 0 0
0.15735 0.182466 -0.0544167
0.227089 -0.139597 -0.0752197
0.221775 -0.101525 -0.0393337
0.221974 -0.0730829 -0.0718841
-0.0339252 0.0813869 0.040368
0.306061 -0.30132 0.193689
-0.188805 -0.0841098 0.0688029
0.0690891 -0.0302822 -0.00924162
0 0 0
-0.0665568 0.0547601 0.076588
0.0169048 0.000603704 0.0417026
0.0483884 0.151415 0.0451374
0 0 0
-0.065352 0.29451 -0.00380753
0.238355 -0.18808 -0.174787
0.0547707 -0.115824 0.0686408
-0.00337933 0.246977 -0.0881353
0.249699 0.34362 0.19428
0.0744416 0.131649 0.0773937
0 0 0
0.0839168 0.215376 0.00179006
0 0 0
0.00752286 0.00503958 0.00748695
-0.137034 0.039525 -0.162221
0.029346 0.0620859 -0.0559841
0.298034 0.23719 0.346659
0 0 0
0.24005 -0.358757 -0.160226
-0.120556 0.237469 0.156546
-0.268117 0.631877 -0.212584
0 0 0
0.119644 -0.0339538 0.039787
0.439115 0.0683808 -0.0193583
-0.108192 0.102967 0.116309
-0.0411639 -0.123041 0.186417
0.241634 -0.252596 -0.261826
0.0664019 -0.145277 -0.0683117
-0.0201412 -0.0324463 -0.0105822
-0.213928 0.150868 0.15113
0 0 0
-0.163579 0.152816 0.213199
0.00640115 -0.0415411 0.00444462
0.0187893 -0.116136 0.0103125
0.0691158 0.0733822 0.222461
0.114018 0.0681807 0.174341
-0.204148 0.24756 0.161601
-0.248892 -0.272344 0.0782134
-0.0727185 0.157206 -0.0179705
0 0 0
-0.0120654 -0.0655259 -0.00102373
0 0 0
-0.19685 -0.126526 0.333884
-0.0546207 0.063732 -0.10848
-0.36926 0.105236 0.0296306
-0.0325835 0.0986788 -0.0868609
-0.0658173 0.0628651 0.0255494
0 0 0
0 0 0
0.283929 -0.294971 0.214056
0 0 0
0.120621 0.363368 -0.0082665
0.19284 0.263646 -0.204658
0.204027 -0.219523 0.0488354
0.211067 -0.601152 0.11512
0 0 0
0.000214103 -0.0215197 -0.0963751
0.00416375 -0.00774722 0.00150294
-0.000723227 -0.468756 -0.0181185
0 0 0
0.071678 -0.0125137 -0.0592846
0.00141304 -0.167091 0.261245
0.000799691 0.0242693 0.003469
0.16491 -0.171418 -0.197339
-0.00234452 -0.0361239 0.0176118
-0.105349 0.23558 0.0909608
0.0206404 0.125167 -0.0773211
-0.163916 0.0484756 -0.0774564
0 0 0
-0.198818 0.0104039 -0.244351
0 0 0
-0.148804 0.256972 0.158639
0 0 0
-0.16199 -0.0757816 -0.0543709
0 0 0
0.0203954 -0.105323 0.100266
-0.0658838 -0.0376404 0.0286087
-0.446982 0.0345741 -0.211801
0 0 0
-0.227331 -0.461139 -0.428203
0 0 0
0 0 0
0.0331757 -0.350085 -0.149587
-0.103443 0.0735973 -0.188123
-0.253862 0.116821 -0.00875195
0 0 0
-0.0249699 -0.28799 -0.768768
0.116884 0.0943632 -0.215383
0 0 0
0.0350982 -0.237695 -0.0443473
0 0 0
-0.0716352 0.000469253 0.0197274
-0.269533 0.1277 -0.0995183
-0.20689 0.107402 -0.114747
0 0 0
-0.0921431 -0.32588 0.0592114
0 0 0
-0.210071 0.384962 -0.130178
0 0 0
-0.00252819 0.00480525 0.000248411
0.179582 0.393189 -0.0446991
0 0 0
0 0 0
-0.0454879 -0.24097 -0.108491
-0.0698583 0.00255482 -0.00260013
0 0 0
0.0596827 0.00611643 0.000520384
0 0 0
-0.0020506 -0.10417 6.74048e-05
-0.374296 0.22052 -0.0465372
0 0 0
0.000826177 -0.0057542 -0.0528715
0 0 0
0 0 0
-0.0567219 -0.0522338 -0.117479
0.0216338 0.00650355 -0.00104583
0.0915986 -0.10663 -0.0714359
0.459083 -0.418911 0.0389535
0.144063 -0.136439 -0.0509846
0.142176 0.410653 0.350388
0.40813 0.185711 0.0382828
0 0 0
0.0292746 0.0400913 -0.302946
-0.0108137 0.112103 -0.0164464
0.160078 -0.0217295 -0.0747593
0 0 0
0.0941107 -0.0891393 -0.0201869
0.0314373 -0.435959 0.115382
-0.00250418 0.172042 -0.0307767
0.0107432 0.20188 -0.38393
-0.0708311 0.0843165 0.12822
0.0942333 -0.111738 0.0995449
0.153969 -0.0180829 0.118447
0.145279 -0.0170959 0.0075234
0.162438 -0.182957 -0.0207269
0.107736 0.114622 0.102353
-0.0811452 0.409373 -0.0126651
0.0016265 -0.14228 0.208995
-0.0561271 -0.206764 0.110777
0.00255392 0.233848 -0.338231
0.000815601 0.0319763 0.0237846
0.0299684 -0.331949 0.360893
0.0870665 0.023807 0.0383932
-0.199918 -0.00687099 -0.0737729
0 0 0
-0.0289764 0.036153 0.328718
0.174188 0.046529 0.00352573
0 0 0
-0.0541159 -0.0756806 -0.151362
-0.44315 -0.314864 0.0143774
0.118241 -0.0482815 -0.416474
-0.152435 -0.272725 -0.103574
-0.0908818 0.0655454 -0.130105
0.114839 -0.0731528 -0.0195483
0.206534 0.0228211 -0.154555
0.233284 0.26308 0.116105
-0.274329 0.342986 0.0558941
0.183951 -0.219649 0.181212
0.108413 -0.637895 -0.438694
0 0 0
0.177734 0.215881 -0.261842
0 0 0
0.181377 0.0347404 0.00269962
0.140562 0.0359323 0.00318403
0.227013 -0.234355 -0.28459
0 0 0
0.332494 -0.289639 -0.106459
0.0437713 -0.0746922 0.000216047
0 0 0
0.26569 0.064313 0.056146
-0.167719 0.0185681 0.0270214
0 0 0
0.145088 0.273135 -0.138725
0.290282 -0.144387 -0.164027
0.0570124 -0.416028 -0.119539
0.00344113 -0.105664 -0.0165459
-0.0895912 -0.160332 0.216272
-0.147789 -0.0859176 -0.0150953
-0.137728 -0.0648913 -0.0639603
-0.186541 -0.0336028 -0.00903613
0 0 0
0 0 0
-0.121373 -0.184235 -0.0142061
0.0498077 0.183206 -0.0704411
0 0 0
-0.227076 -0.0845957 0.00140545
0 0 0
0.383412 0.124389 -0.062468
0.243306 -0.0161208 -0.0444153
0.00048451 -0.0084497 -0.0145293
-0.054419 -0.431724 0.280593
0.490815 -0.271753 0.280939
0.00874611 -0.35766 0.219238
0 0 0
-0.40794 -0.115651 -0.10375
0.525225 0.149044 -0.05723
-0.307583 -0.129781 0.0658254
-0.310642 -0.256884 -0.0627827
0 0 0
-0.00926485 -0.174034 -0.0362978
0.0327393 0.0128057 0.0678194
0.0459554 0.0499647 -0.159419
0.335117 0.0921862 0.261548
0.521936 0.191517 -0.141803
0.119139 0.0996989 0.0827873
0.0724091 -0.0030846 -0.0705721
0.0325196 -0.0413127 -0.135282
0.0794116 -0.0881825 0.0383615
0 0 0
-0.29402 0.306984 0.231056
-0.119813 -0.0043895 -0.0365796
0 0 0
0.23903 0.0720258 -0.0025277
0.0182301 0.0396292 -0.208493
0.00788805 -0.118619 0.230124
-0.244743 0.128026 0.00951976
0.0655693 -0.0705002 0.00807867
0.175769 -0.0440095 0.0428119
-0.190353 0.0424125 0.266682
0 0 0
0.00874711 0.174876 0.0215303
0.0677562 -0.205268 0.258427
0 0 0
0 0 0
-0.148964 -0.00605907 0.0856033
-0.154603 -0.0492013 0.419938
0.033249 -0.0268335 0.0767655
0.102717 -0.0140425 -0.272084
0 0 0
0.083539 0.0925245 0.154235
-0.12005 -0.141817 0.00164998
0 0 0
0 0 0
-0.00209909 0.000478711 0.0371553
-0.133058 0.0740322 -0.00591484
0.0447215 -0.0724586 0.0699678
0 0 0
0.1878 -0.0553988 0.0329183
0.0485935 0.0400304 -0.0111339
0.0896742 0.163814 0.0395768
0 0 0
0.151674 0.207281 -0.193364
-0.0196758 0.100489 -0.00159997
0 0 0
0 0 0
-0.122609 -0.520546 -0.146693
0.0185066 -0.136414 -0.0366526
-0.0560935 -0.188257 -0.0691676
0.204055 0.01123 0.223388
0.174024 0.0223408 -0.249306
0.0530896 0.0262208 0.256639
-0.211967 -0.0705418 0.148044
-0.00506216 -0.00804799 -0.00252249
-0.0139699 -0.0198719 -0.0290173
0 0 0
-0.0453801 -0.0765143 -0.14955
-0.217964 0.28014 0.118461
-0.132718 -0.117836 -0.52448
0 0 0
0 0 0
-0.00364099 -0.0461245 -0.0281715
0.0156702 0.0938877 0.211022
0 0 0
-0.204382 -0.0361287 -0.160797
-0.118093 -0.208519 -0.36593
0 0 0
0.318213 -0.375548 0.0509241
0 0 0
0.139058 -0.182462 0.257371
0.0157637 0.125543 -0.153134
0.0285559 0.03899 -0.00264083
0.0164086 -0.0186837 0.013145
-0.267913 -0.159867 0.279626
-0.026511 -0.115993 -0.117617
0 0 0
-0.220351 -0.118959 -0.039155
-0.0566381 0.149016 -0.0633437
-0.0945161 0.0841514 -0.0348506
0.0318862 0.327717 -0.060038
-0.00359666 -0.000967779 -0.331262
0 0 0
-0.0764483 0.0450142 0.003058
0 0 0
0.257865 0.252026 0.615447
-0.00144023 0.022997 0.0186713
0.0701015 -0.0551755 0.342244
0 0 0
-0.283236 -0.382148 -0.172924
0 0 0
-0.0886054 0.0860584 -0.261699
-0.195723 0.13469 -0.170943
-0.0410238 -0.248957 -0.0781745
0.255531 -0.144423 -0.0696424
0.0195735 -0.00312121 -0.0191877
0.318424 -0.108678 -0.324621
0.128895 -0.0277791 -0.147475
0 0 0
-0.254351 -0.278326 -0.019631
-0.314261 -0.180621 0.175196
-0.0788803 -0.167396 -0.240284
-0.122345 -0.064748 0.158443
-0.132472 0.0386177 0.222883
0 0 0
0 0 0
-0.0909217 -0.196435 -6.39859e-05
0 0 0
-0.214904 0.213172 -0.142838
0.0580296 0.179237 -0.363632
0.103133 -0.0321806 0.0417116
0.178897 -0.158899 -0.0883583
0 0 0
0.307225 0.101443 -0.171626
0.0275702 0.015092 0.00222399
-0.0193359 -0.00841879 0.0271285
-0.193512 0.070188 -0.0241507
-0.127267 0.10058 0.147555
0.00217633 0.287411 -0.122287
0 0 0
-0.0314142 -0.0265586 -0.0482053
-0.102016 0.00901154 0.0480097
0 0 0
0.351437 -0.217047 0.0102919
0.0262969 0.0170719 -0.188511
0.404773 0.031685 0.00955928
0.0220423 0.0479348 -0.224186
0 0 0
-0.0175686 -0.0553011 -0.0284597
0.0335828 0.0876593 -0.201674
0.0242848 0.00974588 0.106939
0.172075 -0.0750303 -0.110377
-0.0756374 -0.040101 0.0332504
0 0 0
0.168896 0.0166719 0.0442535
0.0259183 -0.214788 0.164935
0.0874997 -0.0434332 -0.0198146
-0.064786 -0.00189539 0.0207164
-0.477176 0.43035 0.487142
-0.00873029 -0.00643003 -0.157237
-0.285453 0.0246544 -0.0155422
0 0 0
-0.109151 0.103153 0.170888
-0.0774396 -0.0740617 0.210015
0.0318365 -0.0891685 -0.000341802
0 0 0
0 0 0
-0.0693195 0.0813303 -0.084311
-0.126491 0.14821 -0.239425
0.0180047 -0.0101608 0.0464428
-0.0590516 0.249542 -0.0173567
-0.020176 0.12429 0.0784883
0.0240165 -0.068558 -0.0754011
0 0 0
0 0 0
-0.00850652 0.004393 -0.00132511
0 0 0
-0.0802129 0.144171 -0.144468
-0.0361798 0.249048 -0.0287821
-0.0120006 -0.150296 -0.30445
0.0687174 -0.25041 -0.00153499
0 0 0
-0.0314278 0.209256 -0.211477
0 0 0
0 0 0
-0.0813381 -0.291373 -0.134696
-0.00587695 -0.00443587 -0.00431613
-0.0447989 -0.0697279 -0.0924291
-0.41534 0.221629 -0.1765
0 0 0
-0.464712 -0.0369139 0.0674601
-0.0263307 -0.122382 -0.185254
0.209759 -0.117584 0.0578985
0.104836 -0.330907 0.0396118
0.23359 -0.0566834 0.360268
0.0157606 -0.145232 -0.124678
-0.000914024 -0.115353 0.0583965
-0.383837 0.250741 -0.242835
-0.00509206 -0.120187 0.0195603
0.0588456 0.614854 -0.163086
0.00985398 0.0186597 0.00776723
-0.169287 -0.0518366 0.0382762
-0.053428 0.137928 0.140545
0 0 0
-0.105678 -0.0135513 0.00524707
-0.428202 -0.0109896 0.000590322
0.0628633 0.105808 0.00148347
-0.0256083 -0.00290603 -0.00304014
-0.342284 -0.03189 0.243452
-0.203026 0.188858 -0.164415
-0.215956 -0.0725324 -0.158954
0 0 0
-0.0256042 -0.127225 -0.0149862
0 0 0
-0.0519309 -0.272125 0.199575
0 0 0
-0.00440109 0.0505917 -0.0524713
-0.339534 0.133075 0.0886317
0.00271632 -0.051182 -0.0622272
-0.21835 -0.0595075 0.142409
-0.0912325 0.015877 -0.210338
-0.00168222 0.0300099 -0.0950779
0.0441191 0.0221641 0.312144
0.13705 -0.401744 -0.0614533
-0.0869724 -0.161533 -0.129815
-0.111404 0.228118 0.0955558
0 0 0
-0.00271829 -0.000873104 0.0689222
0.0298122 -0.192456 0.262832
0.08697 0.023751 -0.000159459
0 0 0
-0.0611009 0.00911225 0.377569
0.177854 0.225306 0.274041
0 0 0
0.148156 0.0109786 -0.0101456
0.0558777 0.0125892 0.0442456
0.0147264 0.163672 0.10082
0 0 0
0 0 0
0 0 0
0.0016258 0.0890848 -0.00923918
-0.134304 -0.113962 0.232516
-0.00275685 -0.266629 -0.31435
-0.0810209 -0.122716 -0.131662
0.0545067 -0.299768 0.26573
0 0 0
0.0755109 0.001943 -0.0502618
0.172666 0.134743 -0.119831
0.0457378 -0.00399394 -0.0217488
0 0 0
0 0 0
0.00631971 0.0119795 -0.0328029
0.118815 -0.0263274 -0.167285
-0.205087 0.151428 -0.0292964
-0.0500167 -0.0117365 -0.00927331
0.0240768 0.0274369 -0.0367809
0.62772 0.110217 0.272323
0.12574 -0.0729902 -0.0318963
0 0 0
-0.161217 0.211081 -0.22914
0 0 0
-0.276867 -0.00820943 -0.277696
-0.396926 -0.128534 0.334223
0 0 0
-0.147606 0.124162 -0.190281
-0.172871 0.24845 -0.184919
0.232369 0.140332 0.330876
-0.0460541 0.138209 -0.0121459
-3.05042e-06 0.07571 -0.0424708
0 0 0
-0.0165835 -0.0936542 0.165378
-0.485196 -0.0734636 -0.0124721
-0.101688 -0.173252 -0.134784
0.00168341 -0.10511 -0.0400982
0.00161027 -0.0135415 0.0251262
0.10606 0.290732 -0.364561
0 0 0
-0.0605225 0.0348321 -0.352577
0.360979 -0.229272 -0.298565
0.110821 -0.035884 0.0796282
0.162952 -0.143939 -0.0686845
0.0557547 0.055382 -0.231446
0 0 0
0 0 0
0.120811 -0.257881 -0.175033
0 0 0
0 0 0
0.121332 -0.0453367 -0.0342114
-0.0405781 0.0187229 0.0164991
0.0370215 0.0417462 0.0667523
-0.289818 -0.136454 0.0568303
0 0 0
-0.177243 0.111823 -0.341893
0 0 0
-0.019106 0.0616471 0.0793224
-0.532299 0.266496 0.214849
-0.217609 -0.0125278 0.000441249
-0.143796 -0.438263 0.431651
-0.0346187 -0.029091 -0.417489
-0.00129502 0.0281118 -0.0263626
0 0 0
0.116618 0.0104428 0.0831521
-0.0716235 -0.0260283 -0.110908
0.178931 0.0396474 -0.0430207
-0.10761 0.115783 -0.19531
0.0475184 0.135219 -0.116978
-0.147198 0.14889 0.00441692
-0.0351143 0.0248842 -0.049332
0 0 0
-0.0256175 0.00924183 0.0811393
0.00405296 -0.00141189 0.00434909
-0.0657696 -0.00287208 -0.0344304
0 0 0
0 0 0
0.0639866 0.0192015 -0.0485783
0.231361 -0.184871 -0.131128
-0.234225 0.131485 0.000311478
0 0 0
0.2634 0.40251 0.173738
0.0625601 -0.157007 0.109709
0.253857 0.00659944 0.0461271
0 0 0
0.0325634 -0.0604161 -0.0525041
0.000722286 0.0208921 -0.000483723
0.250966 -0.665571 0.145454
0.0183441 -0.00274307 0.0683005
-0.218218 0.253211 -0.455197
0 0 0
0.226971 -0.0763368 0.0525539
0.17869 -0.190386 -0.00372236
0 0 0
0 0 0
-0.0195213 0.265067 0.0837423
0.0542686 0.0103391 -0.308908
-0.0153154 -0.0719911 0.101261
-0.0980209 0.216693 -0.365891
0 0 0
0 0 0
0.00963003 -0.16921 -0.188299
-0.0363623 -0.00256305 0.018278
0.182412 -0.145664 -0.0510092
0.00306599 -0.0938789 0.137861
0.132825 -0.271661 -0.00127582
0 0 0
0.0248038 0.0340392 -0.033003
0 0 0
-0.12248 0.261876 -0.0401848
0 0 0
0 0 0
0 0 0
0 0 0
0.0892655 0.0424507 -0.121262
0.10899 -0.0728123 -0.0481216
0 0 0
0.124489 -0.178926 -0.168962
-0.0310963 0.0239439 0.0971344
-0.0186842 -0.212281 -0.0278289
-0.205209 -0.0832648 -0.165379
0 0 0
-0.256368 0.0992366 -0.0755816
-0.0624014 -0.0121755 -0.00942567
0.0774138 -0.12861 -0.386261
0 0 0
0 0 0
-0.0382883 0.0828549 0.0826517
-0.00446356 -0.230871 0.0642735
-0.447516 -0.148233 0.402932
0.0936039 -0.0318755 0.309984
0.00728221 -0.0150734 -0.000219814
0 0 0
0.173892 0.161473 0.0562324
-0.00776028 0.0412351 0.0807754
-0.0698333 -0.193364 0.23099
-0.00297417 -0.0120394 -0.00381935
0.00648081 0.036083 0.03005
0 0 0
-0.0263688 -0.0303723 0.0653578
0 0 0
0.0441715 0.449213 -0.0355542
0 0 0
-0.0137593 0.0453421 0.0505639
0.0985719 0.024425 0.218716
0 0 0
0.408496 0.200512 0.393769
0.00222903 0.0194278 0.0115687
-0.425556 -0.103375 -0.491788
-0.396346 -0.0263199 0.0943538
-0.320835 0.367826 -0.173494
-0.13021 -0.041938 -0.106371
9.76805e-05 -0.233656 0.102272
0.0115672 -0.0302016 0.0646848
0.0269795 0.0906424 0.357371
0.0460327 -0.0788775 -0.000639253
0.142481 0.0156773 -0.00981373
0.272724 -0.0281089 -0.00375851
0.169699 -0.080938 0.0886533
-0.106319 0.353681 -0.158863
0.0279396 -0.0491067 0.0294898
0.0831029 -0.0501968 0.0880953
0.0226704 0.0116171 -0.00143215
0.214178 0.112786 0.274883
0 0 0
-0.252848 0.112382 -0.0041538
0 0 0
0 0 0
0.178082 -0.0437318 -0.0937415
0.110525 -0.0293162 -0.0288382
0 0 0
-0.0765487 -0.00308659 -0.0614132
0.101303 0.0343419 0.104914
0.201992 -0.0735612 0.112347
0.451513 -0.108018 -0.0465176
0.178243 0.139756 0.0994677
-0.0830494 -0.0166944 0.0672142
-0.0653293 -0.00301725 -0.0580362
0 0 0
-0.00693617 0.0122047 -0.00953107
-0.13865 0.17393 -0.190923
0.038356 0.0627223 0.0993976
0 0 0
-0.310651 0.17104 0.0518068
0.0405825 0.0955821 0.195441
-0.0667971 -0.00462073 0.0630463
-0.0112438 0.139064 0.000146791
0 0 0
-0.143541 0.0190737 -0.184407
-0.0561455 0.150341 0.333494
0.150164 0.0268846 -0.0573598
0 0 0
0 0 0
0.136509 0.0215428 0.0876846
0.289487 -0.0774201 0.437101
0 0 0
-0.0588091 0.174206 -0.0115812
0.186244 0.0208896 -0.000193944
0 0 0
-0.188487 0.0598862 0.139985
-0.154384 0.000976059 -0.0193083
-0.0927824 0.000224572 0.0963855
0.141565 0.0524367 -0.0836078
-0.00326562 0.153301 0.167682
-0.00220895 0.000686423 -0.0116144
-0.146323 -0.0100222 0.0611023
-0.11963 -0.00599208 0.0118296
0 0 0
0.0208422 0.0255375 0.302982
0 0 0
-0.00517776 -0.131356 0.223875
0.000650503 -0.0393557 0.0665414
0.00748221 -0.0370243 -0.175555
0 0 0
0.257939 0.13374 -0.0389227
-0.00295645 0.0173453 0.0339786
0.0587484 0.0656489 0.0173543
0.36844 0.341127 0.150816
0.114213 -0.0464322 -0.203301
0.0808978 -0.107627 -0.191041
-0.000619394 0.0113837 -0.0627481
-0.0264522 0.162906 -0.0857088
0 0 0
0.00513027 -0.00320357 0.0169277
0.0247383 -0.260799 -0.192751
0.293705 -0.0980076 0.0249285
0.054734 0.0629794 -0.179148
0.0703661 0.0275662 -0.0292194
0 0 0
-0.151775 0.22369 -0.021005
-0.00767296 0.302677 0.115311
-0.0836616 -0.018584 -0.0370568
-0.0272218 0.0645995 0.0361404
0.156487 -0.0196108 -0.0876769
0.00123051 0.00141047 -0.00499255
0 0 0
-0.00536515 -0.00946278 -0.00999007
-0.0645475 -0.0711201 -0.184093
-0.0374279 0.0938572 -0.1793
-0.101568 0.3435 -0.0371332
0 0 0
0.0809034 0.206304 -0.209112
0.0893303 -0.150139 0.242605
0.166068 -0.0740862 0.159036
0.286863 -0.128381 0.0483376
0.0997474 -0.00832261 0.0184303
0.112236 0.0430474 -0.0395428
-0.0140543 -0.101556 -0.123373
0.324165 -0.433617 -0.329586
0 0 0
-0.0850015 0.113308 -0.0485067
-0.190846 0.383624 -0.0230961
-0.121167 0.0226113 -0.111244
-0.0496295 0.237213 0.23841
-0.042307 -0.0238856 -0.019718
0.06095 0.027457 -0.087364
0.232228 -0.378384 -0.130268
0 0 0
0.0989153 -0.137707 0.00052493
0.0765504 0.0374078 0.160762
0.211459 -0.183757 0.081587
-0.0914787 0.329225 0.28964
0 0 0
0 0 0
0 0 0
0.0552152 -0.0428677 0.112444
0 0 0
0.340363 0.224685 0.00702056
-0.000683754 -0.0211357 0.0197664
0.0665969 0.0810081 0.324426
0 0 0
0.142095 -0.0722097 -0.0318847
0.0255872 0.0383976 0.0424425
0.258591 -0.628682 -0.135854
0.0880495 0.0155392 0.203494
0.0711013 -0.00573658 -0.0635366
0.13642 0.35872 -0.174803
0 0 0
-0.113071 -0.370535 -0.14933
-0.0438629 0.0290471 0.112393
0.0275576 -0.0591982 0.17221
-0.101953 0.0954761 0.103257
0 0 0
-0.111488 0.192618 -0.0006543
0 0 0
-0.125303 -0.165977 0.302784
0 0 0
-0.0541987 0.0849212 -0.448533
0 0 0
0.0841084 -0.261296 -0.370504
0.032618 -0.0489095 -0.000580888
0 0 0
-0.000867775 -0.0363648 0.0329558
-0.191522 -0.0047043 -0.0697802
-0.00120853 -0.0147063 -0.0430374
-0.215654 0.123694 0.204881
0.0938569 -0.0227014 -0.116563
0 0 0
-0.0278402 0.0224393 0.0047691
0 0 0
-0.0651451 0.0175448 -0.127971
0 0 0
-0.143535 -0.266127 -0.0476421
0 0 0
0 0 0
-0.147977 -0.0153128 -0.00145252
0 0 0
0.389851 0.016161 0.0526683
0.0985039 -0.00580543 -0.000639921
0.00113098 0.43971 0.16235
0.000254596 -0.226821 -0.0671363
-0.233356 -0.063887 0.148654
-0.124196 -0.0221659 -0.049689
0.0490193 -0.00448163 -0.00190383
0.1419 0.0307518 0.125698
0.0824503 0.0794364 -0.11642
0 0 0
-0.164673 -0.264595 -0.0333556
-0.135073 -0.0546197 -0.160844
0.0371909 0.185185 -0.0268473
0.209603 -0.222952 -0.171553
0.0701224 0.00535831 -0.0076052
0 0 0
-0.280542 -0.0909934 -0.110191
0.127145 -0.293017 -0.0982574
0 0 0
0 0 0
0 0 0
0 0 0
0 0 0
0 0 0
0 0 0
0 0 0
0 0 0
0 0 0
0 0 0
0 0 0
0 0 0
0 0 0
0 0 0
0 0 0
0 0 0
0 0 0
0 0 0
0 0 0
0 0 0
0 0 0
0 0 0
0 0 0
0 0 0
0 0 0
0 0 0
0 0 0
0 0 0
0 0 0
0 0 0
0 0 0
0 0 0
0 0 0
0 0 0
0 0 0
0 0 0
0 0 0
0 0 0
0 0 0
0 0 0
0 0 0
0 0 0
0 0 0
0 0 0
0 0 0
0 0 0
0 0 0
0 0 0
0 0 0
0 0 0
0 0 0
0 0 0
0 0 0
0 0 0
0 0 0
0 0 0
0 0 0
0 0 0
0 0 0
0 0 0
0 0 0
0 0 0
0 0 0
0.0447335 0.0574346 -0.240659
0.123653 -0.0355018 0.0554594
0 0 0
0.215397 -0.0421268 -0.0194052
0.0756655 0.0635432 0.0450206
-0.00568737 -0.00529471 -0.112458
0.0921237 -0.0281559 0.0424551
-0.0319194 -0.092444 0.283802
-0.000994013 0.0860778 -0.303838
0.00180288 -0.01931 -0.242943
0 0 0
0.046206 -0.0802938 0.0160216
-0.0920788 -0.0243256 -0.208112
0 0 0
-0.0439511 -0.150575 0.0381872
0.0216183 -0.0998316 -0.0455966
0.0507105 0.220862 0.00993856
0.0596415 0.0841211 0.0352309
-0.001008 -0.0250711 -0.00923019
-0.1774 -0.00808524 0.0661514
-0.0629079 0.14283 0.00761331
0 0 0
0.161693 0.122108 -0.0913113
0.0127021 0.0389679 0.0271238
0.113124 -0.0546925 -0.0341619
0.0572286 -0.0304362 -0.0354395
0 0 0
0.0456225 0.106857 -0.0148
-0.0643407 0.000944586 0.0618942
-0.00058602 0.000609622 0.0153355
0.0676177 -0.146776 -0.0361094
-0.090086 -0.0271593 0.202683
-0.110319 -0.00211944 -0.0821243
-0.115043 0.0628801 0.0575246
0 0 0
-0.163244 0.00923184 0.0856871
0.0445779 -0.0396892 0.0333231
0 0 0
-0.021234 -0.00374397 -0.108676
0.00495278 0.0331675 -0.275687
-0.00679267 -0.00347679 0.216997
-0.0950939 -0.00257326 0.00990267
0 0 0
0.0163797 -0.0895047 -0.0257047
0.0430255 -0.00356481 0.0737346
0 0 0
-0.0528273 0.0103737 0.0508973
-0.0356073 0.0403547 0.0355562
-0.0510873 0.0269847 -0.00966344
-0.0503395 0.0300268 0.0284023
0 0 0
0.0819379 0.00360432 0.0115615
-0.00487642 0.0488847 0.0244934
0 0 0
-0.0762487 0.0906679 0.156348
-0.000904241 -0.0213031 -0.0803986
-0.000849096 -0.127409 0.230133
0.0585304 -0.0105672 -0.0576474
0 0 0
-0.0205911 -0.0297703 -0.0464024
0.00976723 -0.00112524 -0.0441252
0 0 0
0.02603 -0.0817493 -0.0406531
0 0 0
-0.0278943 0.0432282 0.0476048
-0.343252 -0.106269 0.0894872
0.055367 -0.0488631 -0.0345861
0 0 0
-0.0372658 -0.051135 0.0791483
-0.00172229 -0.346286 0.0489313
0.101317 -0.192958 -0.211365
-0.0976472 0.300429 0.224763
-0.00478053 -0.0800358 0.326167
-0.302343 0.0106977 -0.0904673
-0.0847616 -0.117891 -0.325556
-0.016005 0.144 0.0554661
-0.127792 0.214252 -0.0226932
-0.10611 -0.164763 0.0816208
0 0 0
0.176 -0.241472 -0.44141
-0.044286 -0.229272 -0.0306665
-0.195395 0.0358502 0.104377
-0.0399696 0.176238 -0.13441
0.00589196 -0.09971 -0.0444785
0.142646 -0.0777921 -0.0466954
-0.00527784 0.0393139 0.0885939
0.095575 -0.00691772 -0.125448
0.115679 0.058826 -0.174958
-0.00113103 -0.0322539 0.350199
-0.340942 -0.0699382 -0.0629326
-0.0563412 -0.380255 -0.230066
0 0 0
-0.368041 -0.381119 0.222381
-0.460571 0.403002 -0.173933
0 0 0
-0.357393 0.139455 0.0687691
-0.211829 0.0176898 -0.240004
0.0274129 -0.176054 0.105898
0.14066 0.378743 -0.20106
0.042367 0.239407 0.0873012
0.155847 0.0231368 -0.419398
0.000198635 -0.0449943 0.08304
0.0334643 -0.440276 0.366981
0.0537922 0.0261078 -0.00227979
0.321328 -0.263419 -0.115609
0 0 0
0.0142173 0.00558794 0.0689108
0.0161166 0.0179261 0.00335196
0.0996625 0.0978392 0.0707437
0.0771944 -0.141666 0.184406
0 0 0
0.000457244 -0.0103997 -0.000817892
0.021131 -0.0757633 0.0207406
0 0 0
-0.0359629 -0.0529899 0.212655
0 0 0
0 0 0
-0.353756 -0.139831 -0.0933803
-0.0122481 0.033427 0.0237127
-0.375954 -0.195708 0.120508
-0.134498 -0.0328709 0.0715423
-0.0889666 -0.107684 -0.460292
-0.037559 -0.0669178 0.0814048
-0.0663639 0.0569911 0.132801
0.0524822 -0.0880438 -0.050418
-0.476227 -0.0190319 0.173367
-0.0101641 -0.0226723 0.0105237
-0.385139 -0.00786044 0.192096
0 0 0
-0.0583891 0.0675391 -3.45485e-05
-0.203764 0.035345 -0.0894121
0 0 0
-0.0526845 0.0699304 -0.0904206
0 0 0
0.351096 -0.0527021 0.0456484
0 0 0
0.185271 -0.173761 0.144374
0 0 0
0 0 0
0.139875 0.0224126 -0.0829851
0.0197661 0.00996332 0.0990903
0 0 0
-0.0949796 0.280291 -0.204677
0.280322 0.00194556 -0.0621035
-0.030338 0.0721425 -0.00204743
0.397758 -0.348286 0.249344
0.267734 0.249775 0.232143
0 0 0
0.0389621 0.181156 -0.185062
0 0 0
-0.174575 -0.419298 0.485709
0.134875 -0.0340234 0.0439397
0.0354157 -0.167016 -0.160597
-0.137822 -0.0231555 -0.227405
-0.245579 -0.00973038 -0.230131
0.120854 -0.361246 -0.21588
0 0 0
0.0325442 -0.0642282 0.0331345
0.205877 -0.127578 -0.116614
0.29375 0.205955 0.18163