<?xml version="1.0"?>
<VTKFile type="RectilinearGrid">
<RectilinearGrid WholeExtent="0 32 0 32 0 32" Origin="0 0 0" Spacing="1 1 1">
<Piece Extent="0 32 0 32 0 32">
<PointData>
</PointData>
<Coordinates>
<DataArray type="Float32" format="ascii">
0 0.524874 1.04975 1.57462 2.0995 2.62437 3.14924 3.67412 4.19899 4.72386 5.24874 5.77361 6.29849 6.82336 7.34823 7.87311 8.39798 8.92285 9.44773 9.9726 10.4975 11.0224 11.5472 12.0721 12.597 13.1218 13.6467 14.1716 14.6965 15.2213 15.7462 16.2711 16.796 
</DataArray>
<DataArray type="Float32" format="ascii">
-5.03879 -3.62163 -2.20447 -0.787311 0.629849 2.04701 3.46417 4.88133 6.29849 7.71565 9.1328 10.55 11.9671 13.3843 14.8014 16.2186 17.6358 19.0529 20.4701 21.8872 23.3044 24.7216 26.1387 27.5559 28.973 30.3902 31.8074 33.2245 34.6417 36.0588 37.476 38.8931 40.3103 
</DataArray>
<DataArray type="Float32" format="ascii">
0 0.524874 1.04975 1.57462 2.0995 2.62437 3.14924 3.67412 4.19899 4.72386 5.24874 5.77361 6.29849 6.82336 7.34823 7.87311 8.39798 8.92285 9.44773 9.9726 10.4975 11.0224 11.5472 12.0721 12.597 13.1218 13.6467 14.1716 14.6965 15.2213 15.7462 16.2711 16.796 
</DataArray>
</Coordinates>
<CellData>
<DataArray type="Float32" Name="Vector" NumberOfComponents="3" format="ascii">
0 0 0
0 0 0
0 0 0
0 0 0
0 0 0
0 0 0
0 0 0
0 0 0
0 0 0
0 0 0
0 0 0
0 0 0
0 0 0
0 0 0
0 0 0
0 0 0
0 0 0
0 0 0
0 0 0
0 0 0
0 0 0
0 0 0
0 0 0
0 0 0
0 0 0
0 0 0
0 0 0
0 0 0
0 0 0
0 0 0
0 0 0
0 0 0
0 0 0
0 0 0
0 0 0
0 0 0
0 0 0
0 0 0
0 0 0
0 0 0
0 0 0
0 0 0
0 0 0
0 0 0
0 0 0
0 0 0
0 0 0
0 0 0
0 0 0
0 0 0
0 0 0
0 0 0
0 0 0
0 0 0
0 0 0
0 0 0
0 0 0
0 0 0
0 0 0
0 0 0
0 0 0
0 0 0
0 0 0
0 0 0
-0.0625371 0.203679 0.0503833
0.246867 0.0939219 0.0450198
-0.066067 -0.0326391 -0.0402677
-0.114584 0.0416972 0.0422438
0.0976933 0.0226363 -0.0140913
0.00393202 -0.0242257 -0.0118081
0.15495 0.275271 -0.00230279
0.0313445 -0.0108205 0.101785
-0.0062085 -0.175056 -0.100162
0.215425 0.245909 0.000607188
0 0 0
-0.123633 0.0424009 -0.0250001
-0.0651819 -0.132662 -0.0960775
0 0 0
0.113519 0.0588643 -0.0112387
-0.0242077 -0.193084 -0.046969
-0.154944 0.0907201 0.0363719
-0.136295 -0.281299 -0.233911
0 0 0
0.0212644 0.0914514 -0.0497054
0.0212085 -0.0759156 -0.0342414
0.00439701 0.0131712 0.0442273
-0.125325 -0.233271 -0.0614756
-5.88221e-05 -0.121701 0.0864124
0.00739153 0.00974131 -0.0379326
0.190849 0.105287 0.0262621
0 0 0
0.153986 0.0517692 0.123701
-0.0296713 0.0474508 0.00252952
0.0229639 -0.0381418 -0.0221797
0.0336953 0.0168948 -0.0511557
-0.0119548 0.091331 -0.0033969
0.222554 -0.212337 -0.107547
-0.00786017 0.000136468 0.0010018
0 0 0
0.146838 0.0790286 0.049957
0.0796589 -0.046059 0.0572005
0 0 0
-0.312365 0.112134 0.0113893
0.0199557 0.00054004 -0.0346572
0.00846609 -0.00541886 0.0143312
-0.394528 0.491812 0.0174459
0 0 0
0.0086009 -0.0125216 0.0478177
-0.0665424 0.129611 -0.000859426
0 0 0
0.00930474 0.0147325 -0.0236671
-0.168112 0.0930758 -0.237368
-0.175796 -0.0225066 0.200238
0.0509362 -0.0377384 0.0762674
0 0 0
-0.135451 0.171126 -0.0014471
-0.0516572 0.00496298 0.00624459
0 0 0
-0.32692 -0.108439 0.0354743
-0.00380212 -0.00107732 0.00440815
0 0 0
0.149779 -0.117246 0.0252815
0 0 0
-0.19157 0.0525193 -0.138063
-0.0488407 -0.0841049 -0.00132418
0 0 0
-0.0149402 -0.0370497 0.0687992
0.131754 0.057481 0.105622
-0.0698809 0.0347131 0.0138988
0 0 0
-0.320891 0.016106 0.128173
-0.00840813 -0.0268427 0.00092147
0.347421 0.118433 0.00459061
0.0671875 -0.301073 -0.223475
0.216501 0.398615 0.0764751
-0.0646705 0.420926 0.141142
-0.0880274 -0.14368 -0.0167397
0.102261 0.0325987 -0.069324
0.0574444 0.258244 -0.113619
-0.0598735 -0.00349124 0.191046
-0.0408085 -0.0964258 -0.23005
0 0 0
-0.154022 -0.0635594 0.059972
-0.0291003 0.0329504 -0.200317
-0.0573191 0.065853 0.0307951
-0.0112657 -0.0183195 -0.0907288
0.0589403 0.207386 -0.109376
-0.00756434 -0.0908946 -0.00313906
-0.16587 -0.155989 -0.136039
-0.137849 0.0243176 0.0367441
-0.190601 -0.310623 -0.00254965
0 0 0
0.348624 0.219268 0.143078
0.0113026 0.0468118 0.152999
0 0 0
-0.12487 -0.117228 0.0327154
0 0 0
-0.149796 0.00153868 0.107785
-0.0962415 0.0636755 -0.169357
-0.12303 -0.169822 0.00987898
-0.155534 0.211662 0.00684811
-0.106174 0.0278779 0.284996
-0.0734226 -0.0355638 -0.000143818
0 0 0
0.313258 -0.203252 0.0398899
0.0825863 0.317211 -0.0455361
0.0440584 0.136467 -0.00309244
0 0 0
0.214479 -0.0182002 0.227754
0 0 0
-0.102193 0.384808 0.340644
0 0 0
0.0905732 0.0616205 0.0339799
-4.86614e-05 0.0478904 -0.0487281
-0.00757266 0.0573287 -0.0634501
0 0 0
0 0 0
-0.0661758 -0.275845 -0.144215
-0.0603767 0.0540995 -0.0892563
0.159999 -0.11685 0.127946
0 0 0
0 0 0
-0.134187 -0.0409785 -0.166229
-0.209888 0.085913 0.0218452
-0.0450899 0.0849029 -0.0514117
0 0 0
-0.163294 -0.162869 0.00321604
0 0 0
0.0223573 -0.0235668 -0.095505
0 0 0
0 0 0
0.000694796 -0.0242439 0.0630385
0.12424 0.0185292 0.153088
0.0403831 -0.0577725 0.000354628
-0.00117941 0.00803527 -0.00279977
0.518343 -0.676925 -0.0981692
-0.0542802 0.185381 -0.0699831
0.00049411 -0.0237933 0.0710156
-0.294294 -0.200568 0.133618
-0.00156663 -0.113897 -0.147474
-0.0942655 -0.24278 -0.173614
0 0 0
-0.095704 0.210503 -0.13413
0 0 0
0.000138899 0.000431438 0.049993
0.0522848 0.0887417 0.0644926
0.010753 -0.11207 -0.041338
-0.05687 -0.0675202 -0.00576993
-0.0130231 -0.00916513 0.00705963
-0.0500195 -0.154821 0.224242
-0.118528 -0.198802 0.0886576
-0.0607171 0.184072 -0.0552747
0 0 0
-0.101178 -0.172315 -0.0508959
0 0 0
0.0573244 -0.117679 -0.059437
0 0 0
0.144155 -0.025959 0.176672
0 0 0
0.208054 0.0281898 -0.0403442
0.478497 0.244197 -0.0137033
0.308983 0.041273 0.166491
-0.12142 0.0352231 -0.150984
0.19326 -0.0408653 -0.389439
0.00329781 -0.00669704 -0.00362956
0.218068 -0.147307 -0.0669611
0 0 0
-0.0933184 -0.020149 0.216553
0 0 0
0.0145627 0.0332936 -0.000437219
0 0 0
-0.0159392 -0.0911378 0.464143
-0.360941 -0.130685 0.0144156
-0.227352 0.101926 0.248208
0 0 0
0.0428011 0.0564663 -0.107212
-0.0443282 -0.0101148 -0.0589875
-0.164296 0.341279 -0.0857229
-0.325867 -0.000656124 0.057721
-0.0810766 -0.00736621 0.345507
0.043671 0.0282512 -0.0968771
0.0798859 -0.0184367 -0.143474
-0.0538953 -0.235753 -0.240235
-0.0864957 -0.0482858 0.0804574
0 0 0
0.13477 0.0199212 0.25106
-0.0512881 -0.0228741 -0.345455
-0.0694052 -0.0665106 0.0207347
-0.28301 -0.014882 0.104975
-0.0226628 0.176831 -0.258212
0.121091 -0.164529 -0.050964
0.0844262 0.00532208 -0.0742283
0.134584 -0.0543843 -0.0514
0.00436505 0.000275091 0.0197076
0.209021 -0.303279 -0.037295
0.157432 0.0737183 0.0970958
0.500312 -0.128626 -0.275957
0 0 0
0.179597 0.153541 0.152621
0.27587 0.0374995 0.106244
0 0 0
0 0 0
0 0 0
0 0 0
0 0 0
0 0 0
-0.151253 -0.132343 -0.0274735
0 0 0
-0.121819 0.201621 0.0430665
-0.00923235 0.0273596 -0.0694382
0.0421392 0.0531372 -0.323375
-0.0360548 -0.109918 -0.0527296
0 0 0
0.0844498 -0.136042 0.133027
0 0 0
-0.0513611 0.0208648 0.0337146
0.102177 -0.318445 0.0933954
0 0 0
0.283627 -0.138901 0.105281
0 0 0
0.00289689 0.000263861 -0.020453
0.00060975 -0.149435 -0.0186318
0.164257 -0.599192 -0.012622
0 0 0
0.222697 0.099243 -0.00586774
0.244479 0.0298538 0.207633
0.0370796 0.091377 0.147339
0.150377 0.118778 0.152791
0 0 0
0.309218 0.202609 -0.110728
0.0249177 0.16255 -0.124968
0.26067 -0.0677697 -0.07431
0.0739902 0.0461495 0.134407
-0.0379302 0.0728858 -0.195063
0.254048 0.00575253 -0.0614915
0 0 0
0.28924 0.382437 -0.0381258
0.0296935 0.065929 0.0138658
-0.0298548 0.216688 -0.112912
0 0 0
0 0 0
-0.337057 -0.232636 -0.0364378
0.00136092 0.0119813 -0.0535914
0.24084 0.112269 -0.338971
0.127957 0.126467 -0.0598501
0.246874 0.103952 -0.307706
0 0 0
0 0 0
0.195817 -0.305259 0.0937054
0 0 0
0.0476047 -0.28559 0.0434799
0 0 0
0.24401 0.176576 0.00363573
0 0 0
-0.0590651 0.215505 0.0481095
0.155449 0.0809576 0.0829027
0 0 0
0.198363 0.218909 0.0564724
0.259288 0.134603 -0.364022
0.00767456 -0.00820612 -0.0189579
0.0916652 -0.206545 -0.109469
-0.0537639 -0.126565 0.0860603
0.0284227 0.270829 -0.218471
-0.381208 0.222071 -0.379729
0.152287 0.0966714 -0.060064
-0.0602266 0.0639875 -0.0250585
0 0 0
0.0234451 0.0334489 -0.0127676
-0.107128 0.139567 0.00254737
0 0 0
-0.130557 -0.144518 0.0418154
-0.131638 0.0307231 0.0696441
-0.0274422 -0.0916839 0.0276477
0.00904137 -0.0822312 0.269497
0 0 0
-0.128066 -0.100562 0.153761
0 0 0
-0.0724463 -0.19382 0.454617
0 0 0
-0.0519405 0.09974 -0.0613925
0.357704 -0.0523216 -0.191736
0.106362 0.116409 -0.262993
-0.0301574 -0.00473651 0.0383521
-0.507718 -0.151336 0.0089872
0 0 0
-0.280426 0.355414 0.0951357
-0.0644202 0.00200274 0.0243159
0.237553 0.20278 0.130206
0.118714 0.285503 0.172707
0 0 0
0 0 0
0 0 0
-0.0876662 -0.0378394 0.0855094
-0.0330452 -0.0159231 -0.0513829
-0.117763 0.273795 -0.0800378
-0.0504993 -0.00464695 -0.00791141
-0.0981565 -0.0324784 0.0634644
0.0251792 -0.0305026 -0.150848
0 0 0
0 0 0
-0.0324326 0.234038 0.250864
0 0 0
-0.0169108 0.107334 -0.160903
0 0 0
0 0 0
-0.0357832 0.118768 0.167675
-0.103785 0.361304 0.486849
-0.103042 0.0254311 -0.0180165
-0.203302 -0.044778 -0.0251226
-0.0296556 -0.286527 0.00748929
-0.135755 -0.252171 -0.179309
0.00400892 0.0743682 0.04852
-0.281563 -0.223302 -0.311597
0.0799378 -0.275826 0.0279992
0 0 0
0 0 0
0 0 0
0.0661728 0.0702773 0.0464494
-0.180218 -0.0512597 0.00696079
-0.0722029 0.00114055 -0.193809
-0.0283984 -0.00214859 0.124251
0.135578 0.0617284 0.046486
0 0 0
0.227279 -0.122194 -0.346115
0 0 0
-0.0133878 0.0509964 -0.0399544
0 0 0
0 0 0
0 0 0
0 0 0
0.0523222 -0.116428 0.000366976
-0.529603 0.0459338 -0.0478312
-0.0318857 0.0458016 0.021928
-0.0282767 0.250495 -0.226084
-0.00519172 -0.00119612 -0.00101343
-0.363019 -0.0202152 0.0769368
-0.292274 0.225334 0.417787
0.11478 0.0343509 0.244629
-0.150326 0.111896 0.117533
0 0 0
-0.000251424 0.0704802 0.00554232
-0.000105287 -0.115836 -0.413954
-0.00029391 0.0225614 0.0189327
0.0717437 -0.206403 -0.0206437
-0.0934877 0.00349961 0.0184707
-0.463252 -0.516216 -0.184972
0.00397231 -0.216384 0.15395
0.110674 -0.147063 0.195693
-0.0148526 -0.0409223 -0.0152473
-0.0325132 0.119263 0.165175
-0.122954 -0.169581 0.0221008
0 0 0
-0.21297 -0.13883 -0.0736003
0.00312843 0.0431507 0.0338388
-0.394696 0.247664 0.126389
-0.18806 0.305868 0.162072
-0.000116834 -0.00351177 -0.00196443
-0.182791 -0.243706 -0.10131
0 0 0
-0.0438493 -0.0562168 0.011502
-0.161353 -0.11281 -0.0175097
0 0 0
-0.0933151 -0.0955388 -0.193547
0 0 0
0.0620631 -0.197353 -0.273693
0 0 0
0.0677722 0.231645 -0.0153634
0.135243 -0.100128 0.359811
0.0345578 -0.208366 0.219542
-0.115628 -0.061355 -0.0357843
0 0 0
0 0 0
0.0421061 0.00728466 0.189276
0.00916059 -0.327581 -0.00552687
-0.149561 -0.127982 -0.0931
-0.00786788 0.181899 0.144431
0.0228636 -0.0271328 0.1431
0.0251795 -0.131702 0.0985886
-0.0743795 -0.124662 -0.271576
-0.0739379 0.0263891 -0.17
-0.110134 0.0153996 0.105905
0.0957456 -0.0532792 -0.0967386
0.141091 -0.0940784 0.0914558
0.0949809 0.0312452 -0.015844
0.0328011 0.0473622 -0.0182107
0.00149168 -0.00202887 0.00474501
0 0 0
-0.0575356 -0.190879 0.287804
-0.000284493 0.03447 0.076351
-0.0830746 -0.076682 -0.44896
-0.0120354 0.29076 0.0871736
0.0372033 -0.0283465 -0.0430847
-0.106417 0.062384 0.16794
-0.0221598 -0.00531654 -0.0527386
0.037035 -0.153401 -0.0692272
0.116745 0.0780049 -0.101996
-0.226471 0.348163 -0.0617105
0.0911027 -0.00461488 -0.0131634
0.179708 0.315995 -0.153831
0 0 0
0.282961 0.121782 -0.418565
0.00464509 -0.0514034 -0.0148357
0.409393 -0.212807 0.0640291
0.342575 0.233137 -0.00614866
0.231757 -0.253201 -0.0263534
0.305691 -0.0320133 -0.123299
0.0496491 -0.0212337 -0.00917319
0.0962437 0.00876795 0.327921
0.15426 -0.121933 -0.0653075
0.415579 -0.14904 0.1305
0.282459 -0.0256708 -0.00199933
0 0 0
0 0 0
0.00124048 -0.181386 -0.130163
0.137141 -0.225207 -0.121194
0.0300732 -0.140666 0.0161719
0.064975 -0.162343 -0.0163577
-0.186702 -0.0032436 -0.0780761
-0.372132 -0.182588 -0.354152
0.0595289 -0.00578768 -0.000625644
0 0 0
-0.135095 -0.19866 0.0844133
-0.114396 -0.0550428 0.163652
-0.0488805 0.00704279 -0.0272357
-0.157078 0.0331841 0.085289
-0.0723256 -0.128259 -0.00323715
0 0 0
0.123933 0.573569 -0.11762
0.024103 0.015074 -0.0195325
-0.0749149 0.241319 -0.269883
0 0 0
0 0 0
0.000180249 -0.0062928 -0.0382379
-0.233975 -0.00770061 -0.116492
0 0 0
0.065001 0.0177111 -0.33462
0.000758466 -0.00937544 -0.0817207
0.26553 -0.345887 0.0872669
0 0 0
-0.291278 -0.182515 0.000905412
0 0 0
-0.172987 -0.130337 0.457617
-0.0664593 0.0127745 0.0515732
0 0 0
0.0038813 -0.305405 0.059064
0 0 0
0.00297782 -0.00684066 -0.00340888
-0.187056 -0.0915663 -0.0205131
-0.0813436 -0.0800058 -0.00912634
0 0 0
0.336287 -0.348021 0.0319103
0.00417013 -0.0689264 -0.000317241
0.00190773 -0.0391857 0.0181418
-0.0976966 -0.0365292 -0.0657242
-0.212062 0.0540619 0.0971811
0 0 0
-0.264475 0.308926 -0.334837
0.0349135 0.0162748 -0.0367679
0.0397544 -0.018932 0.0368307
0.186318 0.0371897 0.0994452
0 0 0
0.132116 0.184611 -0.214728
0 0 0
0.143515 0.372697 -0.291156
0 0 0
0 0 0
0.321491 0.351262 0.370005
0 0 0
-0.119666 -0.0647664 0.0866206
-0.122807 -0.172718 -0.14968
-0.000647344 -0.0616018 0.0358609
0.354628 0.00564156 -0.0379628
0.0363392 0.0143926 0.179804
-0.113913 -0.0535146 0.102672
-0.244592 -0.185327 -0.300259
0 0 0
0.0761778 -0.132091 -0.0434684
0 0 0
-0.219713 -0.0543684 -0.618164
-0.0379551 0.122301 -0.0775412
-0.236188 -0.244447 -0.16806
0 0 0
0 0 0
-0.0322837 -0.266444 0.548881
0 0 0
0.00710074 0.132515 -0.0157435
-0.221801 -0.0285682 -0.298816
0 0 0
-0.195341 -0.0729377 0.0149942
-0.11649 0.0108609 0.0233105
0 0 0
0.104171 -0.378096 -0.371243
0.0554614 -0.0140308 -0.0491429
-0.0818295 0.194282 -0.134253
-0.117833 -0.0508442 0.0307356
-0.0635601 0.0102155 -0.0856037
-0.099995 -0.0656742 0.114833
0 0 0
0.0727518 0.0335513 -0.0024477
0.316143 0.387874 0.0191819
0 0 0
-0.141475 0.0119172 0.0430858
-0.253412 -0.0371494 0.0180887
0 0 0
0 0 0
0 0 0
-0.00200056 -0.169876 -0.0139585
0.305678 -0.00685039 -0.0139556
-0.0661019 0.0200748 -0.000505915
0 0 0
0.0169149 -0.00309555 0.0294596
-0.315483 0.0896191 0.0749875
0 0 0
0 0 0
0 0 0
-0.0282473 0.0228518 -0.00531452
0 0 0
-0.0630551 0.171078 0.284867
0.0916565 -0.120274 -0.0459355
0 0 0
-0.156329 -0.0845924 -0.0985057
0 0 0
0.144298 0.507563 0.143045
0 0 0
-0.0664676 0.310372 0.096796
0 0 0
-0.0473102 0.0585058 -0.324995
0 0 0
0 0 0
0 0 0
-0.0243678 -0.173202 -0.247583
0.33868 -0.0573114 0.118182
0.151298 -0.00830054 0.0426042
0.206601 0.0215009 0.251205
0 0 0
-0.248699 -0.11747 0.11972
-0.210471 0.0292647 0.21904
-0.0893265 0.33389 0.162964
-0.0774539 -0.261028 0.100505
0.0790373 0.123846 -0.136253
-0.0201441 0.0950812 -0.219202
0.0268878 0.0806333 0.00435835
0 0 0
-0.149909 -0.0748954 -0.0706778
-0.000767176 0.161461 -0.0232543
-0.0947179 0.0639202 -0.198372
0 0 0
-0.031615 -0.0569342 0.0187791
-0.0677673 0.124158 0.000192115
0.00850508 0.392165 0.10474
-0.179794 -0.00469273 -0.0171406
0.444281 0.0402784 0.195771
-0.00237563 -0.0816207 -0.0102069
-0.0147167 -0.183606 0.000178859
0 0 0
-0.160873 0.225159 -0.0013108
0.185866 0.0378787 -0.12775
0.0907463 -0.224297 0.262871
-0.0152457 -0.00122552 -0.232827
0 0 0
0.0869055 0.344682 0.0171987
0.110115 0.0154898 -0.0329018
0.202585 -0.0704085 0.167249
0.0219628 -0.0124359 -0.00124576
0.26002 -0.119638 -0.198497
0.0102599 0.00307863 0.0106645
0.0313331 -0.0129987 0.00421104
0 0 0
-0.0476666 0.260663 0.276548
0.0782009 0.104117 0.00896431
0.034681 -0.102198 -0.0881036
0.100639 -0.0683871 0.362434
0 0 0
0.193939 0.264798 -0.00526281
0.231558 -0.140194 0.0192
-0.0176075 -0.132809 -0.204111
0.00182531 0.0727065 -0.0185231
-0.00318365 0.00432974 0.016498
0.180939 0.0167625 -0.181742
0 0 0
0 0 0
-0.0588059 -0.0652414 -0.064083
-0.00889483 -0.0026916 -0.00661969
-0.0666061 -0.0740153 -0.198093
-0.00237982 -0.0427986 0.181835
-0.0152924 0.186662 -0.00198496
0 0 0
0.0618902 0.292965 0.00253662
0 0 0
-0.125143 0.0283649 -0.0849332
-0.16687 -0.445922 0.0579421
0.0420102 0.0181193 -0.0400659
0 0 0
-0.0921852 -0.172583 0.0819298
-0.193441 -0.196375 -0.223127
0.00484455 -0.0390063 -0.0128679
0.245933 -0.0588194 0.245077
-0.0424218 -0.020176 -0.108939
-0.339179 0.0620267 0.0130606
-0.0379039 -0.150332 0.0310347
0.0229757 -0.081911 -0.115355
0 0 0
-0.0507778 -0.0428335 0.0446539
-0.0982537 0.522846 -0.178565
0 0 0
0.241541 0.118072 -0.305794
0 0 0
0.274713 0.132174 0.42231
-0.014598 0.0456959 0.0137881
0 0 0
0 0 0
0 0 0
-0.272169 0.0648906 -0.120758
0.0538715 -0.0112352 0.159424
-0.211694 -0.573768 0.333491
-0.00854913 -0.000652458 -0.0171695
-0.187299 -0.00610209 0.0639524
0.116819 -0.0310097 -0.0166261
-0.00195058 -0.00638304 0.0074416
-0.213457 0.0107425 -0.0388079
0.0350652 -0.139421 -0.00395077
0.146045 0.210533 -0.123022
0.234626 0.0948203 -0.154173
0.382711 0.234981 -0.178729
-0.257863 -0.0630603 -0.00162937
0 0 0
-0.0488315 0.035705 -0.0989777
0 0 0
0.139374 -0.209562 0.113366
-0.0692201 0.0601383 -0.0269977
-0.227425 0.279138 0.1744
0 0 0
0.00510913 -0.0205181 -0.00921303
-0.271501 0.304114 0.42039
-0.0344 0.0405944 0.0440338
0.208213 0.145328 -0.160204
0.321008 -0.0148689 0.0266716
0 0 0
-0.0267041 -0.0530087 -0.191321
-0.141196 0.0927423 -0.21705
-0.0621668 -0.196274 0.056156
-0.337717 -0.101175 -0.14522
-0.035897 0.0471547 0.116286
-0.303866 -0.0757785 0.247909
0 0 0
0.128914 0.178323 -0.105255
0 0 0
-0.146628 0.0305265 -0.0550664
-0.11838 -0.247696 0.031016
0 0 0
-0.259532 -0.313644 0.0902082
0.00455378 -0.00383873 0.0194129
0.197832 0.0179472 -0.015022
-0.442714 0.267911 -0.205502
0 0 0
-0.0257242 -0.088645 0.000467692
-0.00546053 -0.0057849 -0.0472677
0 0 0
0.432849 0.174699 -0.193322
0 0 0
0 0 0
-0.118227 -0.122636 -0.130103
0.266243 -0.294212 -0.201569
0.194925 0.050707 -0.110974
0.0432718 -0.233719 0.374738
-0.0452217 -0.0270307 -0.0359511
-0.108534 -0.0995624 0.0106562
-0.493418 -0.256422 0.0148402
-0.000938806 0.021297 0.155793
-0.0833188 -0.0209655 0.000912467
0 0 0
-0.222781 0.0364233 0.0881087
0 0 0
-0.0358402 -0.039589 0.158608
-0.0477787 -0.0263243 -0.0213773
-0.26624 -0.126617 0.00168884
-0.364283 0.147991 -0.305673
0 0 0
0.260419 -0.224689 -0.28316
0 0 0
-0.0058104 -0.0709149 -0.256642
0 0 0
0.00700632 -0.115306 0.052829
-0.0494037 -0.0225977 -0.222593
0.00165713 -0.137313 0.129729
-0.000913937 0.0300157 -0.021328
0 0 0
0.280426 -0.31879 0.136222
0.221499 0.0866484 0.17763
0.00591952 -0.0393085 0.00178598
-0.0583597 0.105068 -0.0656027
0 0 0
0.213853 -0.273816 -0.347278
-0.0440077 0.451451 0.0876783
0 0 0
-0.242383 -0.0703978 -0.0100879
-0.132268 -0.122481 0.224427
0.0597111 0.355541 -0.0377928
-0.205295 -0.246018 0.1282
-0.0832891 0.166517 0.210349
0 0 0
0.0174413 0.0608628 -0.000658714
0.0644565 -0.00872102 -0.00330326
0 0 0
0 0 0
-0.1009 -0.146291 -0.0875061
0 0 0
-0.00283767 -0.10883 -0.0567723
-0.0835379 -0.204282 -0.177332
-0.026955 -0.130115 -0.417214
-0.183103 0.0209662 0.0951845
0 0 0
0.078211 -0.111845 0.132517
0.301353 0.0345226 0.218271
-0.188301 -0.209536 -0.0912536
0 0 0
0.0755802 -0.0829463 0.00497641
0 0 0
-0.0344615 -0.0329079 0.00125692
0 0 0
-0.298 0.00883943 0.241443
-0.273536 -0.297886 -0.128939
0.0561526 0.19351 0.155223
-0.0464197 0.143738 -0.020462
0.0128998 0.0354995 0.000284274
-0.0147305 -0.00592032 -0.051883
0.202554 0.222145 -0.17808
0.0914934 0.0193874 0.118952
0.240498 0.278876 -0.414272
0 0 0
0.277975 0.0555419 0.414088
0 0 0
0.0710868 0.139828 0.31308
0 0 0
-0.37406 -0.0591707 0.074154
-0.110546 0.118481 0.0616036
0 0 0
-0.248135 -0.11201 0.0481806
-0.156148 -0.151453 -0.0608105
-0.410519 -0.579787 -0.376911
0.00435239 -0.29031 -0.0344752
-0.140982 0.0955678 0.14807
0 0 0
0.205067 -0.268394 -0.105289
0.00868137 -0.104127 0.0164023
0.300161 0.0487186 0.159761
0.0299545 -0.0847574 3.73796e-05
0 0 0
0.0740628 0.099357 -0.0862325
0 0 0
-0.0351613 0.0573471 0.175942
0 0 0
-0.05796 0.198365 0.0613193
-0.0864879 -0.0469506 0.100872
0 0 0
0.0829594 -0.0772697 -0.0737891
0.173644 -0.0450879 0.0512912
0.0260342 -0.0820358 0.0759809
0.0968251 -0.0348062 0.0295666
-0.0147744 -0.384979 -0.375327
0 0 0
-0.285354 -0.379214 0.0710044
0 0 0
0 0 0
-0.275944 0.0377048 0.01653
0.0354468 -0.0270047 -0.0470149
-0.262085 0.118455 0.0285494
-0.23503 0.00376316 -0.0643892
-0.174508 0.119405 -0.317164
-0.212914 -0.122402 -0.334523
-0.0542544 0.141005 -0.210564
-0.0608366 -0.395328 0.276296
-0.105931 -0.0143788 0.0672777
-0.348056 0.085295 0.202149
0 0 0
-0.0446122 -0.0274033 -0.123946
0 0 0
-0.052604 -0.007961 0.000847907
0.235664 0.130129 -0.204836
0 0 0
0 0 0
0 0 0
0.000124747 0.133252 -0.00337774
0 0 0
0.0965453 -0.0645231 -0.285881
0.296358 -0.0447016 0.524918
-0.0225878 -0.011251 0.0346102
0.0836089 -0.0915962 -0.0506344
-0.004851 -0.368244 0.106333
0 0 0
0.193939 0.216884 -0.509322
-0.0578682 -0.374939 0.0399421
-0.107952 0.0229046 0.27723
0 0 0
-0.420883 -0.325299 0.109991
-0.0758899 0.0107536 0.121616
0 0 0
0 0 0
0 0 0
0.0846063 -0.0689558 -0.291833
0.0265836 -0.108661 -0.0245387
0 0 0
-0.195005 -0.25186 -0.0997239
-0.117587 -0.0477641 0.160341
0.0867757 -0.144292 -0.194106
0.366082 -0.0610553 0.150858
0.0469793 0.0933175 0.107521
0.334967 0.46305 -0.0506549
0.140523 -0.066703 0.144367
0 0 0
0 0 0
0.316947 -0.0830802 0.0584283
0.205098 -0.169426 0.185393
0.224213 0.381907 -0.238426
0.163038 0.0159651 -0.0515094
0.0784349 -0.119342 0.431324
0 0 0
0.022658 0.0245811 -0.0486108
0.124481 0.147589 -0.00224726
0 0 0
-0.0356703 -0.00918215 0.0455065
-0.0938069 0.0286187 0.281016
-0.0267859 0.00898089 -0.0207317
0.106038 0.0852193 0.0227706
0.099102 -0.0840652 0.00182377
-0.0227924 -0.0903118 0.344981
-0.0789102 -0.0480433 0.000608251
-0.0519077 -0.00926347 -0.0527011
-0.00900712 0.015419 -0.0137104
-0.189661 0.514587 -0.16122
-0.0819078 -0.148044 -0.343824
0 0 0
0.0304355 -0.0972321 -0.105917
0.0912529 -0.112055 0.00181871
0.0100583 -0.0067158 0.00844085
0.374031 0.213396 0.281167
-0.307021 -0.0597847 0.0501203
-0.224566 -0.0208056 -0.0168792
-0.22133 -0.108036 0.233978
0 0 0
0.15125 -0.160305 -0.0463305
0.0918727 -0.056686 -0.0368484
0.146489 -0.00309468 0.00412317
0 0 0
0.225524 -0.106875 -0.328635
0 0 0
-0.0424595 0.218372 0.3065
-0.133158 0.0504212 -0.112426
-0.123399 0.0203734 0.261791
0.0240195 0.0498878 0.222535
0.138469 -0.0558085 -0.0267607
0.382478 0.321802 -0.118023
0.259543 -0.0521192 -0.295126
0.269869 -0.222737 0.163269
0.108431 -0.0886535 0.087179
0.178847 -0.306663 0.254802
8.1357e-05 -0.18122 0.10266
-0.126015 0.119844 -0.00461206
0.00369393 0.0107314 -0.0605313
0.0256885 -0.235073 -0.00281044
0 0 0
0.18 -0.091296 0.00497297
0 0 0
0.0999129 -0.707508 -0.155965
0.193915 -0.273406 0.113104
0 0 0
-0.0464082 0.0536989 -0.321662
0 0 0
0 0 0
0.0455128 -0.0600415 0.127942
-0.0651267 0.00367285 0.57355
0.199236 -0.0379446 0.141949
0.0657852 0.0126868 -0.115581
0.0317553 0.0161072 0.0270881
0.051821 0.0663713 0.0652591
-0.000278692 0.0533955 -0.0509643
0 0 0
-0.0898652 -0.205571 -0.104539
-0.00219564 -0.0325976 0.0304793
0.154762 0.022435 0.0161567
0 0 0
0.0405372 -0.0577108 -0.279692
0.0126555 -0.00326598 -0.142746
-0.343955 -0.207945 -0.218426
-0.2651 0.157365 0.0296247
-0.278273 0.00864872 0.00124101
-0.128595 0.0654487 0.119893
0 0 0
-0.230154 0.1356 0.137026
-0.0959496 0.0324793 0.0234285
-0.0816801 0.0302967 -0.0383778
-0.210439 0.00661632 -0.0592869
0 0 0
0.230756 -0.00806627 0.115929
-0.0762422 -0.00821284 -0.105313
0.0359327 -0.00436967 0.0238253
-0.204538 -0.13942 0.140403
0.161339 0.0754564 0.094051
0.227572 -0.135632 0.13483
0 0 0
0.329242 -0.174315 0.0726892
0.00978913 0.0705612 0.0634451
-0.000593321 0.282979 -0.523795
0.133123 0.113825 -0.0459269
-0.0831766 -0.0504137 0.390255
0.0425037 0.184926 0.00140264
0 0 0
-0.197656 0.0632704 0.129272
-0.0833588 0.120692 -0.0920307
0 0 0
0 0 0
0.0208402 0.257924 0.129357
0 0 0
0 0 0
-0.107605 -0.292077 -0.0250226
0 0 0
0 0 0
0.39816 0.0382854 0.137221
0.438573 -0.24572 -0.0500408
0.0359187 0.00187767 -0.224263
0 0 0
0.144202 0.187683 -0.00400099
0 0 0
0.0616833 -0.452851 0.00933073
0 0 0
-0.0203698 0.392389 0.182181
0 0 0
0 0 0
0.116518 -0.19901 -0.109455
0 0 0
0 0 0
0 0 0
0.06959 0.000666073 -0.0015514
-0.209186 0.171357 -0.0602678
-0.147483 0.02686 0.133241
-0.00594526 0.172513 -0.268298
0.121219 -0.171678 0.018615
-0.397394 0.242225 0.142561
-0.0807821 0.0127321 0.249684
-0.0176081 -0.0161602 -0.0146955
-0.0011079 -0.00337814 -0.0612984
-0.450566 -0.330425 -0.0688167
0.0196608 0.0123777 0.0769045
0.00408942 0.0647178 -0.280298
-0.472529 -0.0523357 0.518353
-0.310643 -0.00771714 0.465323
-0.415479 0.090091 0.00705256
0 0 0
-0.525334 -0.0653925 -0.0656921
-0.322419 0.090081 0.0785221
-0.0568048 -0.0459678 -0.000211712
0.135694 0.574025 -0.162968
0.260304 0.0567909 -0.36704
0.228124 -0.0281304 0.0698164
0.164555 -0.367777 0.110999
0.0249613 -0.145529 0.154433
-0.042064 0.0771243 -0.103976
0.51871 -0.119265 0.0475992
-0.0250304 0.171887 0.14571
0.257199 -0.0873993 -0.270529
0.053082 -0.0279781 -0.102626
0.154265 0.0728495 0.00171709
0 0 0
0.15071 -0.126256 -0.0574334
0 0 0
0 0 0
0 0 0
0 0 0
0 0 0
0 0 0
0 0 0
0 0 0
0 0 0
0 0 0
0 0 0
0 0 0
0 0 0
0 0 0
0 0 0
0 0 0
0 0 0
0 0 0
0 0 0
0 0 0
0 0 0
0 0 0
0 0 0
0 0 0
0 0 0
0 0 0
0 0 0
0 0 0
0 0 0
0 0 0
0 0 0
0 0 0
0 0 0
0 0 0
0 0 0
0 0 0
0 0 0
0 0 0
0 0 0
0 0 0
0 0 0
0 0 0
0 0 0
0 0 0
0 0 0
0 0 0
0 0 0
0 0 0
0 0 0
0 0 0
0 0 0
0 0 0
0 0 0
0 0 0
0 0 0
0 0 0
0 0 0
0 0 0
0 0 0
0 0 0
0 0 0
0 0 0
0 0 0
0 0 0
0.0360203 0.151305 -0.0538126
-0.0074691 -0.0223703 -0.0430754
0 0 0
-0.13027 -0.00386071 -0.236384
-0.00715474 0.018246 -0.0258373
0 0 0
-0.0291102 0.0850106 -0.0338399
0.0660535 -0.213137 0.0136353
-0.0101213 0.19859 0.0421501
-0.0399006 -0.0202174 -0.129646
0 0 0
0.0611524 0.0117003 0.0684011
0.306345 -0.00949586 0.114524
0.00347458 -0.06795 0.0267631
-0.00035295 0.0296863 0.0479528
-0.0773498 0.0668122 -0.0230382
0.0586838 -0.0822226 0.057228
0.121657 0.0914876 -0.0255323
0 0 0
0.0257167 0.0288749 -0.135463
-0.0270205 0.0100772 -0.0692357
0 0 0
-0.00630345 -0.0151246 -0.0154058
-0.00854418 -0.0765345 -0.167645
-0.027763 0.057037 0.181833
0.011717 0.0584189 -0.0933418
0 0 0
-0.109503 -0.0246632 -0.0898414
-0.0358751 -0.00121173 -0.195102
0 0 0
0.0439784 0.0324833 -0.056727
0.0114351 -0.0430929 0.108997
0.00716517 0.0505934 0.0665299
-0.000456686 -0.124783 -0.0240492
0 0 0
0.0491 -0.00134659 0.157022
-0.0635402 -0.0301656 -0.0252375
0 0 0
0 0 0
-0.00355004 0.65542 0.206963
0.00363557 -0.56507 -0.110647
0 0 0
0 0 0
-0.0237064 0.0219457 -0.0163734
-0.151397 -0.00225944 -0.115723
0 0 0
0.0121887 0.0160824 0.00542593
-0.00828632 0.000971641 -0.0229821
-0.089396 -0.00179846 0.109513
-0.0102252 -0.102643 -0.0499936
0 0 0
-0.0353925 0.00384752 0.0661286
-0.0332362 0.176963 0.124691
0.00668071 -0.118763 -0.150354
0.132165 -0.00267514 -0.0252683
-0.124615 0.0373389 0.101707
-0.010358 0.00189493 -0.0967514
0.0437524 0.028575 0.0566953
0 0 0
-0.0257402 0.0265607 -0.01625
0.053586 0.00270497 0.0705186
0 0 0
-0.0559484 0.00205098 -0.0410326
-0.00469551 -0.0462516 -0.0351433
-0.0141842 0.110349 -0.0683797
-0.245163 -0.234403 0.299132
-0.0299364 -0.000919731 0.00682499
0.037187 0.103085 -0.220498
0.34937 -0.0995756 -0.396807
0 0 0
-0.110095 0.0360724 0.327777
0 0 0
0 0 0
0.204083 -0.0196668 -0.211291
-0.23389 0.536646 -0.0558298
0 0 0
-0.170206 0.0576567 -0.128528
-0.00110923 -0.158498 0.00342097
0.0209256 0.117041 0.0683602
0.0256326 0.289934 0.157586
0.329694 -0.146333 -0.321103
0 0 0
-0.0202178 -0.307999 0.087691
-0.106327 -0.0604641 -0.129616
-0.100365 -0.0709748 -0.207851
-0.260024 -0.00812302 -0.116845
-0.173856 0.232855 0.0426649
-0.057181 -0.0130619 0.10877
-0.145919 -0.12966 -0.268491
0.0852583 0.00284247 0.196623
0.0082463 0.0409003 0.0672386
0.211071 0.116867 0.170502
-0.157905 -0.0689691 0.0748099
-0.150751 -0.170412 0.117291
-0.0150991 0.0374041 0.00655676
0.00217098 -0.407685 0.203285
-0.0499603 -0.0379894 0.00311575
0 0 0
0.167872 -0.187085 -0.0996657
0.110279 -0.010161 -0.106626
0 0 0
0.00633134 0.072367 -0.0012082
0.0687379 -0.0488372 0.267602
0.0416765 0.0963356 0.154743
0.0032372 -0.112379 -0.109486
0 0 0
-0.151359 0.0790135 0.0554151
0.0300416 -0.0108506 -0.0582015
0.0503339 0.13306 0.22132
0.0457826 0.144301 0.0190009
0.0921108 -0.163586 -0.119025
-0.193715 -0.347159 0.216812
-0.167492 -0.384297 0.0823075
0 0 0
-0.040762 -0.0700225 -0.0144855
-0.480441 -0.316776 0.00944033
-0.0201209 0.0425994 -0.0302693
-0.223094 -0.110533 -0.0931053
0.279326 -0.24464 0.00173619
-0.00964101 -0.0121188 0.0295294
-0.0626536 0.00466051 -0.0309989
-0.0117407 0.246618 0.25178
-0.0903488 0.0233166 -0.00399082
-0.0276361 0.124198 -0.0612408
-0.0320773 0.299645 -0.0659943
0 0 0
0.243447 -0.133965 -0.504888
-0.299475 -0.423104 0.164774
0.0197637 -0.018968 0.0260594
0.0501103 -0.48066 0.228173
0 0 0
-0.0503139 -0.104982 0.0618022
0.0136675 -0.0938887 0.0950678
0.0352287 0.0302141 0.000300537
0.211555 0.248932 -0.13883
0.0740034 -0.1028 -0.041527
-0.074936 -0.152134 0.0836134
-0.0570811 -0.186695 -0.349243
0.0117115 -0.202897 -0.0805416
-0.00191011 0.0410427 -0.137424
-0.0614303 -0.0124041 -0.0537564
-0.0155345 -0.04896 0.000437412
0 0 0
0.179152 -0.128623 0.136433
-0.142818 0.0520875 -0.184627
-0.0178418 0.0202284 -0.0754313
0 0 0
0.179568 0.165436 -0.00151086
0.000175314 0.0124507 0.0134568
-0.0215582 -0.0093866 0.0110803
-0.249705 0.182925 -0.398574
-0.0559917 0.0100191 0.0453478
-0.0750889 0.0920475 -0.414364
-0.0766281 -0.0680364 0.026086
-0.0526273 -0.367648 -0.235082
0.273073 0.0313733 -0.247146
0 0 0
0.059208 0.0260021 0.158457
0.12155 -0.0510282 -0.0832328
0.276757 -0.483308 0.0959793
-5.49296e-05 -0.0253556 -0.0155344
0.194174 -0.496881 0.161684
0 0 0
-0.135088 -0.120624 -0.000294005
0 0 0
-0.350717 -0.120488 -0.177303
-0.180256 0.0253723 0.185219
-0.265428 0.100884 0.307171
-0.0615992 -0.406932 -0.0697111
-0.109678 -0.14353 -0.029848
0.00483671 -0.0465069 -0.0241118
-0.002288 -0.00571031 0.00888384
0 0 0
-0.371931 0.402321 -0.0472693
0 0 0
0 0 0
-0.0377011 -0.0474765 -0.115526
0 0 0
0.152467 -0.0752658 -0.000262122
0 0 0
-0.170866 0.108706 -0.000782514
-0.133237 0.0269478 0.136739
-0.0936073 -0.0712923 -0.0915795
0.00126954 0.014632 0.003162
-0.000921568 0.0686266 -0.03166
0.0659295 0.133508 -0.470646
-0.0767179 -0.184856 -0.172267
0 0 0