<?xml version="1.0"?>
<VTKFile type="RectilinearGrid">
<RectilinearGrid WholeExtent="0 32 0 32 0 32" Origin="0 0 0" Spacing="1 1 1">
<Piece Extent="0 32 0 32 0 32">
<PointData>
</PointData>
<Coordinates>
<DataArray type="Float32" format="ascii">
0 0.524874 1.04975 1.57462 2.0995 2.62437 3.14924 3.67412 4.19899 4.72386 5.24874 5.77361 6.29849 6.82336 7.34823 7.87311 8.39798 8.92285 9.44773 9.9726 10.4975 11.0224 11.5472 12.0721 12.597 13.1218 13.6467 14.1716 14.6965 15.2213 15.7462 16.2711 16.796 
</DataArray>
<DataArray type="Float32" format="ascii">
-5.03879 -3.62163 -2.20447 -0.787311 0.629849 2.04701 3.46417 4.88133 6.29849 7.71565 9.1328 10.55 11.9671 13.3843 14.8014 16.2186 17.6358 19.0529 20.4701 21.8872 23.3044 24.7216 26.1387 27.5559 28.973 30.3902 31.8074 33.2245 34.6417 36.0588 37.476 38.8931 40.3103 
</DataArray>
<DataArray type="Float32" format="ascii">
0 0.524874 1.04975 1.57462 2.0995 2.62437 3.14924 3.67412 4.19899 4.72386 5.24874 5.77361 6.29849 6.82336 7.34823 7.87311 8.39798 8.92285 9.44773 9.9726 10.4975 11.0224 11.5472 12.0721 12.597 13.1218 13.6467 14.1716 14.6965 15.2213 15.7462 16.2711 16.796 
</DataArray>
</Coordinates>
<CellData>
<DataArray type="Float32" Name="Vector" NumberOfComponents="3" format="ascii">
0 0 0
0 0 0
0 0 0
0 0 0
0 0 0
0 0 0
0 0 0
0 0 0
0 0 0
0 0 0
0 0 0
0 0 0
0 0 0
0 0 0
0 0 0
0 0 0
0 0 0
0 0 0
0 0 0
0 0 0
0 0 0
0 0 0
0 0 0
0 0 0
0 0 0
0 0 0
0 0 0
0 0 0
0 0 0
0 0 0
0 0 0
0 0 0
0 0 0
0 0 0
0 0 0
0 0 0
0 0 0
0 0 0
0 0 0
0 0 0
0 0 0
0 0 0
0 0 0
0 0 0
0 0 0
0 0 0
0 0 0
0 0 0
0 0 0
0 0 0
0 0 0
0 0 0
0 0 0
0 0 0
0 0 0
0 0 0
0 0 0
0 0 0
0 0 0
0 0 0
0 0 0
0 0 0
0 0 0
0 0 0
0.0180259 0.0867145 0.0213013
0.0860639 0.0469989 0.0145935
0 0 0
-0.0664156 -0.187112 0.00140803
0.0818655 -0.137146 -0.0364226
0 0 0
0.0815753 0.016753 0.0725516
0.0956524 -0.0143091 -0.0035007
0.158695 0.217949 -0.00534261
0.125288 -0.102183 0.013995
0 0 0
-0.187132 0.0422224 -0.0337535
0.0762232 -0.131305 -0.0549497
0 0 0
0.125302 -0.0958051 0.00400494
-0.117931 -0.0308103 -0.0907849
-0.109978 0.0721548 0.0918066
0.143727 -0.0185236 -0.0051294
0 0 0
-0.0246444 0.0155794 0.000646168
0.040753 -0.0732172 0.0353481
0 0 0
0.0910373 0.160212 0.0624878
-0.0054002 -0.00675726 0.0525091
-0.0353772 0.00604111 0.0384501
-0.0712229 -0.0114522 -0.00215308
0 0 0
0.0994313 -0.023237 0.019288
0.0152271 0.089638 -0.010994
0 0 0
0.0590877 0.207175 0.0610405
0.0136061 0.00639146 -0.021112
0.10967 0.292959 -0.156099
0.106246 -0.00587082 -0.0360132
0 0 0
0.204276 0.140698 0.000390713
-0.00480126 -0.027945 0.065016
0 0 0
0.280016 -0.0427895 0.0717824
0 0 0
0.014615 -0.0406269 -0.0741742
-0.093156 -0.0327545 -0.0462011
0 0 0
0.0305185 0.00195543 0.0222729
0.0958203 0.0769253 -0.0134337
0 0 0
-0.00783667 -0.0129623 -0.0464031
0.0391195 0.00203256 0.0378841
0.0480656 -0.050184 -0.0382271
-0.13409 -0.00916196 -0.139689
0 0 0
0.0796351 0.27335 -0.000340823
0.0122125 -0.0308942 -0.00216604
0 0 0
-0.0924622 0.161061 -0.0318891
-0.00253857 -0.0157046 0.0315834
-0.00408663 0.00267755 0.0270627
0.0966598 0.0970121 -0.0488714
0 0 0
-0.051033 0.00702639 -0.0506654
-0.419268 0.134613 -0.0423403
0.0019589 0.00628521 0.0313773
0.10898 0.0663627 -0.135695
0.0523593 0.0597801 0.14165
0.117576 -0.00186013 0.0275793
-0.00563652 -0.144415 -0.00291442
0 0 0
0 0 0
0.121717 0.11016 0.380929
-0.000279884 0.0101963 0.108012
-0.185118 -0.0404762 0.413974
-0.00300794 -0.0123947 0.0088004
-0.0853455 0.333892 -0.00416539
0 0 0
0.0209523 -0.119233 0.0323156
0.600262 0.0418815 -0.217925
0 0 0
0.154098 0.299518 0.204691
0.0327166 -0.00356548 -0.102679
0.0816593 -0.106747 0.0995355
0.187455 0.109163 0.112512
0.0992128 -0.115923 -0.0124258
0.0327328 -0.433561 0.281046
0.0223466 -0.272508 -0.14727
0.158535 -0.0610873 0.299759
-0.0442597 0.0582717 0.227764
-0.288476 -0.100472 0.00469319
-0.130674 -0.254988 -0.203974
-0.0322202 0.129356 0.0127899
0 0 0
0.0126888 0.257401 -0.0579881
0.105937 0.0290639 0.164286
-0.363863 0.0515114 0.11586
0 0 0
0.179753 -0.0549897 -0.115785
0.136583 -0.0160546 -0.0285702
0 0 0
-0.0266371 -0.0823321 -0.00190751
0.0320405 0.100461 0.0338746
0 0 0
0 0 0
0.30867 -0.527916 0.0276491
0.0549249 -0.00976536 -0.041923
0.109448 -0.143198 -0.103537
0 0 0
0.343428 0.0997541 0.461213
0.250388 -0.064101 -0.0649894
0 0 0
0.192187 -0.113418 0.14734
0.493906 -0.0156398 0.19738
0 0 0
0.0535621 -0.204661 -0.102195
0.113079 -0.0402762 -0.0263584
0 0 0
0 0 0
-0.336403 -0.271218 -0.371535
-0.0370544 0.105017 -0.11678
-0.0550989 0.342664 -0.304986
0.00890667 0.258199 0.265682
0.0192417 0.0199476 -0.0242766
-0.166785 -0.0845874 -0.119993
-0.0403142 0.0205615 0.121947
0.105762 0.384137 0.139402
-0.380824 0.137181 0.00428935
0.387034 -0.15215 0.159432
0.138249 -0.061798 -0.0701859
0.0967498 -0.124912 -0.264284
0 0 0
0 0 0
-0.0833734 0.0310263 0.090947
0.00231062 -0.120838 0.123307
0 0 0
0.000739253 0.0248799 -0.0529629
-0.0394396 -0.0234637 0.0497272
0.0643247 0.0247896 -0.199343
0.0492119 -0.0510049 0.10475
0 0 0
0 0 0
-0.237282 0.0627505 0.145817
0 0 0
-0.366878 -0.262911 0.00146777
0 0 0
-0.070694 -0.0115162 -0.0290496
0.000977026 -0.00964816 0.039508
-0.0799595 -0.306315 0.348124
0.01515 -0.181282 -0.0510771
0.0487271 -0.205348 -0.0177663
0 0 0
0 0 0
-0.0934345 -0.134381 0.200592
0.0275288 0.16556 0.096138
0 0 0
0.259947 -0.241083 0.0778758
0.129735 0.0454916 -0.231137
-0.0391758 0.109588 0.0602578
0.203331 -0.194391 0.162181
0.0608889 -0.00580177 0.0247503
0.0726104 0.0750997 -0.201599
0 0 0
-0.0843427 0.0745442 0.187126
0 0 0
0.04493 0.0776885 -0.159962
0 0 0
0.0495041 -0.740807 -0.120736
-0.0250658 -0.00106945 0.293935
0.207077 0.350215 0.0245431
0.00376177 0.00819817 0.00999814
0.376048 -0.294332 -0.0915879
0.0433544 -0.0484151 -0.0313652
0 0 0
0 0 0
-0.36263 -0.00550282 0.167232
0.0815398 0.0863856 -0.232392
0.141695 0.0406304 -0.00148005
-0.0190814 -0.0216032 0.0497943
0.0414767 -0.229492 -0.160596
0 0 0
-0.158411 -0.0244373 0.150524
0 0 0
-0.306969 -0.109717 -0.374962
-0.121349 -0.338953 0.270536
-0.284409 -0.36631 0.0146372
-0.288898 0.0120175 0.124839
-0.0578532 -0.0507382 0.396189
0 0 0
0.0194311 -0.238891 0.0857217
0 0 0
0.0599215 0.0465369 -0.026911
-0.166835 0.00144527 -0.0652549
-0.337303 -0.0839651 0.0279287
0.0198607 0.0259291 -0.00245381
-0.261753 -0.0846691 -0.249305
-0.226199 -0.0752039 -0.516645
0.123578 -0.12184 -0.0621171
0 0 0
0.0234539 -0.286758 -0.130601
-0.176637 0.0253997 0.0328082
-0.139441 -0.217628 -0.00679923
-0.273239 -0.041241 0.209589
-0.20312 -0.162502 -0.116699
-0.236068 -0.146282 0.0213977
-0.284236 -0.0181453 -0.0997418
-0.0472304 -0.0140795 -0.01668
-0.201703 0.240175 0.00259128
0 0 0
-0.0211925 0.0724522 -0.00104988
0.00664916 -0.0414498 -0.0543847
0.00326451 -0.0201999 -0.0530371
0.0483271 -0.195301 0.0551963
0 0 0
-0.117512 -0.236984 -0.0162151
-0.0447525 -0.0750281 0.0329491
-0.0433933 -0.0605082 0.0468476
-0.264233 -0.267032 0.0471833
-0.0209605 0.0622644 -0.00617991
-0.238424 -0.22228 -0.200491
0 0 0
0.0412531 -0.349794 0.156425
-0.164482 -0.0609921 -0.00607591
0.139758 0.12304 -0.114071
0.0092677 -0.0640774 -0.169044
0 0 0
-0.133937 -0.246425 -0.437902
-0.00397965 0.053852 0.0348018
-0.273833 -0.0834973 -0.454145
0.00242022 -0.209304 0.0149589
0.264394 -0.308766 0.065338
0.00821925 -0.00581818 -0.0115689
0.0154532 -0.0569629 -0.113978
0 0 0
-0.13003 0.193073 0.109275
-0.0123148 -0.00556604 0.0386359
0 0 0
0.0620236 -0.104142 -0.203889
0.000285208 -0.100257 0.0298852
-0.0410932 0.00636976 0.059331
-0.155316 -0.0200102 -0.0615673
-0.0243677 0.0105129 -0.0343453
0 0 0
0 0 0
0 0 0
0.0225215 0.340854 -0.129765
-0.133944 -0.00975654 0.092641
0.167067 0.018026 0.0293361
0 0 0
0.0690531 -0.179633 0.072788
0 0 0
-0.0924568 0.0177551 -0.00499061
0 0 0
0.120025 0.0277998 -0.0494267
0.168002 0.0395056 -0.0621504
-0.00463735 0.10554 -0.063965
-0.318063 0.329234 -0.0344254
0 0 0
-0.017095 -0.0549144 -0.279223
-0.132919 -0.115314 -0.0583204
0 0 0
-0.280148 -0.458892 0.124653
-0.211554 0.223716 -0.0501276
0.107001 -0.0292462 0.070167
0.185494 -0.0339617 0.0626544
-0.0387738 -0.058448 0.167396
-0.263394 0.171695 -0.0134869
0.268567 -0.157278 0.0611233
0.324725 -0.145449 0.0590477
0 0 0
-0.0315427 -0.0870061 0.0489448
0.186853 -0.0593576 0.176496
0.174089 0.223098 0.0113538
0.112201 -0.089777 0.0778256
0.0761961 -0.211841 -0.187614
0.0486014 -0.0244671 -0.0824223
0.172632 -0.374397 -0.0123683
-0.00838274 0.000529402 0.051578
0.0925649 0.243256 -0.227885
0 0 0
0.365593 -0.151993 0.187868
0.121769 -0.25364 -0.125211
-0.00770353 -0.0823949 0.0629506
-0.0130202 -0.0125239 -0.00474126
-0.211799 0.0611611 -0.0401713
0.00172956 0.160944 -0.0450062
0 0 0
-0.310602 0.275486 -0.219565
0 0 0
-0.0109234 -0.0821311 -0.0804529
0.164321 -0.0243328 -0.0386079
0 0 0
-0.0267192 0.220906 -0.141888
0.00276102 0.0936841 0.0105518
-0.240585 0.0554045 0.258337
-0.0763672 -0.348754 -0.223623
-0.217147 0.0910283 -0.129554
-0.152584 0.132327 -0.130342
-0.132977 0.092119 0.174014
0.172277 -0.0860012 0.102314
-0.0686907 0.1059 -0.203492
0 0 0
0 0 0
-0.325576 0.344212 0.161228
-0.0451921 0.00782196 -0.0118257
-0.232459 -0.158245 -0.314183
0 0 0
0 0 0
-0.0443402 -0.000436378 -0.156026
0 0 0
0.31259 -0.37847 -0.259485
0.418475 0.100239 -0.0637123
0.0324481 -0.103373 -0.109486
0 0 0
0.0434188 0.0178716 0.167864
-0.0601761 0.167983 -0.345172
0.149654 0.178678 0.29832
-0.331573 0.0307074 -0.393815
0 0 0
-0.0563887 0.0240507 0.000652935
0 0 0
0.00572244 -0.0159818 -0.0545624
-0.0539619 -0.31509 0.0738596
0.0997097 -0.110016 0.134657
0 0 0
0.0364768 0.219772 0.194972
-0.00162329 -0.0479473 -0.0744679
0.0722275 -0.342406 -0.196267
-0.00152343 0.00205765 -0.0489162
-0.0897103 -0.19238 -0.0464072
0 0 0
0.0681683 -0.211213 -0.0780052
0.096728 0.0636861 0.0272407
-0.41481 0.316165 -0.143838
0 0 0
-0.0141502 0.00868037 0.0695947
-0.00345864 0.00408536 -0.010785
-0.0748998 -0.0108024 -0.0340856
-0.223193 -0.294603 -0.120208
-0.000384084 -0.0274893 -0.00963832
-0.257532 -0.106059 -0.00536655
0.0181726 -0.00351446 0.110186
0.192581 -0.226033 -0.0372893
0.0392622 0.0673489 0.386819
0.257303 -0.321423 -0.292514
-0.125594 -0.115511 -0.0573623
0.0518963 -0.0660932 0.2585
-0.2315 0.0497511 0.367976
0.248859 0.563522 -0.313059
0 0 0
0 0 0
-0.185533 -0.0342669 0.156528
0 0 0
0.190871 -0.185908 0.242049
0.0572269 -0.169459 -0.00844681
0.0909751 -0.224976 -0.0578049
-0.0103487 -0.0158474 -0.0676609
0.115852 0.227367 -0.174136
-0.0725034 0.0250038 -0.0143732
0.0129455 -0.0691767 0.00371359
0 0 0
0 0 0
0.237627 -0.16604 -0.225434
0 0 0
-0.122916 -0.0377287 0.0523618
-0.051722 0.0665468 -0.0440442
-0.0443192 -0.000722927 0.042147
0.138993 -0.126141 -0.104581
0 0 0
0.115701 -0.0384012 0.071064
0 0 0
0.16048 -0.201581 -0.00180631
-0.148513 -0.00712296 -0.0553543
0.0317898 -0.11907 -0.0388941
0.281166 0.132888 -0.301541
0.00867869 0.0275457 0.00180743
0 0 0
0.100635 -0.249143 -0.478684
-0.0134563 0.0356408 0.021281
-0.275496 -0.16525 -0.0179893
-0.00080486 -0.0350316 0.116556
-0.0775472 -0.415013 -0.39368
0 0 0
0.0661001 0.00241661 0.00656394
-0.0988839 0.171217 0.44181
0 0 0
0.0633121 -0.114602 -0.42809
0 0 0
0.212375 -0.283655 -0.0491805
0.0897407 -0.0575094 -0.0558615
0 0 0
0 0 0
0 0 0
0.0527145 0.0226168 0.0550065
-0.0230568 0.147613 0.116772
-0.523285 -0.0175684 0.212404
-0.0900918 -0.154642 0.0626349
-0.246198 -0.0842546 -0.187568
0.0210667 0.0232149 -0.00687244
-0.234182 -0.139701 -8.00479e-05
-0.193723 -0.139166 0.488413
-0.242495 0.300768 -0.04029
-0.19436 0.0873191 -0.0125169
-0.186518 0.303497 0.213171
-0.0417301 0.0855645 0.1067
0.0454137 0.166124 0.000631362
0.118811 0.0994381 0.0120627
0.086655 -0.184594 -0.0611697
0.134844 -0.0719783 -0.000721496
0 0 0
-0.0584979 0.101154 0.0839955
-0.0745559 0.144445 -0.199891
-0.293119 -0.155974 0.205286
-0.22636 -0.236269 -0.254385
-0.191224 -0.091758 -0.0691125
-0.175633 0.182929 -0.437204
-0.0115214 -0.00118829 -0.00465698
-0.0118771 -0.0716268 -0.127215
0.0192056 0.00122754 -0.022157
-0.0462047 0.0606346 0.152645
0.0652588 0.0628362 0.258831
0 0 0
-0.0921801 -0.14981 0.172636
0 0 0
-0.119123 0.00753719 -0.0823144
0 0 0
-0.0953989 0.420819 0.324508
0 0 0
-0.176955 0.22748 0.0700594
0 0 0
0 0 0
0 0 0
0 0 0
0 0 0
-0.022787 0.170309 0.00302558
-0.00222686 0.00432462 0.00637174
0 0 0
0 0 0
0.0106664 0.354419 0.0901844
0.00432416 0.00288624 -0.00944065
0 0 0
-0.140475 -0.187563 -0.240819
-0.0908225 0.0529677 -0.102888
0 0 0
-0.129611 -0.420309 -0.0680667
-0.0229092 -0.060425 -0.0246037
0 0 0
0.00680893 0.0793789 6.77074e-05
0 0 0
0.0410887 -0.254626 -0.159813
0 0 0
-0.0536492 0.093367 -0.101465
-0.22749 0.458682 -0.0190742
-0.162496 -0.00451666 0.0380478
-0.188511 -0.297404 -0.123168
-0.179555 -0.102486 0.0401133
0.0246397 0.0478143 0.140072
-0.0540791 0.0691758 -0.022852
0 0 0
0.0463338 0.134502 0.117671
0.0853282 -0.0708164 -0.0270452
0.140693 0.0427046 0.0239309
0.346698 -0.142633 -0.0693416
0.00310261 0.581697 0.111766
0.103829 0.0951577 -0.0872688
0.123319 0.182221 -0.235398
0 0 0
-0.0141541 0.0334089 -0.0466061
-0.26108 0.237617 0.135641
0 0 0
0.114191 0.0344336 -0.0111488
0.617989 0.546731 -0.685892
0.521554 -0.119544 0.347636
0.262106 0.109282 0.0740269
-0.00314263 -0.0132657 0.0757878
0.087909 0.159548 -0.215718
0 0 0
-0.0759464 0.210573 -0.315761
0.0239474 0.306952 0.214051
0.016816 0.0528934 0.0297172
0 0 0
0.0319376 -0.195758 0.155892
0 0 0
-0.00633283 0.00990895 0.0256745
-0.166469 0.190681 -0.0448404
0.0670513 -0.0664378 0.158398
-0.0236955 -0.218622 -0.0487543
-0.158796 -0.00236443 0.00484823
0.184838 0.197671 -0.155904
0 0 0
-0.280213 -0.137301 0.567474
0 0 0
-0.338479 0.0973313 0.256778
-0.308271 -0.0511732 0.0614952
0 0 0
0 0 0
-0.00626635 0.0357991 -0.0211665
-0.172951 0.363287 0.00317233
0.106022 -0.137274 -0.308332
0.0270031 0.0602425 -0.0791035
0.06433 -0.15592 -0.147206
0.14452 -0.0384038 0.00565635
-0.219942 -0.00566487 0.135076
-0.128977 -0.0899246 -0.131365
0 0 0
0.118419 0.490946 -0.166927
-0.183471 0.202332 0.0964595
-0.291131 -0.0710135 -0.0608276
0.02922 0.0585074 -0.0474536
-0.0045574 -0.280058 0.098668
0.259048 -0.0692883 0.156787
0.259853 -0.0514283 0.144925
0 0 0
0.344968 0.261482 -0.0515794
0.000800649 -0.0191948 -0.0645848
-0.0546493 -0.00971603 -0.0680993
0.457006 -0.0800936 -0.374137
0.160804 -0.100464 -0.114281
0 0 0
0.169685 0.28068 0.337987
0.00152954 -0.0942562 0.125281
0.418889 -0.297342 -0.216834
0.000891521 -0.391594 0.371109
0.000803357 -0.028315 0.111068
0.141248 0.0664534 -0.0647413
0.108517 -0.309337 -0.00686068
0.0114497 0.00843697 -0.106426
0 0 0
0 0 0
0.209772 -0.0153021 -0.211749
0.103544 -0.0273269 -0.00520818
0.422298 -0.191392 -0.00380257
0.206438 0.180743 0.0929031
-0.283832 0.276815 -0.21511
-0.270873 0.0454326 0.0371078
-0.034085 0.194678 0.221568
0 0 0
-0.0959698 0.0606431 0.0878511
0.128487 0.199648 0.387159
0.0713167 -0.175727 0.0715749
-0.233938 -0.29716 0.00304169
0 0 0
0.188745 0.145093 -0.0658028
-0.0269119 0.000829872 0.0147749
-0.10928 -0.0274245 -0.182751
0.00611608 0.113451 -0.0305734
0.135607 -0.161615 -0.13769
-0.0831687 0.0361023 -0.0553388
-0.224908 0.0109096 -0.135019
-0.121151 0.179419 0.00148956
0.123533 -0.0750269 0.156416
0.0142288 0.0763354 -0.0834374
0 0 0
0 0 0
0.138005 -0.255824 0.0395451
0.31572 0.21975 0.0327607
0.125835 -0.017329 0.065751
0 0 0
0.287717 0.0706622 -0.113253
0.00701333 0.0482674 0.047413
0 0 0
0 0 0
0.0610193 -0.164571 -0.171962
0.1074 -0.0909182 0.00880917
0 0 0
0 0 0
-0.0432053 0.0585556 -0.000318679
0 0 0
0.148774 -0.0597733 0.0802414
0 0 0
0 0 0
-0.0402532 0.139343 0.310879
0 0 0
0.00471097 -0.088222 -0.0457819
0.0295663 -0.0239954 0.185831
0 0 0
-0.0949008 0.357088 -0.272305
-0.0394737 0.221592 0.103363
-0.209456 0.216097 0.207415
-0.284469 -0.16284 -0.0612391
-0.000456327 0.108067 -0.00174567
0.0507998 0.154139 -0.107236
-0.00217803 -0.00131006 -0.112479
0.000690644 0.0251153 -0.341106
-0.188383 -0.145829 0.142002
-0.0851432 0.175171 -0.140882
0.0183863 -0.15966 0.0347863
-0.0206836 0.0532702 -0.057941
-0.040681 -0.00776988 -1.75234e-05
-0.153719 -0.0683542 0.274235
0.166941 0.207058 0.0752446
-0.11426 0.0954692 -0.0806669
-0.261381 0.193412 -0.0886335
-0.126835 0.0764408 0.128689
-0.171741 0.133491 -0.200435
0 0 0
-0.122932 -0.0932804 -0.135201
-0.339867 -0.288192 0.000624567
-0.0151909 -0.197379 0.0197835
0 0 0
0.00422848 0.214469 -0.0248999
0.00377489 0.315342 0.023742
0 0 0
0.087303 0.051894 0.120075
0.068054 -0.08273 0.0428773
-0.00625954 -0.116637 0.0580287
-0.0134703 -0.137863 -0.0601932
0.0412016 0.012066 0.0615273
-0.112817 -0.00597963 -0.195211
0 0 0
-0.0585832 0.0193453 0.351292
-0.148629 0.162082 -0.0374729
0 0 0
-0.0403042 0.186125 0.0651287
-0.0992318 -0.218568 0.11998
-0.0783825 0.0966755 -0.031057
0 0 0
-0.212518 -0.376355 -0.0844784
-0.0215565 0.0135328 -0.0716697
-0.0426927 -0.598563 0.112458
0.00465113 0.0769144 0.0645495
-0.181972 0.0309941 0.132272
-0.0456684 -0.0476178 0.196801
0.0144932 0.00147342 -0.00332467
0.0593459 0.249405 -0.129843
0 0 0
-0.0210161 -0.0298475 -0.0403861
-0.00933355 0.0191485 -0.156068
0 0 0
0.05175 -0.159031 0.139446
0 0 0
-0.033381 0.0130455 0.134386
-0.0441344 0.0754549 0.0690258
0.000572045 0.074432 0.0674678
0.0415828 -0.118132 -0.0224332
0.177598 0.0493788 0.0343097
0 0 0
-0.143755 -0.0985967 0.0605539
0.0125486 -0.0153851 -0.00601787
0.202878 -0.232735 0.13245
-0.000419522 -0.00910404 -0.137995
-0.273001 0.0703314 0.184157
0 0 0
-0.261775 0.179115 -0.25697
0 0 0
-0.293526 -0.27011 0.00308744
-0.318832 -0.0676485 -0.123049
0.113851 -0.00869574 -0.0625602
0 0 0
0.0503298 0.0600679 -0.200025
-0.156713 -0.489528 0.0121446
-0.0882398 -0.0568591 -0.161851
0 0 0
-0.208764 0.00398995 -0.0491931
0.0151517 0.10229 0.0224981
-0.247669 0.248353 0.0766359
0.0712251 0.17293 0.137909
0.0697044 0.199169 -0.145481
0.215397 0.371459 0.111636
0.0763716 0.345509 -0.15582
0.315546 0.547656 0.102861
0.155472 -0.0659541 -0.156764
0 0 0
-0.101231 0.157215 -0.102079
0 0 0
0.122501 -0.107632 -0.180354
0.105071 0.157629 0.167522
0 0 0
0 0 0
0.00903314 -0.539866 -0.119394
-0.0390626 0.00552362 -0.0396391
-0.115672 -0.0343289 -0.0357075
0.207964 0.150112 -0.0129276
-0.301678 -0.0548985 0.0131604
0.146013 0.355992 -0.0742103
0.16696 -0.102696 -0.281611
-0.050138 0.111492 0.132344
-0.03445 0.0243167 -0.131703
-0.142306 0.0346658 -0.0636929
-0.0734089 0.069652 0.0693665
-0.123472 -0.135274 0.152777
0 0 0
-0.130517 0.244543 0.139792
0 0 0
0.132061 -0.170783 0.0118376
-0.00978624 -0.0626497 0.00977617
-0.0831483 -0.0330103 -0.000425813
0.00404588 0.0281731 0.0252643
0.0799576 0.324381 0.458859
0.25462 0.615187 -0.00181367
0.09839 0.644998 -0.155304
0.266381 0.145713 0.112932
0 0 0
0 0 0
0 0 0
-0.0907917 0.119905 0.00114601
-0.0240704 0.050457 -0.100366
0.339425 -0.103958 -0.421311
-0.00479094 0.26722 -0.103138
-0.0547071 -0.0021712 -0.142643
0 0 0
-0.11084 -0.105218 0.08787
0 0 0
-0.342667 -0.539564 0.118159
0 0 0
0 0 0
0.00858453 0.0983998 -0.000454969
0.246989 -0.00347596 0.209293
-0.0179309 -0.00266554 -0.0169011
-0.0164581 0.14766 0.144659
0 0 0
0 0 0
0 0 0
-0.215716 -0.00952522 0.109694
0.0633232 0.348348 -0.000333732
0.100331 0.137026 -0.155908
0.364668 -0.101509 -0.0708987
0 0 0
0 0 0
0.0539931 -0.0258606 -0.0281153
0 0 0
-0.145231 0.312449 0.169295
-0.138747 0.117061 0.28641
0 0 0
0 0 0
0 0 0
0.344489 0.0571675 -0.006693
-0.206976 -0.00955859 -0.260582
0 0 0
0.441955 -0.266967 -0.19551
0.0213909 -0.0717564 0.0504183
0.0787289 0.0192595 -0.16978
-0.0307273 -0.0540452 -0.0550941
-0.0201271 0.17535 -0.305859
0.00542771 -0.0029676 -0.000447083
-0.0241477 -0.0976171 0.034075
-0.253242 0.0354033 0.0431427
-0.00965021 -0.00330275 0.251644
0 0 0
0 0 0
-0.283798 0.158021 0.0155053
0 0 0
0 0 0
-0.280746 0.423132 0.3021
0 0 0
0.146227 -0.13661 -0.101127
0 0 0
-0.136027 0.0996072 -0.00256251
0 0 0
0.0830791 0.364269 0.187275
0 0 0
-0.0309293 0.170445 0.364394
0 0 0
0.00361725 -0.194528 0.0399535
0.0732747 -0.0667414 -0.166385
0 0 0
-0.038482 0.136183 0.0894275
0 0 0
0.208908 0.031312 -0.190447
0.133361 0.0478437 -0.0425099
0.0523634 -0.0679443 0.0787681
-0.00159231 -0.11534 0.0130385
-0.0543519 0.106147 -0.146082
0.0753513 0.0445468 -0.0267951
0.0235544 -0.0758826 -0.227381
-0.15871 -0.00733016 -0.0671144
0.498582 -0.0569043 0.0366393
0.000269016 0.0200146 0.0557786
0.0535024 -0.0517076 0.103636
0 0 0
-0.0267971 -0.0382404 -0.251479
0 0 0
-0.116662 0.0134624 -0.102332
-0.100596 0.0632143 -0.00118968
0 0 0
-0.18154 0.324425 0.00718912
-0.0125327 0.0268209 -0.00746289
0.0424229 0.270852 -0.199994
0 0 0
0.100352 0.216035 0.00462626
-0.278307 0.0389028 -0.203705
-0.0625006 -0.000751957 0.296097
0.0359327 -0.00435793 0.000794984
0.0402288 0.026403 0.00400831
0 0 0
0.11754 -0.0386361 -0.312218
0 0 0
0.144914 0.0356262 -0.0249187
-0.00953027 0.0418113 0.0152752
-0.129681 0.257484 -0.0477544
-0.00158125 0.0422276 0.076934
0.123687 0.207628 0.356572
0 0 0
0 0 0
-0.0213753 0.0992299 -0.109095
-0.131479 0.0776727 0.143303
0 0 0
0.030166 -0.182708 0.134719
0.130693 -0.318255 -0.022995
0 0 0
0.156352 -0.426681 -0.428951
0 0 0
-0.297544 -0.646808 -0.50859
0 0 0
-0.000125351 0.00195039 -0.0207318
0.151418 0.110435 -0.00937161
0.00760212 0.0025371 0.00619502
0 0 0
0 0 0
0.0621311 0.248214 -0.120132
0 0 0
0 0 0
0 0 0
0.355158 0.00144888 -0.0725743
0.219315 -0.541044 0.00207553
-0.148044 0.00888846 -0.0223468
0.024764 0.0100032 -0.0475848
0.31818 -0.358486 0.250176
0 0 0
0.0270517 9.58794e-05 0.000761113
-0.0223609 -0.0406121 0.055797
0 0 0
0 0 0
-0.219123 -0.00416353 -0.145279
0.463941 0.628697 -0.0295019
0 0 0
0 0 0
-0.0296031 0.198842 0.0952283
-0.136293 0.269731 0.0699053
0.0104427 -0.000674762 0.00789287
0 0 0
0 0 0
0.00209322 -0.0574228 0.0151155
-0.304205 -0.564655 -0.0157116
-0.0226562 0.0253065 0.149565
-0.3691 0.097257 -0.0351714
0 0 0
-0.0822982 0.205195 0.0958127
0 0 0
0 0 0
0.120557 -0.119387 0.140703
0.130148 -0.0410448 -0.0837546
0.123612 -0.059126 0.0540453
0.213203 -0.115156 0.115708
0.0193125 0.0487889 -0.00158636
0 0 0
0 0 0
0.23213 -0.226512 0.315719
0.0143905 -0.0404123 0.0508325
-0.0145891 -0.0718234 -0.126966
0.0215132 0.0606179 0.115509
0.0568665 0.0111274 0.127211
0.30145 -0.242294 0.196383
0.0352978 0.0712426 0.0157396
0.158508 0.155478 -0.0462986
0.10855 -0.0980265 0.0216012
0.253537 -0.0754087 -0.497277
0.0166324 -0.0913146 -0.0981002
-0.161711 0.139572 -0.00987496
0.0661716 0.179716 0.0854995
0.145225 -0.117358 0.24495
0.125786 0.30457 0.223
0 0 0
0.134806 -0.26539 0.00380979
0 0 0
0 0 0
-0.0150578 0.0350964 -0.0175189
-0.448882 0.00157672 0.313806
0 0 0
0 0 0
0.0957794 0.563664 -0.0936747
0 0 0
-0.0193503 0.358066 -0.065274
0 0 0
-0.0311461 0.0859346 0.180712
0 0 0
0.263567 0.0728707 0.0577224
0 0 0
-0.0917513 0.0933237 0.0899489
0 0 0
0 0 0
-0.0330252 0.0772197 0.00589192
-0.137131 0.141923 0.186667
-0.0202336 -0.0313724 0.0378972
-0.112124 -0.107052 0.0384231
0 0 0
-0.0908873 0.111925 0.0406538
0 0 0
0.12079 0.217312 -0.150202
0 0 0
0.0587306 -0.102011 0.104756
0 0 0
0.0550546 -0.30644 -0.0999942
0 0 0
0.146332 0.00727911 -0.0229959
-0.116725 0.0215416 -0.0484509
0.140316 0.0775212 -0.214255
0 0 0
0 0 0
0.142092 -0.00182362 0.0920901
-0.131318 0.153903 -0.0779575
-0.0540442 0.00353803 -0.0695051
-0.410758 0.216645 0.131514
0 0 0
-0.0306265 0.293137 -0.112413
0 0 0
0.155388 -0.0786514 0.0309749
0 0 0
0 0 0
-0.0833798 0.0417784 -0.000956932
0.0605086 -0.0407248 -0.129373
0.120207 -0.0853411 0.127901
0.176289 0.197316 0.0496202
0 0 0
0 0 0
0.0785273 -0.0931746 -0.0957125
0.0701102 -0.144471 0.528883
0 0 0
0.0327768 0.248292 -0.281379
0.0481116 -0.0469311 0.00754952
-0.00709593 0.205136 -0.164384
-0.0561078 -0.076868 -0.0345984
-0.104743 -0.24695 -0.1707
-0.000220794 0.0782493 0.0402901
-0.145747 0.149621 0.197032
0.000168585 0.0466436 0.190734
-0.144602 0.249636 0.235723
-0.215202 0.132439 0.327443
0 0 0
-0.0543136 0.018656 -0.0848142
-0.0389446 -0.139052 -0.116286
0.0777064 -0.0728466 -0.244527
-0.00166327 -0.0154926 0.0573712
0 0 0
0.265564 0.0349206 -0.167946
0.14935 0.221473 0.295836
0.0793992 -0.0838668 0.1671
-0.0811587 -0.0815031 -0.0933398
0.0400424 0.038847 -0.0514405
-0.0637156 0.0106983 -0.152754
0 0 0
0 0 0
-0.000938239 -0.0572896 -0.0388138
-0.125036 0.209126 0.273757
-0.399703 0.0249545 -0.325269
0 0 0
-0.015031 -0.152971 -0.164712
0 0 0
0.0103242 -0.128519 0.109976
0.256364 -0.0744576 0.0530186
-0.270085 -0.0732856 -0.0413926
0.0231696 -0.0165415 -0.000614966
0.0447264 0.02058 -0.0900694
0.497754 0.222217 -0.265058
0.0284279 0.0205649 0.0637324
0.18343 0.0732459 -0.0986276
0.00280031 -0.0839725 0.135723
-0.00112321 -0.036162 0.0497944
0.0487282 0.0423796 0.279254
0.00138853 0.0555098 0.0839604
-0.00189171 0.1328 0.0258145
0 0 0
0.311196 -0.249915 0.078675
-0.0672199 0.046546 -0.18028
0 0 0
0 0 0
0 0 0
0 0 0
0 0 0
0 0 0
0 0 0
0 0 0
0 0 0
0 0 0
0 0 0
0 0 0
0 0 0
0 0 0
0 0 0
0 0 0
0 0 0
0 0 0
0 0 0
0 0 0
0 0 0
0 0 0
0 0 0
0 0 0
0 0 0
0 0 0
0 0 0
0 0 0
0 0 0
0 0 0
0 0 0
0 0 0
0 0 0
0 0 0
0 0 0
0 0 0
0 0 0
0 0 0
0 0 0
0 0 0
0 0 0
0 0 0
0 0 0
0 0 0
0 0 0
0 0 0
0 0 0
0 0 0
0 0 0
0 0 0
0 0 0
0 0 0
0 0 0
0 0 0
0 0 0
0 0 0
0 0 0
0 0 0
0 0 0
0 0 0
0 0 0
0 0 0
0 0 0
0 0 0
0.0333653 -0.154972 0.217485
0.150946 -0.0421713 0.114145
0 0 0
0.0250073 0.0571731 0.114267
-0.135179 0.0621701 0.023768
-0.00867124 -0.128342 -0.061215
0.0165789 -0.0136615 -0.00896815
0.0419166 -0.0899063 -0.0139368
0.0548246 0.200078 0.0540503
-0.185087 -0.0245561 -0.0392571
0 0 0
-0.118132 -0.0314932 -0.115819
-0.138527 0.00613736 -0.127439
-0.000691574 0.000873564 0.00822545
0.08586 -0.00827114 0.0480535
-0.00373076 0.0109417 0.15255
-0.0182401 -0.102773 -0.0608501
0.0675564 -0.0589286 0.0409657
0 0 0
-0.0187419 -0.017563 -0.196819
0.0740546 -0.115246 0.0708306
-0.00305123 0.00738751 -0.0483029
-0.119435 0.0782802 -0.158101
0.029708 -0.148275 0.125863
0.0093803 0.135956 -0.140127
-0.0618843 0.0587261 -0.0168128
0.00622668 -0.14922 -0.318895
0.0339544 0.0840022 0.187172
-0.126065 -0.0838176 -0.0208438
0 0 0
-0.0979886 -0.0562786 0.039429
0.0538129 0.00992201 -0.0885983
0.0266148 -0.00333953 -0.044259
-0.0262865 -0.044232 -0.00904514
0 0 0
-0.0375822 0.00461403 -0.0334149
0.0378753 -0.0306649 0.0110487
0 0 0
0.194855 -0.00108333 0.00963404
0.0649294 0.0987018 -0.237851
0.0445668 -0.0489976 0.198713
-0.0373933 0.0021644 0.157405
0 0 0
-0.0383141 -0.014558 -0.030074
0.0509844 -0.00571766 0.0272983
0 0 0
0.015494 0.0716519 0.0249989
0 0 0
-0.00852581 -0.00841963 -0.0374988
0.00337916 -0.150759 0.0550152
0 0 0
0.0116219 -0.000676437 0.065989
0.0888145 0.0859893 -0.0295756
-0.0069568 -0.318139 0.0418831
0.0446537 0.00101704 0.215346
0.15231 0.313022 0.13796
-0.000223755 -0.231544 -0.132796
0.000835863 0.0111106 0.12218
0 0 0
-0.0241989 0.0294197 -0.0166792
0.0420273 -0.0542145 0.00702964
0 0 0
0.102127 0.0411785 -0.0559689
-0.0105047 -0.0925889 -0.0761125
-0.187445 -0.0283637 -0.0462821
0.168998 0.104441 -0.0587886
-0.00113057 -0.100109 0.0117184
-0.180222 -0.173069 0.511886
-0.0169336 0.0202069 -2.80514e-05
-0.0658328 0.0344448 0.021003
0.126022 0.107643 0.302409
-0.0585384 0.000484791 -0.0953236
0.477758 0.214067 0.0880636
0.0607252 0.277527 -0.101281
0.186975 0.0475547 -0.251622
-0.128306 -0.31659 0.360808
-0.073798 -0.0574816 0.0781663
-0.000613245 0.00763308 -0.0497912
0.0950903 0.0137576 -0.133833
0.527026 -0.633798 0.0669941
0.524802 0.568387 0.292397
0.522062 0.368901 0.0523834
0.374925 0.127388 0.00438661
0.375562 -0.107838 0.151925
0.0398547 -0.0400211 -0.14524
0.118545 0.145194 0.0549183
0.251177 -0.232661 0.104897
0 0 0
-0.432213 -0.0299688 -0.049814
0.147221 -0.183021 -0.300676
-0.340642 -0.0863813 -0.0432046
-0.0415501 -0.015995 -0.0845884
0.0967569 0.0448069 0.278626
0.000317486 0.014486 -0.0246604
0.000620221 0.170662 -0.103089
-0.135534 0.277214 -0.0525959
7.27035e-05 -0.0743772 -0.000339422
-0.107973 0.0637791 0.255472
-0.0151179 -0.00211412 0.0585021
-0.047698 0.211658 0.356494
0 0 0
0.0426625 0.0160801 0.0438102
-0.00270789 0.0921777 -0.122289
0.120723 0.168842 0.236333
0 0 0
0 0 0
-0.394698 0.373805 0.083243
0 0 0
-0.000248213 -0.00316826 0.0601407
0.0275374 0.00184985 0.0136013
0.292745 0.0942208 -0.031925
0.469352 -0.387345 -0.102493
0.175448 0.0122025 0.00621328
0.523643 0.312149 0.116279
0.246684 -0.0207352 0.171568
0.249515 -0.239286 -0.423215
-0.0906105 0.00217431 0.0499937
-0.331111 0.00505665 -0.0430492
-0.409532 -0.00656552 0.101148
-0.17909 0.0519588 0.230698
0.0784041 0.0371978 -0.00129374
0 0 0
0.0741755 -0.0440156 0.246444
0.0129519 -0.00847413 -0.00212931
0.0670906 0.0298813 -0.248916
-0.00393767 0.00385545 0.0652813
-0.020215 -0.147992 0.0698445
-0.0767177 0.295932 -0.296101
-0.0739497 -0.029219 0.114999
-0.223152 0.0422794 -0.402954
0 0 0
0.0108316 -0.316083 0.40124
0 0 0
0.0363189 -0.0449149 -0.316443
0.274524 -0.00513585 -0.170752
0 0 0
0.13428 -0.34616 -0.202574
0 0 0
0.0119103 0.318369 0.524725
0 0 0
0.088913 0.58566 0.0114399
0.00249314 -0.0493261 -0.0124257
-0.121011 0.0080171 -0.347213
0 0 0
0.0103556 0.0792462 0.00252462
-0.222332 -0.0990007 0.215575
-0.115104 0.109172 -0.171036
-0.183556 -0.211311 0.0660902
0 0 0
-0.299245 -0.270885 0.241935
0.00627582 -0.165798 0.271869
-0.211265 0.213288 -0.0649701
0 0 0
0.0437535 -0.194427 -0.101972
-0.0294486 -0.106735 0.149185
-0.136673 0.000335808 0.00738636
0 0 0
-0.0770342 0.147678 -0.0992407
0.0281098 0.16814 0.352809
0 0 0
0.0123777 0.21484 -0.00458409
-0.0823661 0.00149789 0.144843
-0.0547551 -0.00726458 -0.00906057
-0.268773 -0.0224923 0.138686
0 0 0
0.221355 -0.051734 -0.0912998
0.190354 0.138485 0.0598274
0.136127 0.10491 0.00229625
0.153223 -0.0897686 -0.150496
0.56102 0.377514 0.118968
0.115251 -0.00562492 0.114835
0.192572 -0.0866077 0.184213
0.208488 -0.0960936 -0.46903
-0.0269913 0.0406383 -0.118309
0.156591 -0.142942 0.0610529
-0.0641395 -0.0222921 -0.0269341
-0.285851 -0.364081 0.0098971
-0.065523 -0.0560785 -0.115336
-0.309626 -0.227643 0.197985
-0.00289137 -0.0322033 -0.237834
0 0 0
-0.0264975 0.0764869 -0.424488
0 0 0
-0.0549605 0.0237414 0.242112
0.0331672 -0.0702628 0.0643513
0.0195511 0.0723608 -0.0933944
-0.0334264 -0.0675301 0.0394999
-0.00500583 -0.079329 0.11674
-0.000673875 0.0549471 0.00284151
0 0 0
-0.227014 0.0698848 -0.165538