<?xml version="1.0"?>
<VTKFile type="RectilinearGrid">
<RectilinearGrid WholeExtent="0 32 0 32 0 32" Origin="0 0 0" Spacing="1 1 1">
<Piece Extent="0 32 0 32 0 32">
<PointData>
</PointData>
<Coordinates>
<DataArray type="Float32" format="ascii">
0 0.524874 1.04975 1.57462 2.0995 2.62437 3.14924 3.67412 4.19899 4.72386 5.24874 5.77361 6.29849 6.82336 7.34823 7.87311 8.39798 8.92285 9.44773 9.9726 10.4975 11.0224 11.5472 12.0721 12.597 13.1218 13.6467 14.1716 14.6965 15.2213 15.7462 16.2711 16.796 
</DataArray>
<DataArray type="Float32" format="ascii">
-5.03879 -3.62163 -2.20447 -0.787311 0.629849 2.04701 3.46417 4.88133 6.29849 7.71565 9.1328 10.55 11.9671 13.3843 14.8014 16.2186 17.6358 19.0529 20.4701 21.8872 23.3044 24.7216 26.1387 27.5559 28.973 30.3902 31.8074 33.2245 34.6417 36.0588 37.476 38.8931 40.3103 
</DataArray>
<DataArray type="Float32" format="ascii">
0 0.524874 1.04975 1.57462 2.0995 2.62437 3.14924 3.67412 4.19899 4.72386 5.24874 5.77361 6.29849 6.82336 7.34823 7.87311 8.39798 8.92285 9.44773 9.9726 10.4975 11.0224 11.5472 12.0721 12.597 13.1218 13.6467 14.1716 14.6965 15.2213 15.7462 16.2711 16.796 
</DataArray>
</Coordinates>
<CellData>
<DataArray type="Float32" Name="Vector" NumberOfComponents="3" format="ascii">
0 0 0
0 0 0
0 0 0
0 0 0
0 0 0
0 0 0
0 0 0
0 0 0
0 0 0
0 0 0
0 0 0
0 0 0
0 0 0
0 0 0
0 0 0
0 0 0
0 0 0
0 0 0
0 0 0
0 0 0
0 0 0
0 0 0
0 0 0
0 0 0
0 0 0
0 0 0
0 0 0
0 0 0
0 0 0
0 0 0
0 0 0
0 0 0
0 0 0
0 0 0
0 0 0
0 0 0
0 0 0
0 0 0
0 0 0
0 0 0
0 0 0
0 0 0
0 0 0
0 0 0
0 0 0
0 0 0
0 0 0
0 0 0
0 0 0
0 0 0
0 0 0
0 0 0
0 0 0
0 0 0
0 0 0
0 0 0
0 0 0
0 0 0
0 0 0
0 0 0
0 0 0
0 0 0
0 0 0
0 0 0
0.0406288 -0.0239481 -0.0565359
-0.127506 0.228694 -0.0281534
0 0 0
-0.0862456 -0.0142967 0.0208556
-0.208453 -0.0166392 0.0163646
0 0 0
-0.0116789 0.161788 -0.029297
-0.0424864 0.126987 -0.0285471
-0.0758229 0.0393836 0.028029
-0.0432749 0.00309945 0.0281522
0 0 0
0.0830251 -0.119777 -0.101239
0.0694487 -0.126911 -0.0476816
0 0 0
0.0609406 -0.0749287 -0.0304912
-0.0152072 0.0997514 0.0660598
0.123154 -0.214539 -0.0297275
-0.108151 -0.09796 0.028623
0 0 0
-0.0226802 -0.0120851 -0.0206547
-0.116652 -0.019935 0.0286982
0 0 0
0.117525 -0.0627375 0.068372
-0.135036 -0.0252196 -0.0153277
0.0215396 0.0347694 -0.0140075
0.113657 -0.124882 0.000676174
0 0 0
0.116995 -0.066656 -0.128538
0.0452662 0.268473 0.10428
-0.00186119 -0.0669379 -0.142932
-0.164662 -0.084399 0.0145129
0.0877583 -0.197154 0.0637967
-0.0306169 0.0417589 0.106641
0.0415904 0.00757321 0.0186157
-0.00144008 -0.00101286 -0.0296535
-0.183937 0.0852605 0.0301144
0.0743086 0.0584365 0.00580439
0 0 0
-0.0842949 -0.329036 0.00410017
-0.0277618 0.0832809 -0.000761818
-0.0481823 0.0975045 0.0402215
-0.00174191 -0.0124055 -0.010285
-0.0178822 0.0672199 0.0571638
-0.11928 0.00721477 -0.00928097
0.0281176 -0.00710733 0.000282501
0 0 0
-0.0641612 0.0578235 0.119408
0.0808519 -0.0504749 0.0468656
0.0582545 -0.0598769 -0.0128508
-0.0971594 0.00234959 0.0460503
0 0 0
-0.0112206 -0.0747292 0.0647834
0 0 0
0 0 0
0.136372 -0.048841 0.00545414
-0.0930053 -0.00674744 0.107607
-0.0671149 -0.0532529 0.0633981
0.00666177 0.0728146 -0.0266555
0 0 0
-0.0228172 -0.0376366 0.0757468
0.104296 -0.299321 0.0123605
0 0 0
0 0 0
-0.0832324 0.0684924 -0.102574
-0.00714982 0.000912356 -0.0147743
-0.00681751 -0.0398695 0.129047
-0.312913 -0.0691158 -0.174793
-0.135931 0.0585523 0.111675
-0.383871 0.328905 -0.318259
-0.0368173 -0.0307765 -0.0722981
-0.0450112 0.0478139 -0.00468066
0.159291 0.18639 -0.234132
0.0745365 0.41204 -0.0878623
-0.0114013 0.341586 0.0223646
0.0498694 0.0845753 0.0403786
-0.151313 -0.0573893 0.148165
-0.241095 0.0591607 0.138693
0 0 0
-0.0990509 -0.0359151 -0.0336673
0.138913 0.149774 -0.140516
0 0 0
0.0787273 -0.333452 -0.0903435
0.0340625 0.0191845 0.0236686
0 0 0
-0.139249 0.0250737 -0.0133392
-0.13631 -0.103526 -0.108388
-0.465827 -0.0297813 0.109795
0.182145 0.28895 0.023192
0.0267003 -0.18951 -0.0923179
-0.119735 0.0388723 0.0485695
-0.140382 0.0136096 -0.0232089
-0.0470124 0.0357255 -0.000742712
-0.0488393 0.0109089 -0.0645287
0 0 0
0 0 0
0.151441 -0.0137226 0.525461
-0.0197168 0.12369 0.0412973
-0.250042 0.110298 -0.329367
-0.213501 -0.0737431 0.176458
-0.0877049 0.0134141 0.0349496
0.134364 -0.0446182 0.0122573
-0.0254241 0.140704 -0.0346712
0.247103 -0.157989 0.0848741
0 0 0
-0.0680141 -0.021912 -0.10181
0 0 0
-0.217793 -0.097307 -0.121647
-0.260777 -0.130209 -0.0382533
-0.383004 -0.0337556 -0.00255264
0 0 0
-0.104394 0.178207 -0.304701
0 0 0
0.0111909 -0.034336 -0.0245576
-0.00117739 -0.0315023 -0.0312435
-0.327443 0.251404 -0.175009
-0.0241679 -0.199648 -0.116373
0 0 0
0.0364667 0.0185144 0.125004
0 0 0
0.0582224 -0.227264 -0.188564
0.0851239 0.0202407 -0.0736305
0.161188 -0.11842 -0.151006
-0.0757213 -0.00603416 -0.220861
0 0 0
0.115149 0.0701644 0.0301517
0 0 0
0.00545228 0.0116531 0.0555715
0 0 0
0.132209 0.0578932 0.0490266
0 0 0
0.269797 0.0395915 0.0573611
0 0 0
0 0 0
0 0 0
-0.115088 -0.117703 0.13707
0 0 0
0.110548 -0.307616 0.00574155
-0.0156853 0.0634011 0.134542
-0.0856534 -0.489472 0.124583
0.0728114 -0.0370189 -0.108806
-0.10601 -0.355445 -0.0142922
-0.0440419 0.0411889 0.0504569
0 0 0
0 0 0
-0.148521 0.0773986 0.0228252
0 0 0
0.108746 -0.0489905 -0.0843286
-0.0322332 0.0162378 -0.0641209
-0.179412 -0.16393 -0.261953
-0.0589351 -0.411438 -0.156347
0 0 0
-0.0966131 -0.0903635 -0.145584
-0.136423 -0.16466 0.14394
-0.0285853 -0.0416384 0.0363651
0 0 0
0.00753849 0.0566058 0.00115332
0.144865 0.149934 -0.151389
0.00830051 0.0383034 -0.0287756
-0.00828839 -0.111592 0.123463
0 0 0
0.0217672 -0.0641948 0.0436374
0.521259 -0.20979 -0.152195
0.606836 -0.342926 -0.227995
0.0084838 -0.00686435 -0.0136527
0.312725 -0.15548 -0.108877
0 0 0
0 0 0
0 0 0
0.188167 0.126118 0.00867668
0.193078 0.294855 -0.00629932
-0.0677726 -0.234126 0.201279
-0.0473998 0.0122291 0.076049
0.118437 0.011503 0.205005
0.341483 -0.29323 -0.136496
0.28069 -0.359671 -0.206709
0.0348396 -0.0778404 -0.0932498
0.0591644 -0.103948 0.0010503
0 0 0
-0.126251 0.0129913 -0.220513
-0.530812 -0.0791173 0.189171
-0.0350363 0.0221109 0.128171
-0.478203 -0.0706725 -0.0317409
-0.0256379 0.0836857 -0.0170558
-0.115133 0.111643 0.0662712
-0.00310124 -0.085368 -0.0428651
-0.110082 0.254712 0.07236
-0.13906 -0.318243 0.226171
-0.00409591 0.16192 0.0660093
-0.10358 -0.110462 0.00573633
0 0 0
0 0 0
-0.0217595 -0.121959 0.0358701
0.0374058 0.0717451 -0.038736
0.0623205 -0.0778825 -0.00019866
0 0 0
-0.106875 0.100857 0.198204
0 0 0
0.0094077 -0.0324555 -0.00443455
0.134546 -0.000133637 -0.0660702
-0.0422858 -0.0083913 0.0247849
-0.212862 -0.0412084 0.023351
0.0233663 -0.135161 0.241182
-0.167677 -0.0501119 -0.0613022
-0.0279744 0.0406916 0.0739206
-0.00562602 -0.00965266 0.0541236
0 0 0
0 0 0
-0.175525 0.134767 -0.282835
0 0 0
0.0238384 0.270738 -0.188264
0.0581194 -0.13015 -0.166629
0.0197766 0.215724 -0.0405284
-0.196412 -0.004332 0.0222587
0.00853119 0.252918 -0.00549482
-0.0781667 0.0991274 0.00759256
-0.127977 0.140322 -0.112389
0.032147 0.00143814 0.0279514
0.024801 -0.0434953 0.0315763
-0.105102 0.233919 -0.284538
0 0 0
-0.325149 0.228962 0.22381
0 0 0
-0.0104722 -0.0297563 0.0239588
0.288844 -0.0573561 0.104398
-0.00628993 -0.0848505 0.127165
-0.0219447 0.050374 -0.0778671
-0.0947834 -0.109648 0.0761406
0 0 0
-0.191636 -0.232536 0.102225
-0.0211292 -0.0802896 -0.0126281
-0.152736 0.187739 -0.153252
0 0 0
0.118 0.0113021 0.215765
0 0 0
0.112635 0.00115381 0.120535
-0.132521 0.0149207 0.0271332
-0.0986065 -0.230561 -0.120629
-0.0637187 -0.0761437 0.154229
-0.367984 0.396066 0.0855923
-0.14102 -0.286583 -0.11256
-0.192828 0.0350626 0.146242
-0.0651185 -0.029645 0.156793
0 0 0
-0.0174116 -0.103778 -0.228083
0 0 0
-0.166947 -0.196157 -0.111592
-0.0583501 -0.0214 -0.0350013
0.0778461 0.162112 0.271499
-0.213668 0.151688 0.0874526
-0.075129 0.173427 -0.158878
-0.217679 -0.0105009 0.22298
0 0 0
-0.166886 0.00353583 0.407149
0.0913122 0.204851 -0.2461
0.0576474 0.0194806 -0.207829
-0.0542119 0.0618422 0.00317662
0.236599 0.233356 -0.104814
0 0 0
-0.331348 0.123685 0.0036142
0 0 0
0.017671 -0.140505 -0.0425297
-0.016388 0.0252796 -0.0460205
-0.223624 -0.0243551 0.0245029
0 0 0
0 0 0
-0.00362748 0.0130198 -0.00563143
-0.0536208 -0.0847305 -0.10099
0 0 0
0 0 0
-0.0982329 -0.239578 -0.0375397
0 0 0
-0.130269 -0.134619 -0.0532121
0 0 0
0 0 0
0 0 0
0 0 0
0 0 0
0.452646 0.0267631 -0.0116063
-0.00170138 -0.0270973 0.00808379
-0.165149 0.443219 -0.29287
0.0386068 0.0658411 0.056864
0.20386 0.111903 -0.160896
0.0933472 0.0208026 -0.10189
-0.308472 -0.410026 -0.327447
-0.118642 -0.229461 0.221629
0 0 0
0.279526 0.0885381 0.00169693
0.194213 0.318218 -0.133606
0 0 0
0.186684 -0.044 0.0262114
-0.000580276 0.0864203 0.0594682
0.0856926 -0.00140793 -0.063039
0.0713038 0.11579 0.0632107
-0.00928379 0.0287673 -0.00307723
0.216913 0.245971 0.114446
-0.1918 -0.102444 0.0839629
-0.0921693 0.0417547 0.0117911
0.109248 0.0764473 0.100592
0 0 0
0.278643 0.0926821 -0.0764786
0.00510639 0.245505 -0.0987806
0.14948 -0.336655 0.0726967
0.0758313 -0.00645886 0.0461382
-0.0551717 -0.224975 0.0615757
0 0 0
0 0 0
0.126612 -0.0381418 0.239829
0.00356332 0.0688695 0.317129
-0.1377 -0.128989 -0.178721
0 0 0
-0.102884 -0.0525723 -0.000626595
0 0 0
-0.0330727 0.237332 0.0252063
0 0 0
0.250508 -0.113969 0.359485
-0.0221268 0.0761799 0.000344727
0 0 0
0.316424 -0.0102831 -0.0949292
0 0 0
-0.101073 0.198642 -0.103316
-0.0211793 -0.0251091 0.135216
-0.0915897 0.00502938 -0.0169116
-0.0370862 0.505684 0.000925244
0 0 0
0.093833 -0.0646684 -0.527099
0.0631483 -0.020162 -0.205363
0.042282 0.0683656 0.000813549
-0.0191279 -0.0529367 0.320231
0 0 0
0.0373765 -0.215154 -0.264303
0 0 0
0.319595 0.142023 -0.432859
0.133421 0.223411 0.0613425
0.0478808 0.11529 0.0945815
0.146284 0.133277 -0.0948459
0 0 0
0 0 0
0 0 0
0.148135 -0.281519 -0.0343276
0.344991 0.199567 -0.0170964
0 0 0
-0.0637386 -0.0181552 -0.207098
-0.03547 0.0540688 0.10012
0.0813435 -0.162538 0.070592
0.130511 0.121935 0.0896291
0.355738 0.0924924 -0.167652
0.0603637 0.0130157 -0.0516548
-0.149121 0.345482 -0.151079
0 0 0
0 0 0
0.00195856 -0.00202064 -0.00253891
0.129483 0.196262 -0.0453374
0.14371 0.0265001 -0.177139
0.0505343 -0.00718597 -0.0625095
0.139579 0.105818 0.0459972
0.109515 0.339887 -0.0795065
-0.0724204 0.0330943 0.00870443
-0.0468591 -0.0656314 0.118512
-0.0387547 0.0878665 0.0838447
0 0 0
0 0 0
0 0 0
-0.0898752 0.0195054 0.00323251
-0.225708 -0.361818 0.0560116
0.021695 0.0242848 -0.0317981
0.0551876 0.219366 0.14923
0.138288 0.394426 -0.119193
0.00669808 -0.00386848 0.00346319
-0.00505083 0.101685 -0.00697786
0 0 0
0.0104915 0.502741 0.525998
0 0 0
0.112974 -0.296951 -0.0249799
0.00848092 0.0213917 0.0270831
0.274571 -0.194652 -0.0225885
0 0 0
-0.0448758 -0.414858 0.160654
0 0 0
0.153884 0.056414 0.370596
0 0 0
-0.124805 0.264332 0.0115162
-0.0942032 0.0386841 -0.0188252
0 0 0
0.118682 0.473577 -0.0150286
0.122832 -0.0856977 0.0516673
0.000562938 -0.0651571 0.0138697
-0.122473 0.224978 0.103365
0 0 0
0.0688644 -0.0706822 -0.0511585
0 0 0
0.0150235 -0.196588 -0.0312891
0 0 0
0.431227 0.289015 -0.110388
-0.0568162 -0.31652 -0.0289039
-0.167975 -0.124342 -0.0904638
0.0110622 0.159898 -0.404715
-0.359769 -0.168626 -0.169571
0 0 0
-0.0319283 0.227438 -0.0024699
0 0 0
0.000710453 0.101189 -0.0701845
-0.116404 0.344408 0.019823
0.0469512 -0.0806644 -0.167248
-0.00088805 0.161644 0.0973544
0.0441066 -0.359876 -0.141469
0 0 0
-0.213646 0.0690927 -0.307757
0 0 0
0 0 0
0.0599299 0.263827 0.00330081
0 0 0
0 0 0
-0.00273954 0.0189077 -0.0662655
0 0 0
0 0 0
0.168975 0.0690111 -0.0655084
-0.366659 0.153487 0.256968
-0.0225746 0.000103599 -0.0698094
-0.000478463 0.0550527 -0.11421
-0.0688349 0.128322 0.123042
0 0 0
0.133824 0.0575241 0.118639
0 0 0
-0.103163 0.0529733 -0.0812546
-0.174112 -0.0977075 -0.520923
0 0 0
0.183174 -0.163872 -0.24448
0.0733156 0.158775 -0.190915
-0.0102423 0.110469 -0.102565
-0.0623408 0.385452 -0.0989084
0.0211507 0.00556187 -0.00918259
-0.0686907 -0.245411 0.00496179
0.0151901 -0.0887532 -0.048712
0 0 0
0.00874789 0.202414 0.201516
0.0885539 -0.0934553 -0.0623131
0.0067165 -0.155875 -0.288124
-0.0499232 -0.205287 0.0154192
-0.396568 0.211382 0.343905
0 0 0
0 0 0
0 0 0
0 0 0
0 0 0
0.11189 0.0193404 0.000852874
0.151335 0.0072431 -0.295979
-0.000365693 0.0327613 -0.0215463
0 0 0
-0.0428337 -0.04967 0.142561
0 0 0
0.043077 0.27692 0.0984974
-0.0237475 0.278518 -0.524434
0.197045 0.163396 -0.16076
-0.086443 -0.054156 -0.0412473
0.435344 -0.153257 -0.524364
0.079461 -0.148894 0.0247595
0.305266 0.0425624 -0.162138
-0.102331 -0.241375 0.206218
0.152038 0.0303594 0.120274
0.0337216 0.145516 0.00364923
0 0 0
0.154342 -0.195411 -0.373801
0 0 0
0.259985 -0.332857 -0.514408
0.0114622 -0.0386496 -0.0226229
-0.106583 -0.196559 0.0476623
-0.0786574 -0.0836395 -0.0499848
0 0 0
0.2618 0.150216 -0.261022
0.154369 -0.0736309 -0.0153058
0 0 0
-0.0391583 0.114318 -0.0526534
0.00156427 -0.492897 0.156518
-0.0319136 0.0383841 -0.0926298
0.23787 0.0757284 -0.0177454
-0.26159 -0.415885 -0.147422
-0.0653536 -0.0484063 0.0563069
-0.170271 0.037198 0.0630965
-0.227642 0.047718 0.318361
-0.000183285 0.0548285 -0.13537
0 0 0
-0.171431 0.0309784 0.329382
-0.0477003 -0.048167 -0.235954
-0.00662164 0.11581 -0.0521355
0.117417 -0.0496899 -0.164777
0.0224516 -0.00333779 -0.0763562
0 0 0
-0.00674473 -0.0229305 -0.0210502
0.155997 -0.0319186 0.237895
0 0 0
-0.029447 0.0606275 0.206392
0 0 0
-0.0616622 0.00755754 -0.25577
-0.335601 0.117122 -0.0897112
-0.000170201 -0.0341048 0.254643
0 0 0
0 0 0
-0.0439565 0.0227832 0.10867
0.102951 -0.12497 -0.131932
-0.0356493 0.193487 -0.0131116
-0.259273 0.0169754 -0.188238
-0.136424 0.0412035 -0.023782
0.170592 -0.0330289 0.0581557
0.0782118 -0.3258 -0.0444596
0 0 0
-0.250598 -0.317114 -0.105158
-0.00275904 0.110243 0.00600275
0.00758101 0.382115 -0.0959723
0.00160486 0.0539801 -0.0102261
-0.0319419 0.0243445 -0.150885
0 0 0
0.0465086 -0.0175331 -0.00961843
0.219506 -0.0164661 0.121839
0.0120814 0.249745 -0.0113839
-0.00314232 0.0435634 0.206588
-0.00137456 0.299067 0.0519461
-0.00885469 0.0927146 0.164914
0 0 0
-0.0250347 0.00135123 0.0104596
-0.287862 -0.183078 -0.228697
-0.232409 0.148896 -0.00235764
-0.594337 0.150628 -0.126813
0 0 0
0.115329 -0.242294 -0.118488
0 0 0
-0.139515 0.0136498 -0.261686
0.000170112 -0.0290152 -0.00873171
0 0 0
0.059117 0.0329416 -0.11516
-0.114194 0.169181 0.157228
-0.102865 -0.0306914 0.0609075
0.194378 0.150092 0.225997
-0.00774257 -0.00377511 0.0174612
0 0 0
-0.103763 -0.2172 0.0697684
0 0 0
-0.0763954 0.0434481 -0.23099
-0.151534 -0.144475 -0.0487448
-0.38345 0.000305536 0.176858
-0.0284309 0.0260585 0.0377467
0.0945406 0.388025 0.109939
0 0 0
0.164635 -0.0154456 0.223331
0.00656882 0.0658048 0.275158
0 0 0
0.231305 0.332179 0.247825
0 0 0
-0.0402322 0.033225 -0.128722
0 0 0
0.225471 0.0168054 -0.24746
-0.110339 0.337585 0.0786966
0 0 0
0 0 0
0 0 0
0 0 0
0.035224 0.031598 -0.0882406
-0.0400438 -0.0220492 -0.0343994
-0.24453 0.339286 -0.128798
0.00162448 0.141071 0.0266508
-0.0227766 0.152503 0.100325
-0.141343 0.0287707 -0.0348425
-0.0780281 -0.0147825 0.010124
-0.238965 0.0873144 0.140836
0 0 0
-0.213939 0.196092 -0.267643
0 0 0
-0.091712 -0.079686 -0.0931868
-0.247145 -0.175625 -0.125051
0 0 0
0.19876 -0.0521347 -0.199611
0.230839 0.339064 0.0733127
0 0 0
0.175773 -0.00303561 0.0898246
-0.0033147 -0.0888683 -0.123223
0.0304537 -0.0887803 -0.228382
-0.016344 0.0701947 -0.000395327
-0.135199 -0.0540849 -0.0503897
0.136952 0.518311 0.0837519
-0.0925454 -0.0794015 0.0638232
-0.31833 -0.351595 -0.368435
0 0 0
-0.187128 0.0687192 0.00186765
0 0 0
-0.018893 -0.0133013 -0.0312669
0.103968 -0.506554 0.0492706
0 0 0
0 0 0
0 0 0
-0.0542727 0.0802732 0.089974
0.0439956 0.0348829 -0.0381674
0.0535707 -0.0356279 -0.0732691
-0.0184127 0.0939179 0.021928
0 0 0
-0.0759027 -0.0165108 -0.302311
0 0 0
0 0 0
0.0628821 0.000240293 -0.28073
-0.485274 -0.0997548 -0.306408
0 0 0
-0.110031 -0.197726 -0.19222
-0.0166116 -0.011272 -0.0438592
-0.0858329 0.148669 -0.0325723
0.139583 0.115064 -0.105168
0.0686122 0.0315477 -0.0573891
0.135202 0.121979 -2.20102e-05
-0.0267039 -0.258848 -0.0398276
-0.0757389 0.309292 0.42698
0.0647611 0.0247136 0.0321054
0 0 0
0.102213 -0.0053426 0.0966334
0.00878225 0.0630759 0.333387
-0.0588352 0.226703 0.134485
0.0600185 -0.279338 0.0290098
-0.0412052 0.0394727 0.0568231
0.210723 0.0824983 -0.0101021
0 0 0
0.431671 -0.0307132 0.199946
0.203586 -0.040256 -0.136619
-0.0386074 -0.0489469 0.0810572
-0.0560415 0.0378583 0.0482218
0 0 0
0.161436 0.106569 -0.00733681
0.207777 0.159116 -0.107706
0.404686 0.0876659 -0.207628
0.465635 0.362644 -0.0467086
0.0106372 0.084316 0.0787471
0.0520119 0.0384305 0.00772441
0.079097 -0.248518 0.134895
0.0206142 0.0748156 0.337757
0.0824897 0.0302211 0.067624
0.0994515 0.22329 -0.0539853
0.4329 0.241695 0.16208
0 0 0
0 0 0
0.0181204 -0.00929699 0.0340564
-0.0733776 0.0543971 -0.0847292
-0.108876 0.153168 -0.0979307
-0.278396 -0.00513022 0.272943
0 0 0
-0.123421 0.416506 0.338131
-0.199555 0.285396 0.576017
0 0 0
0.00601784 -0.0468367 0.0541575
-0.12022 0.194629 -0.00318096
0 0 0
0.0289678 0.257769 -0.158633
-0.109368 0.00231024 0.046688
-0.0156567 -0.0307311 -0.0230525
-0.0846753 -0.185483 0.173753
0 0 0
-0.0695782 0.297353 -0.142637
0.153251 0.083948 0.0374129
0.0414564 -0.069822 -0.106114
0.208635 0.237305 -0.144148
0 0 0
0.065999 0.196378 0.0023918
0 0 0
0.163387 0.0462422 0.0737113
0.0347354 0.11461 0.00301951
0.061585 0.241703 -0.0473683
0 0 0
0.0629652 -0.362058 -0.100007
0.085276 -0.042117 -0.020017
0.10647 0.0409845 -0.0635848
0.126814 -0.174488 0.415698
0.0174265 0.155623 -0.00691627
-0.0407242 -0.332185 -0.227413
-0.0453888 -0.0495368 -0.015022
0 0 0
0 0 0
-0.0909939 0.0225966 -0.0042412
0.219514 -0.0676525 -0.226351
0 0 0
0 0 0
-0.0925915 -0.170545 -0.164598
-0.205006 0.0580326 -0.0181755
-0.0213511 -0.121756 0.021728
-0.221196 0.103481 -0.0500554
0.0061007 0.0162144 0.427793
-0.187343 -0.0363273 -0.00620101
-0.141632 -0.0405865 -0.00338327
-0.354733 -0.0399185 0.23798
-0.05245 -0.191726 -0.105033
-0.271962 0.00316544 -0.0225596
-0.458927 0.082457 -0.243891
-0.267821 0.0345125 0.043122
0 0 0
0 0 0
-0.628387 0.0463364 -0.160984
-0.412794 -0.0240041 -0.0191623
-0.316453 0.21642 0.0938214
-0.403162 0.307362 0.00318826
0.108757 -0.208808 0.00244281
-0.000651492 0.00373071 -0.00330416
-0.304398 -0.70906 0.405791
-0.147495 0.0747777 -0.160368
-0.0436185 -0.00816325 -0.0360917
0.00597491 0.103744 -0.00775886
-0.0576954 -0.113767 -0.00804136
0 0 0
0 0 0
0.00700633 0.0626898 -0.444499
-0.0149185 0.129062 0.191642
0 0 0
-0.00217751 0.1301 0.000672999
0 0 0
0 0 0
0.110166 -0.00893161 0.0901056
0.0171782 -0.198375 0.110636
0 0 0
0 0 0
0.0864345 0.0153677 -0.0304359
0 0 0
0.146837 0.408627 0.0399389
-0.108017 0.147893 -0.159807
-0.182596 -0.0527701 0.0185195
-0.0321578 0.0693601 -0.0148308
0.0759021 0.00983721 -0.0512981
-0.0953715 -0.0159709 -0.140877
0.161258 -0.00554364 -0.481959
-0.00792053 0.00103296 -0.06446
-0.180672 -0.0146593 -0.119298
-0.0919839 0.0468325 -0.0631007
0 0 0
-0.000292138 -0.0935765 -0.0729953
0.119671 -0.717249 -0.273942
0.328578 -0.168591 0.0866474
0.0314939 -0.0424057 0.031096
-0.107663 -0.593767 -0.0199893
-0.10685 -0.262799 -0.0529351
0 0 0
-0.00573516 0.167909 0.355847
-0.111557 -0.0601421 0.0788134
-0.368843 -0.119765 -0.00344548
-0.255034 0.172361 0.105064
-0.10515 -0.277825 0.350486
-0.003098 -0.0189471 0.112133
0.0111177 0.0140284 -0.0243206
0.0497165 0.130408 0.184314
0.0494244 -0.0731506 0.247006
-0.308157 0.447799 -0.0520315
-0.177715 0.0766147 -0.250538
-0.230101 0.49615 -0.0886765
0 0 0
0.167642 0.00438541 0.399844
-0.19653 0.172673 -0.119805
0.0827005 0.135581 0.00684203
0 0 0
0.0166746 0.337212 0.137585
0 0 0
0 0 0
0.0205983 0.0211574 0.02982
0.0151461 0.369826 0.036551
0.208141 0.158465 0.133941
0 0 0
0.28315 0.563305 0.0769559
0 0 0
-0.0873024 -0.204718 -0.113045
0 0 0
-0.312771 -0.0451086 -0.19416
-0.278285 0.078575 -0.0415498
0.0326343 0.192601 -0.144289
0.0350743 -0.0352022 0.0639232
0 0 0
0.0430468 0.00940681 -0.0943242
0.00454784 -0.264101 0.0155376
-0.185423 -0.209942 0.104585
-0.0513491 0.0305666 0.00568325
-0.11909 -0.243052 0.265012
-0.164765 -0.0690669 -0.0101414
0.0859212 0.209049 0.155504
0.00211222 -0.00976494 0.0999611
-0.0883136 0.0586063 -0.224739
0 0 0
0.0482306 0.25049 -0.118303
0 0 0
-0.00645329 0.00242858 -0.21347
0 0 0
0.34568 0.0348212 -0.0934202
0.0160046 -0.0243952 -0.0434677
-0.0811139 0.170512 0.227963
0.0451944 0.0127541 -0.0249098
0.000821684 0.101635 0.051393
0.0617634 -0.123393 0.0695421
-0.026652 -0.111514 0.00450294
-0.0188424 0.0145338 -0.00199831
0.0903786 0.201349 -0.0020746
0.0545378 0.160394 -0.162866
0 0 0
0.0417503 -0.13078 -0.280038
0.139 -0.283309 -0.0109175
0.442529 0.2984 -0.0092972
0.106347 0.123853 0.0256646
0.0887047 -0.181772 -0.000741274
0 0 0
-0.241692 0.312857 0.147631
0 0 0
-0.105542 -0.0744539 -0.0550137
0 0 0
0 0 0
0 0 0
-0.252408 -0.609906 -0.380406
-0.0520174 -0.0955576 0.214168
0.282788 -0.124916 0.266991
0.203486 0.0233041 -0.0868604
0.0568021 -0.177054 -0.0423817
-0.00374537 0.0518835 -0.109749
0 0 0
0.00695435 0.181876 -0.128637
-0.0135652 -0.0482468 -0.00168447
0 0 0
0.0788871 -0.0978522 0.0277363
0.0868649 0.133902 -0.033308
0.0475273 0.0454538 0.0270214
0.0367217 0.0639359 -0.00215761
0.163655 -0.218707 -0.450062
0 0 0
0.0864806 -0.101984 0.000255608
0 0 0
0 0 0
-0.0182912 -0.336352 0.0366514
-0.108547 0.230486 -0.0267553
-0.125884 -0.243093 -0.207796
0.0125569 -0.0241184 0.00238788
0.204682 -0.126338 0.238789
-0.0413458 -0.250089 0.0938822
-0.064023 0.223166 0.168486
-0.0889844 0.0689466 -0.048634
0.0381884 -0.00830613 0.106755
-0.194894 0.0102996 -0.0804393
-0.0111423 0.328965 -0.00439713
0 0 0
0 0 0
-0.00398818 -0.0487293 0.000647557
0.0599903 -0.279261 0.21008
0 0 0
0 0 0
-0.13996 -0.0169171 0.374238
-0.00195668 0.050033 0.126733
0.000521185 -0.0670381 -0.000985263
-0.062038 -0.0552945 -0.0536554
-0.00353768 0.247306 -0.400682
0.00169728 -0.108378 0.190528
0.0294517 -0.198214 0.11656
-4.31986e-05 0.306997 0.0787056
-0.000480754 -0.0102266 0.127679
0 0 0
0.0043009 0.00682822 -0.0415557
-0.0147268 0.0706088 -0.260912
0.297659 -0.0540828 0.0225643
0.100982 -0.0423522 0.232396
-0.0515094 0.183403 0.0602198
-0.12348 -0.00564791 -0.293958
-0.00240423 0.0895983 -0.136362
-0.10815 0.0059959 -0.0429914
-0.171898 -0.543822 -0.137945
0 0 0
0 0 0
0.389134 0.453115 -0.338057
-0.00284163 -0.201748 0.0992056
-0.125162 -0.0237524 -0.0219196
0 0 0
-0.0409362 0.00376215 -0.016723
0 0 0
0.12395 0.57178 -0.74007
0.116094 -0.11674 -0.00611308
-0.103172 -0.0827917 -0.180821
0 0 0
-0.0470944 0.237441 0.00635265
-0.118599 0.000728613 0.0359452
0 0 0
-0.0969686 0.0999795 -0.0655515
0 0 0
-0.0307727 0.0364439 0.0369195
-0.16928 0.0678459 -0.036994
-0.0425259 0.161887 0.0452732
-0.330679 -0.0423377 -0.204172
0.176241 0.0855746 0.0661758
-0.343779 -0.269904 0.0365341
0 0 0
-0.0269707 0.0946869 -0.0434584
0 0 0
-0.337959 -0.0589269 -0.14549
-0.096196 0.128359 -0.0605382
0 0 0
0 0 0
-0.016228 -0.157506 -0.0657492
0 0 0
0.275631 0.135826 -0.179192
-0.0651521 0.0292572 0.0495102
0.0341745 -0.173738 0.282771
0 0 0
0.18718 0.0286935 0.219374
0.00184904 0.0189481 -0.00525242
-0.205253 0.221085 -0.288523
-0.0379959 0.0828215 -0.0277925
0 0 0
0.00703349 -0.417334 0.122411
0 0 0
-0.25317 0.205335 -0.0141799
-0.0209499 0.0195355 -0.000778742
-0.00213089 -0.0142593 0.0398126
0.0312471 -0.282968 0.49002
0 0 0
-0.18145 -0.111713 -0.193604
-0.000500136 0.118159 -0.0707923
0.38286 0.00173899 -0.271828
-0.149181 -0.110596 0.06573
-0.000449152 0.130405 0.0247488
0.00477646 0.0256735 -0.339572
0 0 0
0 0 0
0.167871 -0.111814 -0.213654
0.245757 -0.096432 0.0190703
-0.0601537 -0.790897 0.198332
0.00105873 0.136262 -0.0607556
-0.19498 0.233746 0.217627
0.00119311 0.0407038 -0.1253
0.122606 -0.131229 -0.133799
-0.0357911 -0.0235772 0.0931507
-0.0767558 -0.147966 -0.0127823
0 0 0
0.298081 0.156066 0.0778019
0.227706 -0.0508273 0.0591802
-0.0054912 0.0247049 0.0846416
0 0 0
0.177002 0.0897033 0.293215
0.000360033 0.0510479 -0.0762578
0.108412 0.0509795 0.0965492
-0.113134 0.0583228 0.0950672
0.0467647 -0.135296 -0.00677869
0 0 0
-0.0457066 -0.181833 -0.0724624
0.218455 0.203111 -0.184874
0.112337 -0.0421573 -0.0135997
0.0178623 0.0583482 -0.232371
0.0749251 -0.075183 -0.115446
0.0717947 -0.157356 -0.122101
0.102124 0.161648 -0.0197988
-0.00772774 -0.135119 -0.0766359
0 0 0
-0.0112703 -0.000589454 0.0227843
0.0733825 -0.0384415 0.0769918
0.130054 -0.102697 -0.002169
0 0 0
0.0100476 0.00118388 0.198535
0.501578 -0.21854 -0.160311
0.00080228 -0.029579 0.017564
0.182766 0.361174 -0.198065
0 0 0
0.0401653 0.107705 -0.0473315
-0.000254298 0.0803728 0.0487821
0.164749 -0.11329 -0.049125
-0.00115008 0.011177 0.0512905
0.249605 -0.0206856 -0.0662453
-0.0406674 -0.0471484 0.000711153
0 0 0
0.119279 -0.00756555 -0.244781
0.366112 -0.130881 0.220691
-0.0635286 -0.0508539 -0.276826
0 0 0
0 0 0
0 0 0
0 0 0
0 0 0
0 0 0
0 0 0
0 0 0
0 0 0
0 0 0
0 0 0
0 0 0
0 0 0
0 0 0
0 0 0
0 0 0
0 0 0
0 0 0
0 0 0
0 0 0
0 0 0
0 0 0
0 0 0
0 0 0
0 0 0
0 0 0
0 0 0
0 0 0
0 0 0
0 0 0
0 0 0
0 0 0
0 0 0
0 0 0
0 0 0
0 0 0
0 0 0
0 0 0
0 0 0
0 0 0
0 0 0
0 0 0
0 0 0
0 0 0
0 0 0
0 0 0
0 0 0
0 0 0
0 0 0
0 0 0
0 0 0
0 0 0
0 0 0
0 0 0
0 0 0
0 0 0
0 0 0
0 0 0
0 0 0
0 0 0
0 0 0
0 0 0
0 0 0
0 0 0
-0.00309389 0.0326814 -0.0493581
0.107269 0.0311076 -0.103497
0 0 0
-0.0191823 0.0596686 0.0453033
0.0364112 -0.00613623 -0.00592404
0 0 0
0.0355028 -0.00762672 0.093331
-0.00824606 -0.0822803 0.18419
-0.00962392 0.0843542 -0.180231
-0.0258677 0.12811 0.105046
0 0 0
0.167349 -0.229675 0.0961051
-0.105787 -0.0965765 0.231677
-0.00446387 0.000299264 0.00216894
-0.117611 -1.12461e-06 -0.12512
0.0733904 -0.312815 -0.0447089
-0.0724505 0.14281 0.00433904
0.0313192 0.144213 -0.077384
0.00598005 -0.00937676 0.0367876
0.0588661 -0.0400113 -0.000626426
-0.0846483 -0.0464236 0.0432049
0.00205895 -0.00868886 -0.026494
-0.0508418 -0.00219352 -0.0061584
0.00291494 -0.2146 0.0263604
0.0125008 0.286663 0.0778617
0.291566 -0.0159471 -0.0116756
0 0 0
0.0510937 0.183721 0.0414644
-0.0242578 -0.0312502 0.126759
0 0 0
-0.111907 -0.0252396 -0.103818
0.0415955 0.0685372 0.0617907
0 0 0
-0.0191665 0.00838411 -0.0625674
0 0 0
-0.029975 -0.0060686 -0.0758519
-0.00946523 -0.0164183 -0.00360216
0.000222897 0.0171691 0.000946088
0.0117666 -0.00186222 -0.0185745
-0.0532127 0.166797 0.041433
-0.0147233 -0.243587 -0.0857049
0.0111946 0.0230187 -0.155024
0 0 0
-0.0639518 -0.117801 -0.00785542
0.0497351 -0.00128113 -0.145573
0 0 0
0.00735215 0.0382995 -0.0196576
-0.000110477 -0.0123392 -0.000393292
0.0736952 0.00767072 -0.0892429
-0.0217534 -0.0027322 -0.0384789
0 0 0
-0.114193 -0.00291762 0.0764346
0.0487795 -0.0729866 -0.0963244
0 0 0
0 0 0
-0.0447586 0.0216592 0.0860039
-0.0284478 -0.00953755 -0.101767
-0.354324 0.00215865 0.0674118
0 0 0
0.0693589 0.143098 -0.0695129
-0.0814969 -0.049798 0.134594
0 0 0
-0.0489719 0.0645754 0.0770756
-0.0460846 0.0131345 0.0226666
0.0950037 -0.41836 0.115803
0.0220103 0.0660543 0.0280756
-0.0927038 0.383045 0.295736
0.11432 -0.0343128 0.237044
0.147095 0.00185878 -0.0656735
0.168807 0.00765014 -0.0140174
0.506994 0.075139 -0.0535532
0.199448 0.122283 -0.407332
0 0 0
0 0 0
0.11708 -0.137769 0.246998
-0.149711 -0.0606962 0.0647612
-0.322737 -0.00242331 0.157752
-0.182822 -0.0478672 0.00823558
-0.126322 -0.13142 0.194762
-0.386082 0.225317 -0.163302
-0.14751 0.139658 -0.122209
-0.233408 0.218665 -0.226683
0.00097696 0.0440588 0.0298546
-0.0783449 -0.0754585 -0.363346
0.160383 -0.323505 0.100908
0 0 0
-0.0146242 -0.0277486 -0.122035
0 0 0
0.0687318 0.163637 -0.301142
0 0 0
0.067759 0.0188199 0.0629111
0.0375427 -0.00733099 0.109957
0.177378 0.0575625 0.0262892
-0.000658037 -0.157718 -0.0816159
0.207315 0.168842 -0.121075
0.288754 0.00685509 0.18647
0.097255 -0.0769516 -0.222037
0 0 0
0.376445 -0.125802 -0.16978
0 0 0
0 0 0
-0.0191862 -0.0141808 -0.031815
-0.15868 -0.12139 -0.0108962
0 0 0
0.0502016 -0.0627646 0.00801556
0 0 0
0.0560486 -0.132303 0.277597
0.00521291 0.0110069 0.0290565
-0.0107381 0.0766636 0.0320469
-0.00991424 0.0161936 -0.0131142
-0.0597914 -0.110375 -0.0328283
-0.322214 0.0716067 -0.0753751
0.0885021 -0.0430454 -0.265874
0 0 0
0 0 0
-0.146911 0.0456688 -0.16
-0.0503701 -0.0188518 -0.147405
0.116528 0.156133 0.0418065
0 0 0
0 0 0
-0.0545416 -0.075067 -0.171205
-0.00759726 -0.101044 0.128245
-0.154608 -0.0460948 -0.218034
-0.133728 0.12981 0.103288
0.270055 0.240353 0.163011
0 0 0
0.125137 0.0109724 -0.461443
0 0 0
0.144068 0.655567 0.0795624
0 0 0
0.10971 -0.0656625 0.00113116
0.0830138 0.0764656 -0.0685686
-0.0940139 -0.126985 0.349686
-0.00020792 -0.0257304 0.050417
0.105371 0.0147639 0.110252
0 0 0
-0.14519 0.137241 0.157246
0.00603358 -0.0114756 0.199092
0 0 0
0 0 0
0 0 0
0.131137 0.0218875 0.049304
0.0382578 -0.126172 -0.149512
0.00222105 -0.0325122 -0.0194148
0 0 0
0.000704505 0.272164 0.22574
0.11128 -0.0047615 -0.224029
0.00727749 -0.00134619 -0.0510762
0.182211 0.59774 -0.305338
-0.439829 0.00129748 -0.339605
-0.171939 0.0616461 -0.0220406
-0.161228 0.0482598 -0.450157
-0.0458299 -0.09174 0.0572976
0.185304 -0.37037 0.197342
0.0121871 0.00479556 0.0158913
0.26933 0.131947 0.255115
-0.10179 -0.0582152 7.19978e-05
0 0 0
-0.163812 -0.0348823 0.502925
0 0 0
0 0 0
0 0 0
0 0 0
-0.122779 0.000675601 -0.142432
0.00653732 -0.0260712 -0.00227752
0 0 0
-0.0157929 -0.00526448 -0.00197767
-1.22852e-05 -0.138325 -0.000982436
0.107754 0.024181 0.165556
0 0 0
-0.00436116 -0.0649448 0.0714585
0 0 0
0.145635 0.137862 0.00265843
0 0 0
0.305364 0.185385 -0.204351
0.0894883 -0.0965738 -0.0798646
0.518392 0.00968874 -0.284643
-0.000208027 0.0680878 0.0490033
0 0 0
0 0 0
0.0873507 0.0236633 0.0306094
-0.0241767 0.0353387 -0.0594483
-0.391184 -0.246521 -0.269285
0.0637447 -0.0711343 0.0894066
-0.135323 -0.146312 -0.0563284
-0.0813996 0.00652873 0.08094
0 0 0
-0.0275383 0.0573424 0.00140004
0 0 0
0.0380396 0.726496 0.0250048
0.0609331 0.0622465 -0.0543198
0.179669 0.442483 0.107099
0 0 0
0.273523 -0.00951902 -0.421224
0.0293229 0.00085012 0.00363435
0.204773 -0.315086 0.422059