<?xml version="1.0"?>
<VTKFile type="RectilinearGrid">
<RectilinearGrid WholeExtent="0 32 0 32 0 32" Origin="0 0 0" Spacing="1 1 1">
<Piece Extent="0 32 0 32 0 32">
<PointData>
</PointData>
<Coordinates>
<DataArray type="Float32" format="ascii">
0 0.524874 1.04975 1.57462 2.0995 2.62437 3.14924 3.67412 4.19899 4.72386 5.24874 5.77361 6.29849 6.82336 7.34823 7.87311 8.39798 8.92285 9.44773 9.9726 10.4975 11.0224 11.5472 12.0721 12.597 13.1218 13.6467 14.1716 14.6965 15.2213 15.7462 16.2711 16.796 
</DataArray>
<DataArray type="Float32" format="ascii">
-5.03879 -3.62163 -2.20447 -0.787311 0.629849 2.04701 3.46417 4.88133 6.29849 7.71565 9.1328 10.55 11.9671 13.3843 14.8014 16.2186 17.6358 19.0529 20.4701 21.8872 23.3044 24.7216 26.1387 27.5559 28.973 30.3902 31.8074 33.2245 34.6417 36.0588 37.476 38.8931 40.3103 
</DataArray>
<DataArray type="Float32" format="ascii">
0 0.524874 1.04975 1.57462 2.0995 2.62437 3.14924 3.67412 4.19899 4.72386 5.24874 5.77361 6.29849 6.82336 7.34823 7.87311 8.39798 8.92285 9.44773 9.9726 10.4975 11.0224 11.5472 12.0721 12.597 13.1218 13.6467 14.1716 14.6965 15.2213 15.7462 16.2711 16.796 
</DataArray>
</Coordinates>
<CellData>
<DataArray type="Float32" Name="Vector" NumberOfComponents="3" format="ascii">
0 0 0
0 0 0
0 0 0
0 0 0
0 0 0
0 0 0
0 0 0
0 0 0
0 0 0
0 0 0
0 0 0
0 0 0
0 0 0
0 0 0
0 0 0
0 0 0
0 0 0
0 0 0
0 0 0
0 0 0
0 0 0
0 0 0
0 0 0
0 0 0
0 0 0
0 0 0
0 0 0
0 0 0
0 0 0
0 0 0
0 0 0
0 0 0
0 0 0
0 0 0
0 0 0
0 0 0
0 0 0
0 0 0
0 0 0
0 0 0
0 0 0
0 0 0
0 0 0
0 0 0
0 0 0
0 0 0
0 0 0
0 0 0
0 0 0
0 0 0
0 0 0
0 0 0
0 0 0
0 0 0
0 0 0
0 0 0
0 0 0
0 0 0
0 0 0
0 0 0
0 0 0
0 0 0
0 0 0
0 0 0
0.060556 0.0987345 0.0434014
-0.383572 -0.0534969 -0.025588
0 0 0
-0.160169 0.228568 -0.0178205
0.212061 -0.0703198 0.0483803
0 0 0
0.260428 0.12023 0.0147524
0.0405813 -0.0184241 -0.00207988
0.0866414 0.00936066 0.00482632
-0.288397 0.0488572 0.0267246
0 0 0
0.00813201 -0.162422 -0.0247205
-0.012719 0.0311283 -0.00123322
0 0 0
-0.0474239 0.0179264 0.0482738
-0.124786 -0.0929786 0.000190677
-0.07871 0.112518 0.0626228
-0.014343 -0.304222 -0.0471272
-0.00244948 0.0134791 0.08828
0.263908 0.000855953 -0.0192726
0.042908 0.101324 0.0329128
-0.000840368 -0.00184156 0.0375231
0.168396 -0.0197559 -0.00191767
-0.0471944 -0.087025 0.0683779
0.106084 -0.126687 -0.085661
0.212356 -0.218367 -0.00763809
0 0 0
-0.0377205 0.182677 0.075037
-0.0615476 -0.34357 0.0652512
0 0 0
-0.0590749 0.11228 0.111307
-0.110979 -0.129646 -0.0549103
-0.000812054 0.000988966 -0.0123735
0.116619 0.0495082 0.0923166
0 0 0
-0.176032 0.0853136 -0.0070266
-0.0524902 0.0322804 -0.0375624
0 0 0
0.356282 -0.15354 0.00524949
0 0 0
0 0 0
0.0987399 0.146662 0.0215339
0 0 0
0.0885068 0.00134325 0.0149414
-0.0160101 -0.0453086 -0.00231024
0 0 0
0.00464027 0.0108348 -0.0424601
-0.00443616 0.077858 -0.0179156
-0.000451354 -0.0402029 0.0231197
-0.0102234 -0.0100011 0.0489087
0 0 0
0.199175 -0.17108 0.0506954
0.0238277 0.00823215 -0.071975
0 0 0
-0.222959 -0.0336753 -0.0226058
0 0 0
-0.056812 -0.0405069 0.0457347
0.0806437 0.141469 -0.00289335
0 0 0
-0.0887032 0.0171206 -0.14917
0.0129464 0.142493 -0.0375366
0 0 0
0.154052 -0.00149733 -0.012455
0.0174405 0.00960802 0.0113767
0.0736765 0.576023 0.130976
-0.418471 0.243008 -0.111085
0.0784243 -0.011727 -0.234367
-0.0834276 -0.0581101 -0.00149312
0 0 0
0 0 0
0.0958544 0.0627602 0.0292751
-0.202849 -0.129903 0.0787005
0.140504 0.0997347 0.0604763
0 0 0
0.141206 -0.0696493 -0.113233
0.0893099 0.112239 -0.189585
0 0 0
0.0479774 -0.0200655 -0.136609
0.0204352 -0.0462569 0.130368
-0.227753 0.183963 -0.0295852
-0.268571 -0.0433957 -0.175876
-0.034436 0.0875205 -0.280742
0.0841509 -0.142517 -0.414809
-0.229398 -0.0827315 -0.00552299
-0.054941 -0.0274376 0.017333
0.345785 0.0842116 0.312006
-0.212548 0.271015 0.0899774
0.0144475 0.0353828 -0.115029
0 0 0
-0.127284 -0.321446 -0.0148167
0 0 0
0.183479 -0.166077 -0.00254403
0.243206 -0.0506734 0.0697838
0.495686 -0.0489988 0.104069
0.219445 0.00837172 0.169548
0.00174427 -0.0537006 0.0152865
0.0298031 -0.107342 0.00135324
-0.0030551 -0.0259182 -0.159874
-0.242803 0.218576 0.101088
-0.126966 -0.184375 -0.0876961
0 0 0
-0.035473 -0.134058 0.467259
-0.220218 0.165889 0.189256
-0.0954529 -0.168967 -0.175606
0 0 0
-0.0377422 0.133846 -0.103014
-0.000331191 -0.0130604 -0.00813147
0.258304 -0.169764 0.266993
0.0846541 -0.130675 -0.138227
0.111036 -0.200341 -0.0629369
0.142391 0.10014 -0.0232412
0 0 0
-0.112711 0.00795654 -0.149655
0.0267707 0.184313 0.141108
0 0 0
0 0 0
-0.0176962 -0.0211681 0.26009
-0.0774347 0.068734 0.15236
0.000281623 0.202506 -0.0112319
0.0794758 0.281184 -0.248203
0.0615277 0.037027 0.3251
0 0 0
0.000781439 -0.0577532 0.0389717
0.0149671 -0.0199589 -0.0315428
-0.0556605 -0.100501 -0.0187166
-4.60128e-05 -0.722274 0.178653
-0.00458701 0.00611516 -0.00574773
-0.0494109 -0.335357 -0.282286
0.000136121 0.0416643 -0.151169
0 0 0
0.0844192 0.0783873 -0.0760022
-0.216588 -0.122238 -0.190076
-0.0851839 -0.257448 0.355411
0 0 0
0.138492 0.291306 0.0482776
0.0980283 -0.0534173 0.0474761
-0.28387 -0.207353 -0.249187
-0.272332 0.174578 -0.112834
-0.104977 -0.0876432 -0.29381
-0.0583597 -0.264588 -0.0543211
0 0 0
0.000745601 -0.126951 -0.118402
0 0 0
-0.287846 0.0485654 -0.136348
-0.00856964 0.0192707 -0.00524997
0.144005 -0.257992 0.0788078
0.41782 -0.106482 0.287825
-0.00572314 -0.0178298 -0.000514387
-0.000342338 0.21634 0.163814
-0.00193215 0.0506629 -0.151673
-0.0815942 0.0301249 -0.082412
0 0 0
0 0 0
0.245559 0.270697 -0.0046821
0 0 0
0.0500048 0.264626 0.277103
0.00206752 0.015158 0.0616559
-0.0642282 0.0435545 -0.068023
0 0 0
0.0282631 -0.297215 -0.12243
0 0 0
-0.0328381 0.0258689 -0.0955443
-0.192443 0.554867 0.0572756
-0.025458 0.0369022 -0.0842814
-6.90424e-05 0.764637 -0.255272
0 0 0
-0.0334918 -0.0858531 0.121298
0 0 0
0.0807383 -0.0967647 0.112665
0.0456816 0.00144154 0.0677336
-0.0139531 -0.000313193 -0.0378167
0.183571 -0.0674546 -0.00179559
0 0 0
-0.357733 -0.0134466 0.261447
-0.137044 0.129002 -0.179446
-0.0130477 -0.0933824 0.00818657
0 0 0
0.131559 0.0319291 -0.017304
0.0291522 -0.00722301 0.441702
0.00211887 0.0213707 -0.0509728
-0.104911 0.22568 -0.0352358
0 0 0
0 0 0
0.0197664 0.00901692 -0.19155
-0.056794 0.163608 -0.0908412
0 0 0
-0.0599989 0.0117458 0.00106669
0 0 0
0.0121186 0.0130108 -0.0202082
0 0 0
-0.433689 -0.250907 -0.18974
-0.0350294 -0.138836 0.03887
0.0969949 -0.0677885 -0.124584
0.120471 0.135762 -0.159417
-0.215978 0.0622637 -0.0846361
-0.530778 0.305287 -0.107109
-0.211699 0.300091 -0.024049
0 0 0
0.407751 -0.0151313 0.107068
0.484224 0.300916 -0.00162948
0 0 0
-0.0314266 -0.350322 0.237815
0 0 0
0.00182674 -0.416081 0.0461507
0 0 0
-0.0106597 0.152144 0.193328
-0.0510891 -0.136977 0.0338618
0 0 0
0.289974 0.00696901 -0.0992096
0.189068 0.253622 0.168353
0 0 0
0 0 0
-0.0644997 0.0655595 -0.0121322
-0.083078 0.27853 0.00778891
-0.0028182 0.0403572 -0.0199793
0.0512752 0.14527 0.0595588
0.00325424 0.0465912 -0.333012
0 0 0
-0.210472 0.104751 -0.00906217
0.00209771 0.118498 0.00914708
0.147768 0.0792638 -0.165527
0.126417 -0.00702464 0.0608854
-0.036572 -0.0509556 -0.0858955
-0.0353114 0.136588 -0.444146
-0.0580273 0.140912 -0.0889176
-0.156007 0.230823 0.0541087
0.0143433 0.0577191 -0.0662056
0.480047 -0.157355 -0.000705238
0 0 0
-0.0193764 -0.231074 0.302944
-0.105222 -0.0232915 -0.0106646
0.0475038 0.0870799 -0.00607952
0.0241367 0.298904 0.00183635
0.432383 -0.380094 0.0795521
0 0 0
0 0 0
0 0 0
0.0176143 0.129473 -0.0962851
0 0 0
0.167821 -0.119234 0.174327
0 0 0
-0.0519948 0.0127156 0.15043
0 0 0
0.0910005 0.0301903 -0.00026994
-0.011904 0.00452017 0.00313626
0 0 0
0.111525 -0.0373892 -0.0360293
-0.135237 0.050512 0.184124
-0.0528665 0.153521 -0.196979
0 0 0
-0.0537659 0.0989355 -0.215005
-0.0860119 0.160254 -0.13024
0.227645 -0.102646 0.232272
-0.00847576 0.121358 -0.277442
0.000790622 0.0873303 0.0847629
-0.0468154 0.173247 0.00202219
0.0145696 -0.0114941 -0.145564
0.151215 -0.0452157 -0.0145942
-0.0456507 0.00485568 0.0985936
0.184259 -0.109391 -0.298656
0.0642304 -0.04515 -0.0064676
0.130403 0.346416 -0.368951
0.0120305 0.0343263 -0.0265747
-0.0653756 -0.015359 0.191287
0.185968 -0.0985551 0.0938606
0.469968 -0.107652 0.25457
0.265219 -0.195367 0.43612
0.00114211 -0.111976 0.103479
-0.107616 0.213431 -0.0143587
-0.0279509 0.155872 0.00191573
0.0113752 0.0505917 -0.0305399
-0.135131 0.118767 -0.00501449
0 0 0
-0.0800012 -0.101379 0.095914
-0.354913 -0.10115 0.0679169
0 0 0
0.089427 0.533689 0.140069
0 0 0
-0.356856 0.241588 -0.135717
0 0 0
0 0 0
0.0386422 0.182815 -0.0381831
0.0563138 0.107049 -0.0908399
0.123587 0.346968 -0.0898169
0 0 0
0.0217355 -0.056025 -0.0683783
-0.00278749 0.286672 -0.0776288
0.1657 0.103048 -0.308762
0.356587 -0.089984 0.0722238
0.0929875 -0.259397 0.271281
0.354915 0.320119 0.133108
0.170422 0.0265689 -0.222181
0 0 0
0.161719 -0.176306 -0.0560977
0 0 0
0.286821 -0.417842 -0.281965
0.0433056 0.11116 0.0982142
0.14802 0.29017 0.0840142
0.00115385 0.0159851 -0.0407167
0.00936942 0.0650199 0.0152484
0.15566 0.174397 -0.0644291
-0.0707255 0.0749133 0.00797751
0.0699153 0.11931 0.0514657
0.0125993 -0.00420864 -2.72513e-05
0.00143396 0.00251002 0.0010207
0.0704744 0.0143036 0.0903931
0.188925 -0.405083 -0.243934
-0.21072 0.0810961 -0.12989
-0.511487 0.1485 -0.0767648
0 0 0
-0.372795 -0.285364 -0.0338692
-0.0890024 0.12451 -0.227198
0.0504982 -0.197551 0.329061
-0.303608 0.299829 -0.0845069
0.24359 0.0171692 0.135324
0.039258 0.0351527 -0.0284953
0.523142 0.127504 -0.272619
0.0658785 0.0293034 0.0423066
0.0275269 -0.189881 0.14791
0.0324259 0.00256318 -0.0658605
-0.0791203 -0.0277778 -0.0732117
0.0108454 0.0703339 0.0569594
0.519752 0.255607 -0.0791809
0.10037 0.0624109 0.0593551
0.229971 0.153543 0.0859594
0.389524 0.178094 -0.168744
0.121638 -0.0154558 0.266373
0 0 0
0.000476453 -0.0259635 -0.0207467
-0.220847 0.314418 0.117018
0.0600847 -0.0363649 -0.0825677
0.0775671 -0.00215051 -0.016899
0.142333 -0.0841506 0.0964468
0.00212646 0.00550382 -0.00415056
-0.0189966 0.0188514 0.318326
0 0 0
0.169471 0.563798 -0.428159
0 0 0
0 0 0
0.00968617 0.275026 -0.138831
0 0 0
0 0 0
-0.141162 -0.00527006 0.153047
0 0 0
0.163326 -0.082123 -0.0585839
0.00970098 0.0427861 0.0203965
0.0839399 0.0722732 -0.00417402
-0.00728582 0.0524982 -0.00458284
0 0 0
-0.0715478 -0.03882 -0.14164
0 0 0
-0.131075 0.247777 -0.058546
-0.333908 -0.0303427 -0.367073
0 0 0
-0.0101487 0.013219 -0.00276776
0.183839 0.012968 -0.0713858
0.378682 0.00619636 -0.117778
0.183993 0.0168002 0.139724
0.271917 0.2698 0.168809
0 0 0
0.093676 0.387823 -0.045763
0 0 0
0.0151154 -0.0029019 -7.40858e-06
-0.13327 -0.320833 -0.274337
0.0504678 -0.0201651 -0.103622
0.0619791 -0.243951 0.172863
0 0 0
0 0 0
-0.0876547 -0.0786935 0.11824
0 0 0
0.00420623 0.077132 0.0770467
0.148306 0.260649 0.147656
0.209537 0.0020527 -0.174106
0.029179 0.112031 0.237679
0 0 0
-0.025753 0.159314 0.196308
0.0100498 -0.0138579 0.0591594
-0.248602 -0.0917713 0.141147
-0.191561 0.158472 -0.332303
0.155798 0.134009 0.151948
0.000404795 -0.0852913 -0.103647
0.00808009 0.0287219 -0.0222019
0.237776 0.0957212 0.0550964
-0.103295 0.0893256 0.14384
-0.108272 -0.0145598 0.0746624
0 0 0
0.13384 0.208222 0.291552
0 0 0
-0.0348103 -0.071689 0.152694
0.0189495 0.0163872 0.0800716
0.194048 0.305214 0.204658
0.00610781 0.0834053 0.0183611
-0.0790181 0.0102606 -0.00193326
0 0 0
0.227606 0.141591 -0.240526
0.270757 0.233122 0.04057
-0.0501025 -0.656067 -0.291338
-0.000371829 -0.0428731 0.0104004
-0.0945322 -0.312914 -0.406214
0 0 0
-0.144518 -0.163389 0.0735817
-0.115558 -0.121681 0.010707
0 0 0
-0.0673903 0.295663 0.00055523
-0.166572 0.0900139 -0.0261164
-0.182223 -0.0521998 -0.261336
0.0288679 0.085797 0.0893356
0 0 0
-0.0685544 0.260577 0.133835
0 0 0
-0.305898 -0.0696505 -0.0207965
0.00124038 0.0195753 -0.0663957
0 0 0
0 0 0
0.122991 -0.123242 -0.0567433
0.0103225 0.0249443 0.033431
-0.401577 -0.601535 -0.0032246
0 0 0
0.180458 -0.423272 0.106167
0.113783 0.062626 -0.0214151
-0.00026667 0.154934 -0.114878
-0.099422 0.307276 0.221839
0.0293736 0.262145 0.217133
0.000477633 0.0695769 -0.0211214
0.0411238 -0.000714414 0.0971375
-0.265499 -0.282926 0.351299
-0.186443 0.247761 0.0449359
-0.223626 0.483692 0.498376
-0.0564421 -0.390866 0.061322
-0.068954 0.386411 -0.087971
-0.0409347 0.00608569 -0.00155064
-0.00186517 0.00996509 0.0272386
-0.229904 0.299551 0.189323
0 0 0
-0.150853 0.237112 -0.0423522
0.000186462 0.0310413 -0.0230775
-0.167066 0.420855 -0.272648
0 0 0
0.079456 0.119343 0.0279135
0 0 0
-0.0357456 0.0424691 -0.0162866
-0.364235 0.200999 0.0950507
-0.0189199 0.164289 0.102827
-0.147751 -0.26464 -0.476889
-0.208794 0.0853741 0.0199325
-0.194086 0.161434 -0.195207
-0.392111 0.0519297 0.105379
-0.276233 0.0912298 0.0175865
0.0865143 -0.48097 0.138186
0.0610912 -0.231372 0.275208
0.0425449 0.175269 0.119773
0.160446 0.0716912 0.0289158
0.331224 0.499815 0.522452
0 0 0
0.194568 0.298804 0.0304732
0 0 0
0.208282 -0.0287141 0.050116
0.13771 0.178835 -0.0365483
0.012972 0.0256683 -0.0062759
0.0667964 -0.0144876 -0.0550646
0.215398 -0.0383244 0.101822
0.22467 -0.026577 -0.00670191
0 0 0
0.064322 0.0186787 0.00849002
0 0 0
0.154364 -0.0190496 -0.0152079
0 0 0
-0.0296451 0.423855 -0.0790631
0.0852234 0.0286163 -0.146559
0 0 0
-0.0710006 0.0351764 -0.183486
0 0 0
-0.14548 0.158558 0.0332875
-0.0542355 0.00644135 -0.152917
-0.129064 -0.343448 0.0278043
0.159006 -0.0137039 -0.0513795
0.00422892 0.00102483 -0.0328193
0.327963 0.143626 -0.330001
0.132856 0.155502 0.338063
0.132415 -0.00306773 -0.124085
0.0130106 0.0875656 -0.0738807
-0.0228764 0.00331153 0.040899
-0.167405 -0.0345335 -0.0405562
0 0 0
-0.0611538 -0.0136189 0.0646153
0.00369469 0.00777616 0.0280206
0.0392396 -0.00416457 0.109165
0 0 0
0 0 0
-0.0195938 0.187565 -0.447091
-0.0230208 0.310729 0.542214
-0.141005 0.053699 0.129246
-0.36619 -0.0373038 0.14575
0.0704563 0.0713202 0.140838
0.141189 -0.174927 -0.326151
0 0 0
0.264654 -0.158035 -0.361464
-0.0957765 0.0303016 0.0290413
0.389307 -0.14035 -0.198397
0.135884 0.0675504 -0.140461
0.130795 -0.00102244 -0.0313177
0 0 0
-0.0883454 -0.211922 -0.000935446
0 0 0
-0.115358 -0.0867182 -0.0799141
-0.206258 0.161708 0.0397973
-0.0539713 -0.27406 -0.202949
0 0 0
0.0675872 -0.0711246 -0.0202345
0.0570819 0.0156116 -0.113025
0 0 0
-0.00421251 -0.0570552 -0.137115
0 0 0
-0.0230033 -0.0108327 -0.216446
-0.0221958 -0.016361 -0.00120668
0.0013205 0.0362035 -0.134114
0 0 0
0.0269726 -0.0407395 -0.0416567
0.0102929 0.264696 -0.155828
-0.270164 -0.115126 0.31048
-0.237768 0.0502495 0.125405
0 0 0
-0.00814119 0.266424 0.02432
0 0 0
-0.0193945 0.18041 -0.137209
0.110111 0.00263713 -0.0650961
0 0 0
0 0 0
0.0144522 -0.0523235 -0.0266405
0.000493785 -0.178068 0.00837663
0.0476085 0.0508637 -0.070933
0 0 0
0 0 0
0 0 0
0 0 0
0 0 0
-0.0400114 -0.015835 -0.0281019
-0.00547359 0.0577286 -0.2556
-0.0223396 -0.0781122 -0.357114
-0.0849757 0.00273528 0.0560711
0.00383456 0.0583618 -0.00482692
0.0097229 0.462339 -0.264596
-0.0692076 -0.0424526 0.029262
-0.0749854 -0.509712 -0.23773
-0.00867815 -0.191685 0.153008
0 0 0
0.0535981 -0.256414 -0.00240772
0.0245132 0.0333544 0.000513235
0 0 0
-0.00204623 0.610385 -0.0242867
0 0 0
0.00182316 0.0102181 -0.0562659
0.0048252 -0.103476 0.145044
0.276912 0.430014 0.0350499
-0.373276 0.258753 -0.418893
0 0 0
0.311676 0.222756 0.133631
0.116349 0.0811473 0.130024
0.161917 -0.0124176 0.000243988
0.117529 -0.0467302 -0.182177
0 0 0
0 0 0
-0.245379 -0.479234 0.133493
0 0 0
-0.382679 0.00802292 -0.14888
-0.338643 -0.0228123 -0.116227
-0.290989 -0.160963 0.242768
-0.129828 -0.0172864 0.0916172
0.0652135 -0.0094747 0.229528
0.124759 0.167215 0.0870019
0.0677883 -0.105853 -0.02516
-0.135746 -0.167783 -0.0626273
-0.133425 0.126741 -0.12631
-0.0312948 0.0609872 0.0394221
-0.0119876 0.127765 -0.0698965
-0.032846 0.0685943 -0.515019
-0.0630058 -0.0948825 -0.195613
-0.0479121 -0.127167 -0.0967636
-0.201119 0.187634 -0.16239
-0.0731323 0.227509 0.000346872
0 0 0
-0.175203 0.341853 0.216117
0 0 0
-0.113642 -0.0644286 0.122132
0.104551 -0.105206 -0.187696
0 0 0
0 0 0
0 0 0
0 0 0
-0.031779 -0.156369 0.0516289
-0.0609399 0.052668 -0.0706357
-0.0734014 -0.00638112 -0.0222214
0.0770136 -0.00228407 -0.147487
0.130341 -0.00127146 -0.115537
0 0 0
0.0369697 0.176968 0.0238751
0 0 0
0.0323991 -0.00810012 -0.00100423
0 0 0
0.000902508 -0.229005 0.305099
-0.00169767 -0.122926 0.290073
0.181877 -0.149181 0.232402
-0.0338825 -0.0186297 0.0122593
0.340973 -0.173907 -0.0322835
0.0821851 -0.0047071 0.021289
0.122195 -0.30473 -0.24071
-0.0113867 -0.0380131 0.10647
0 0 0
-0.0760241 -0.0723867 -0.0327595
0 0 0
0 0 0
-0.0235907 0.280742 0.0039126
0 0 0
-0.100677 0.284812 -0.275421
-0.0896175 0.0354311 -0.14831
-0.190387 -0.0609789 0.0556583
0 0 0
0.0139733 0.0439692 0.00157045
-0.209421 0.206008 0.128388
-0.032619 0.00747874 -0.0215407
-0.177542 -0.0710153 -0.17484
-0.0345137 0.0816922 0.04139
-0.212603 -0.13816 0.144999
-0.122689 -0.0367387 -0.142322
0.0890584 -0.00961169 0.418764
-0.165481 0.0324569 0.185431
-0.151183 0.210054 0.155427
0.282989 0.0336893 0.0831329
0.291925 -0.207919 -0.328595
0.0487347 0.00404438 0.0365398
0.214502 -0.290715 -0.218557
0 0 0
-0.0542238 0.202641 0.0589012
0 0 0
0 0 0
-0.174273 -0.125609 -0.340155
0 0 0
-0.0502837 0.0165191 -0.0590514
0 0 0
0 0 0
0 0 0
0.339276 -0.164022 -0.098338
-0.0336211 -0.000193619 0.024
0.263833 0.469442 -0.057741
0.0292352 0.0435631 -0.00901763
0.0694512 -0.0136576 -0.245408
0.11595 0.286303 -0.212388
0.0851657 -0.0392573 0.0171954
0.000473665 0.0430238 -0.0562801
-0.068414 -0.0868791 -0.107818
0.126357 0.272015 -0.0370893
0.00637938 0.0704065 0.0232244
0.115197 0.292737 -0.0602786
0.187743 -0.134335 0.238427
0.121168 -0.0879214 0.240842
0.12421 -0.0216708 0.0342106
0.104018 0.0984294 0.0333137
0 0 0
0.205859 -0.0476133 -0.174414
0.147279 0.103858 0.407516
0.0526408 0.121452 0.000303835
0.705035 0.0997372 -0.0585979
0.0720239 0.17418 -0.100593
0.0769819 -0.0359468 0.00242265
0.0822078 0.163457 -0.0884726
0.347976 -0.406014 0.0516327
0.0355564 0.0797476 -0.244612
0 0 0
0 0 0
-0.0960315 -0.0411085 0.260837
-0.0420684 -0.291118 0.00393418
0 0 0
-0.0359337 0.313986 -0.0688481
0 0 0
-0.256494 0.212596 0.115463
-0.00923385 -0.0164065 0.0221035
0.346064 -0.0646993 0.189792
0.256826 -0.0133798 0.0565233
0 0 0
-0.0182248 -0.000763505 0.179247
0.189213 0.171598 -0.164473
-0.0444855 -0.0840462 0.134767
0 0 0
-0.0863394 0.108177 0.0780138
-0.0601833 0.0273703 0.0271008
-0.309108 -0.0212264 0.352436
-0.00118218 0.108164 0.0507519
-0.0928806 0.159551 0.00522696
0.000869837 0.0152268 0.0811888
0.115251 0.343029 -0.107173
-0.0268831 0.000869811 -0.0297578
0.165411 -0.0178658 0.0701588
0.129381 0.44133 -0.00122342
0 0 0
0.157322 -0.164088 -0.0658241
-0.00313307 0.400078 -0.193456
0.215473 0.184223 -0.055897
0.0321292 0.19554 -0.113305
-0.0823943 0.086613 -0.313456
0 0 0
-0.0739622 -0.00811345 0.153948
-0.0824653 0.105358 -0.113181
-0.322689 -0.117483 -0.0253163
-0.0160616 0.0376467 -0.0157475
-0.0320752 0.191471 0.00109771
-0.00755165 -0.116623 0.0597617
-0.00964585 -0.0675204 0.0189187
-0.0103293 -0.0070282 -0.0153837
-0.139185 -0.00237298 0.0218127
0.081015 0.06026 -0.00859628
0.00560398 0.0213611 0.000760758
0.0679602 0.133531 -0.104057
0 0 0
0 0 0
0 0 0
-0.0439631 0.00956968 0.000739085
-0.238719 -0.225089 0.0672128
0 0 0
-0.371859 0.133328 -0.0472117
-0.0549814 -0.00893532 -0.0380563
-0.425008 0.239286 -0.0413796
0 0 0
-0.0835371 -0.133571 0.0751667
-0.0723866 -0.0422222 0.134056
0 0 0
-0.0335351 0.137726 0.0140709
-0.00250389 0.274198 0.175023
-0.0756203 -0.00817199 -0.0580356
0.0617046 0.0472637 0.0622255
-0.0914287 0.207609 0.316933
0.123816 0.103211 0.00945866
0.207481 0.219861 0.0811664
-0.0116843 -0.0274393 0.108963
0.0491615 0.0478909 -0.00113272
0.0954589 -0.00349833 -0.123685
0.0415307 -0.168896 0.00830538
-0.054166 -0.00258805 -0.300041
-0.0147076 -0.0658244 0.131393
-0.118704 0.149698 0.1614
0.0459744 0.0788513 0.0851712
0 0 0
0.0233956 0.078588 -0.143813
-0.418709 -0.107991 0.338281
-0.0305093 0.133691 -0.151588
-0.00128475 0.0612971 -0.00388611
-0.0542845 -0.0259233 -0.114838
0.077011 0.188272 -0.213115
0.455705 0.246675 0.200293
0 0 0
0.106687 0.283573 -0.271091
0.100719 0.250013 0.117583
-0.161673 -0.145722 0.400757
0.111006 0.245445 0.153814
0.0234474 0.0567762 -0.0338163
0.0247698 0.258368 -0.030241
0 0 0
0.00556223 0.0386305 0.000397626
0 0 0
-0.133011 0.319004 -0.255773
-0.0306114 -0.0215488 0.11433
-0.0895125 -0.124212 0.0454414
-0.0909403 0.0767446 0.238164
0.318227 -0.0331209 0.229896
0.0536938 0.038761 -0.18697
-0.00186074 -0.0222833 0.00252718
-0.00239965 -0.0604671 -0.0202814
-0.0769075 -0.0898287 -0.0759743
0.0288937 0.000885316 -0.023033
0.0297184 -0.0553532 0.0148643
0 0 0
-0.306873 0.661798 -0.293324
0 0 0
0 0 0
0.340424 0.13919 0.208202
0 0 0
0.166539 0.0214466 -0.112884
0 0 0
-0.324505 -0.163501 -0.218578
-0.0235981 0.0402315 0.00874147
0 0 0
-0.127976 0.0179239 0.0851111
0 0 0
-0.141255 -0.175196 -0.26112
0.0451078 -0.0544574 0.107519
-0.00888189 -0.0119668 -0.258543
-0.240897 0.0217617 -0.00195242
0 0 0
0.0556837 0.0345054 -0.0383871
0 0 0
0.0069434 0.354717 -0.188081
0 0 0
-0.0311 0.118358 0.00116631
0 0 0
-0.130469 -0.000338344 0.143542
-0.00245588 0.0224164 0.0764606
-0.106546 0.321131 -0.04606
0.00130849 -0.0926007 -0.138322
0.102018 0.0669151 0.0758961
-0.4445 0.0641201 -0.0414746
-0.200841 -0.0484878 -0.0236587
0.045965 0.130122 0.0382934
0.391802 -0.382704 0.321526
0.123061 -0.0564578 -0.0490583
0.525068 -0.00608724 -0.208067
0.0533152 0.0382656 0.0262873
0 0 0
-0.0479455 -0.0888153 -0.169302
-0.159252 0.0356002 -0.119912
0.122272 0.0823582 -0.0289788
0.591415 -0.335549 0.0528499
-0.030517 -0.106047 0.112666
0 0 0
0.148658 0.00721391 0.282448
0.237093 0.02768 -0.0692066
0.134598 0.131513 0.0364285
0.214425 -0.338358 0.191605
0.0413229 -0.000946298 0.0690364
-0.00531397 -0.000178829 0.00701682
-0.14474 -0.102707 0.154465
0 0 0
-0.176548 0.209028 -0.0800897
-0.000257847 0.0839765 -0.0775166
-0.077054 0.151041 -0.161047
0.0841535 -0.230789 0.0848607
0 0 0
-0.0570614 -0.0490374 0.0643611
0 0 0
0.0967809 0.173241 0.101799
0.0575657 0.107775 0.0762627
0 0 0
-0.0306185 -0.0671208 0.0753145
0.101581 0.0482532 0.0143669
0 0 0
0 0 0
-0.0610288 -0.0873877 0.111022
-0.175484 -0.185585 0.221256
0.0440418 0.420024 0.0915847
0.106564 0.359816 0.164722
0 0 0
0.0028357 0.173159 0.00335004
0.0340475 0.00284966 -0.0831327
0.00592993 -0.00560336 0.0029529
-0.0540089 0.0971868 -0.000124627
0 0 0
-0.224213 0.00485688 0.244336
0 0 0
0 0 0
0.0684974 0.31539 0.0956125
0.105717 0.148395 -0.0945216
0.351449 -0.250745 0.0435162
0.232679 0.116738 -0.325131
0.0811274 0.0598742 -0.197202
0.0152144 0.0036284 -0.00444279
0.118711 -0.186849 0.231723
0.526045 0.0208139 -0.0977726
0.115256 -0.0411327 -0.0572059
0.168275 0.0678751 -0.109116
0 0 0
-0.0427054 0.0797915 -0.0345845
0 0 0
-0.363809 0.190725 0.00792859
-0.198721 -0.157402 -0.169688
0 0 0
-0.0985732 -0.0771929 0.00167832
0 0 0
0.0567151 0.0127598 -0.00469244
0.12225 -0.409359 0.0217211
0.0271999 -0.446793 0.204846
0.129713 -0.0174905 -0.070091
-0.0624844 -0.0173309 -0.000615389
0.0310285 0.0966756 0.240216
0.00680461 0.0837075 -0.00012932
-0.0460491 0.135774 -0.138888
-0.234237 0.132597 0.235935
0 0 0
0 0 0
0.0161491 0.124959 -0.0282105
0 0 0
0.125177 0.196957 -0.276086
-0.0115002 0.0380486 -0.0237057
0 0 0
0.0502351 0.28376 0.0176866
0.119251 -0.00585035 0.146542
0 0 0
0.0463384 0.104528 -0.0983547
0.2662 0.143368 0.0594804
0.0383011 -0.151217 0.190485
0.0955757 0.0575454 0.286815
-0.0568829 0.000557556 0.0616976
0.0744654 0.163506 -0.0953648
0.0638981 0.213202 -0.00151146
0.0940345 0.150735 0.252714
0 0 0
0 0 0
-0.0826421 0.0526047 -0.0189783
-0.0854433 -0.276598 -0.137813
0.0302909 0.00778668 0.0221943
0.454524 -0.282946 -0.251874
0.0872724 -0.168911 0.0869153
0.00342208 -0.00752712 -0.045255
-0.0180474 0.0342957 0.0246935
-0.108711 -0.188105 -0.165253
-0.0322244 -0.0339931 0.024543
-0.214652 0.153608 0.164785
-0.0454056 -0.0195363 0.0349038
0 0 0
-0.138608 0.0996955 0.274776
-0.0269087 0.0765661 -0.452713
0 0 0
-0.0752973 0.0751246 -0.225751
-0.089903 -0.125808 -0.20015
-0.171292 -0.0201716 -0.16744
0 0 0
0.0618115 0.106613 0.0195103
0 0 0
0.169057 0.169499 -0.0537066
0.162075 0.0162181 -0.101439
0.118625 0.0927022 -0.0212577
0.116012 -0.0431947 -0.0703977
0.374596 0.104125 0.118677
0.259767 -0.0491223 0.534165
0.019501 0.0930462 -0.116892
0.158423 0.0866737 -0.214454
0.0481023 -0.0162682 -0.108289
0.383993 0.0488556 -0.00626615
0.416283 0.0292273 -0.15886
0.0657187 0.000560646 0.160187
0.504218 -0.252017 0.269714
0 0 0
-0.0896721 0.0104375 -0.129112
0 0 0
-0.0642104 -0.22509 -0.0467629
-0.162557 -0.0120719 0.10255
0 0 0
0 0 0
0.177887 -0.115204 -0.205198
0.0926625 0.0453488 -0.00298442
0.0509982 0.121306 0.178508
0 0 0
-0.00479408 0.00877322 -0.0153089
-0.0579016 0.0589835 0.203159
-0.00238482 0.110272 -0.0219588
0 0 0
-0.0441371 0.135155 0.0806613
-0.0854062 -0.0282046 0.00890854
0 0 0
0.042214 0.141371 0.00361516
-0.0910231 0.400348 0.072797
-0.165588 -0.133924 0.0635356
-0.0667433 0.0055039 0.0217484
0 0 0
0 0 0
0.00324752 0.0465537 -0.00664938
-0.111632 0.0847649 0.14271
0.121815 0.213264 -0.000594608
0 0 0
0 0 0
0.0935992 -0.013309 0.000190117
0 0 0
0.00340235 -0.150359 -0.00490268
0 0 0
0 0 0
0 0 0
0 0 0
0 0 0
0 0 0
0 0 0
0 0 0
0 0 0
0 0 0
0 0 0
0 0 0
0 0 0
0 0 0
0 0 0
0 0 0
0 0 0
0 0 0
0 0 0
0 0 0
0 0 0
0 0 0
0 0 0
0 0 0
0 0 0
0 0 0
0 0 0
0 0 0
0 0 0
0 0 0
0 0 0
0 0 0
0 0 0
0 0 0
0 0 0
0 0 0
0 0 0
0 0 0
0 0 0
0 0 0
0 0 0
0 0 0
0 0 0
0 0 0
0 0 0
0 0 0
0 0 0
0 0 0
0 0 0
0 0 0
0 0 0
0 0 0
0 0 0
0 0 0
0 0 0
0 0 0
0 0 0
0 0 0
0 0 0
0 0 0
0 0 0
0 0 0
0 0 0
0 0 0
-0.0289412 -0.0724925 -0.154485
-0.0562598 -0.0657237 -0.0948594
-0.00165323 -0.00387401 0.0494097
-0.114244 0.0116464 -0.0790827
0.0459646 -0.166343 -0.0818276
-0.00384591 0.0494666 0.133374
-0.0194109 -0.0280386 0.114635
-0.00101805 0.10031 -0.0886525
0.00325058 -0.0750642 0.0751276
-0.0306549 0.0998143 -0.0285704
-0.00281616 -0.0464858 -0.00584997
0.122828 0.14162 0.146759
-0.0686137 -0.075097 -0.0131607
0.00220146 -0.0241487 -0.00302932
-0.0187106 0.0516409 -0.0925316
0.0535801 0.038868 -0.0729362
-0.0141742 -0.0620477 0.0880257
-0.0765565 0.143667 -0.065846
0.0344565 -0.0703772 -0.0582655
0.152976 -0.024338 0.108443
-0.106575 -0.0572483 -0.0930391
-0.0166081 -0.0289625 0.0478228
-0.00675845 -0.0457986 0.0102186
0.05422 0.0865573 0.221122
0.0891512 0.0274495 -0.233624
0.0947387 -0.0502961 -0.0713249
0 0 0
0.11396 0.0457434 0.00681835
-0.126739 0.0429113 -0.0862335
0 0 0
0.0164276 -0.010299 -0.0404191
-0.00767636 -0.0126137 0.374583
-0.0359692 -0.0134178 -0.224916
-0.0664158 -0.022193 -0.00651064
0 0 0
0.0456843 -0.00468228 0.0887354
-0.126655 -0.021719 -0.180604
0 0 0
-0.08838 0.00261537 0.0287841
-0.00384637 -0.142168 0.0693075
-0.0434467 0.0014956 -0.181728
0.0461622 0.00454105 0.00972793
0.00592806 0.14231 -0.136469
-0.0557784 -0.0554597 0.178681
-0.0163827 -0.00468549 0.0304306
0 0 0
0.0301875 -0.044549 0.103129
0 0 0
0.08132 -0.00101854 0.00805273
0.0463581 -0.0167408 -0.00653548
-0.0350679 -0.0458002 -0.0160667
-0.248964 0.0489454 0.0729443
0.00891675 -0.0432196 0.00211585
0 0 0
0 0 0
-0.0216828 -0.174885 -0.0139004
0.00014443 0.0786516 -0.0271109
-0.0703124 -0.0584273 0.112628
0 0 0
-0.00788035 -0.0798828 0.0557664
0.0832708 0.0230851 0.0209367
0 0 0
0.0307239 -0.0296018 -0.0456532
0.0103564 0.00315618 -0.143696
-0.00271758 -0.0692516 0.0986846
0.119485 -0.286214 0.0128187
0.0525191 0.101539 -0.0424741
-0.100547 -0.196102 -0.283924
-0.18651 -0.44078 0.407398
-0.0157851 0.107789 -0.245467
0.293899 -0.0190056 0.146307
0.0271773 0.00350327 -0.0077033
-0.0122287 -0.0428063 -0.359157
0.512913 0.109245 -0.170483
0.0373498 -0.207068 0.0646132
0.257965 -0.00550474 -0.237824
0.0270495 0.0191573 -0.190512
-0.069053 -0.0446403 -0.00387683
0 0 0
0.155156 -0.086487 0.0919615
0 0 0
-0.0197377 0.156759 -0.529128
-0.210122 -0.100951 -0.0541136
0.00251377 -0.08753 -0.0625618
0 0 0
-0.0734495 0.0815018 0.391846
-0.0142885 0.016512 0.0388357
-0.110611 -0.173912 0.253935
0.00759852 -0.0797213 -0.117341
0.23142 0.0983864 -0.0623836
0 0 0
-0.187656 -0.558269 -0.127408
-0.195096 -0.0585539 0.358978
-0.00234758 0.0265005 -0.171991
0.0387105 0.0374711 0.343682
-0.0247111 -0.364934 0.294338
-0.00749899 0.0328848 -0.444576
0.27072 -0.00617118 -0.0257083
0.0275643 0.0864705 -0.0323113
0.187214 0.166615 -0.310992
-0.0362044 -0.022927 0.0495465
0 0 0
0.102596 -0.186293 0.0189616
0 0 0
0.0422339 0.000579529 0.0710824
-0.00798007 0.0138619 -0.0197424
-0.148831 0.124917 -0.507847
0 0 0
0 0 0
0.174382 0.034444 -0.0448005
0 0 0
0.00347899 0.0780976 0.0978963
0.00230996 -0.015159 -0.017402
0 0 0
0.285064 -0.240883 0.150493
-0.0210157 -0.0421379 0.039274
-0.0370681 -0.416442 0.20577
0 0 0
0.202462 -0.111696 -0.0770754
0.204089 -0.261664 0.079394
0 0 0
-0.113423 0.252849 0.118435
-6.33255e-05 0.0500922 0.0419778
0.0201778 -0.336926 0.135383
-0.0381549 -0.183146 0.235639
0 0 0
0.0990604 -0.167032 -0.0206068
-0.00537361 0.172591 -0.0520999
-0.00882175 0.000227165 -0.0201387
-0.170793 0.347381 0.0710794
0 0 0
0 0 0
-0.317842 -0.136669 0.0527553
-0.0384567 0.00267819 0.0367702
0.0853972 0.330121 0.116089
0 0 0
0.0627973 0.156246 -0.00319731
0 0 0
-0.0819144 0.0426584 -0.110618
-0.229683 0.269542 -0.0789282
-0.237341 -0.49476 -0.137157
-0.394924 -0.128546 -0.306215
-0.272643 0.191667 -0.170579
0.227929 0.143176 0.272
0.125512 -0.112653 0.0113371
-0.0285134 0.426427 -0.0884933
-0.00775219 0.111726 0.0994453
0.120403 0.277451 0.0820266
0.00119733 0.16084 -0.136168
0.0451795 0.0203202 -0.00527985
0.303839 -0.0479646 -0.0989497
0 0 0
-0.0468492 0.364012 -0.298112
0.173677 0.213729 -0.0232739
0.0331388 -0.0036271 -0.209636
0.722728 -0.145506 -0.119113
0.432534 -0.136968 0.215481
0 0 0
-0.323356 -0.379979 -0.284112
0 0 0
-0.436842 0.0545692 -0.361466
0 0 0
0 0 0
0.0520972 -0.190739 -0.848619
-0.00799514 0.252281 -0.112071
0.139897 0.243115 -0.144602
-0.050419 0.496817 -0.000698457
0.0255367 -0.0011491 -0.0363456
0.00951155 -0.163617 0.241561
-0.0019444 0.00082844 0.102127