<?xml version="1.0"?>
<VTKFile type="RectilinearGrid">
<RectilinearGrid WholeExtent="0 32 0 32 0 32" Origin="0 0 0" Spacing="1 1 1">
<Piece Extent="0 32 0 32 0 32">
<PointData>
</PointData>
<Coordinates>
<DataArray type="Float32" format="ascii">
0 0.524874 1.04975 1.57462 2.0995 2.62437 3.14924 3.67412 4.19899 4.72386 5.24874 5.77361 6.29849 6.82336 7.34823 7.87311 8.39798 8.92285 9.44773 9.9726 10.4975 11.0224 11.5472 12.0721 12.597 13.1218 13.6467 14.1716 14.6965 15.2213 15.7462 16.2711 16.796 
</DataArray>
<DataArray type="Float32" format="ascii">
-5.03879 -3.62163 -2.20447 -0.787311 0.629849 2.04701 3.46417 4.88133 6.29849 7.71565 9.1328 10.55 11.9671 13.3843 14.8014 16.2186 17.6358 19.0529 20.4701 21.8872 23.3044 24.7216 26.1387 27.5559 28.973 30.3902 31.8074 33.2245 34.6417 36.0588 37.476 38.8931 40.3103 
</DataArray>
<DataArray type="Float32" format="ascii">
0 0.524874 1.04975 1.57462 2.0995 2.62437 3.14924 3.67412 4.19899 4.72386 5.24874 5.77361 6.29849 6.82336 7.34823 7.87311 8.39798 8.92285 9.44773 9.9726 10.4975 11.0224 11.5472 12.0721 12.597 13.1218 13.6467 14.1716 14.6965 15.2213 15.7462 16.2711 16.796 
</DataArray>
</Coordinates>
<CellData>
<DataArray type="Float32" Name="Vector" NumberOfComponents="3" format="ascii">
0 0 0
0 0 0
0 0 0
0 0 0
0 0 0
0 0 0
0 0 0
0 0 0
0 0 0
0 0 0
0 0 0
0 0 0
0 0 0
0 0 0
0 0 0
0 0 0
0 0 0
0 0 0
0 0 0
0 0 0
0 0 0
0 0 0
0 0 0
0 0 0
0 0 0
0 0 0
0 0 0
0 0 0
0 0 0
0 0 0
0 0 0
0 0 0
0 0 0
0 0 0
0 0 0
0 0 0
0 0 0
0 0 0
0 0 0
0 0 0
0 0 0
0 0 0
0 0 0
0 0 0
0 0 0
0 0 0
0 0 0
0 0 0
0 0 0
0 0 0
0 0 0
0 0 0
0 0 0
0 0 0
0 0 0
0 0 0
0 0 0
0 0 0
0 0 0
0 0 0
0 0 0
0 0 0
0 0 0
0 0 0
-0.074151 0.0463499 0.0756965
-0.0648611 -0.00860072 0.0308196
0 0 0
0.0625078 -0.167779 -0.00562429
-0.0644744 -0.160235 -0.0660251
0 0 0
0.12816 0.0424797 -0.0315838
0.183066 -0.052607 0.16909
0.120682 -0.101529 -0.140812
-0.216073 -0.017704 -0.0320466
0 0 0
0.0486558 -0.0488176 0.0126013
0.00164922 -0.218388 0.0209681
0 0 0
-0.143483 0.161185 0.0555523
-0.0732519 0.174978 -0.146703
-0.129955 -0.0870467 0.152688
0.232414 0.110373 -0.00157711
0 0 0
-0.184733 0.165984 -0.026547
0.304307 -0.265651 -0.231499
0 0 0
0.037394 -0.525972 0.0020484
0.0174556 -0.069931 -0.110866
-0.0491976 0.0373086 -0.0302276
0.0790013 -0.142818 0.107693
0 0 0
-0.101628 0.172364 0.0864065
-0.0693031 -0.149879 0.0835114
0 0 0
0.0657349 -0.164419 -0.208122
0.0275948 0.0853605 -0.146191
0.0119691 0.267576 0.0115166
0 0 0
0 0 0
0.0136855 -0.115617 -0.0311254
0.119085 -0.022836 0.0620183
0 0 0
-0.224232 -0.0693797 -0.0340627
0 0 0
0 0 0
-0.00392504 -0.0963621 -0.00820231
0 0 0
0.00738679 0.0449932 -0.0102065
-0.242087 0.0712475 -0.00444253
-0.0139437 0.0166862 -0.0078844
-0.0287431 0.0599847 -0.060696
-0.00245963 -0.0331866 0.00384508
0.0088518 0.0339924 -0.0121206
0.00470604 6.25161e-05 0.0257256
0 0 0
0.110574 -0.0136876 0.0609946
-0.0348531 -0.0393711 0.216806
0 0 0
0.0792707 -0.132227 -0.0113408
-0.0297312 0.000850702 -0.0249715
0.0380893 0.00414437 0.102882
-0.378119 -0.229653 0.00663753
0 0 0
-0.00874951 0.00606998 -0.0270157
-0.501712 0.35779 -0.0319226
-0.00437442 -0.00477735 0.00936572
0.0607147 -0.0547975 0.0893333
0.000554286 -0.0054227 0.0360485
0 0 0
-0.0275267 0.229058 0.141049
-0.00258472 0.00549448 -2.44586e-05
0.116018 -0.085754 -0.101024
0.399114 0.22987 0.0695889
-0.0998462 0.000246123 -0.290667
-0.0248652 0.0157987 -0.00457387
0.336133 0.0588277 -0.156414
0.239906 -0.203086 0.336191
0.166369 -0.0477457 0.0783402
0.126194 -0.25207 -0.0357044
0.0518873 -0.092898 0.214459
0.364311 -0.0186694 0.0598261
0.220508 -0.176294 -0.00326341
0.0588948 0.0849735 0.00828156
0 0 0
-0.0719979 0.138951 0.0982798
0.097378 -0.126016 0.09586
0 0 0
0 0 0
-0.0846125 -0.0669748 -0.0457998
-0.000649243 -0.275288 -0.217648
0.148452 0.0551061 0.333103
-0.102191 -0.217054 -0.307678
0.0857795 -0.216721 -0.147558
0.296017 -0.26056 -0.298498
0.149343 0.0605406 0.16185
0.0924464 0.246931 0.034079
0 0 0
0 0 0
-0.0929653 0.168379 0.0279132
-0.249229 0.127006 -0.134996
0.11038 0.0410702 -0.0597734
0.325498 0.2484 -0.0387547
0.0605093 0.00451454 -0.0180425
0.00143249 0.235504 0.0475951
0 0 0
0.211907 -0.282727 -0.370104
0 0 0
0.455337 -0.320197 0.0109669
0.071622 0.308811 0.0700032
0.0863042 0.00118385 0.056812
-0.210076 -0.0152746 -0.0585295
0.0180252 0.00351814 0.0128027
0.0918481 0.177546 0.142578
0 0 0
0.0577532 -0.0341233 0.00172617
-0.0881128 0.0142703 0.0750757
-0.0452015 -0.25003 -0.216967
0 0 0
0.193534 -0.274797 -0.291738
-0.0230318 -0.262458 0.202819
-0.0221964 0.144629 0.0578136
-0.165615 0.0663895 0.0584436
-0.0492271 -0.0121999 0.129509
0.234224 0.0501612 -0.0421168
0.0649808 0.22311 -0.103939
0 0 0
0.0466883 0.0854501 -0.0206245
0.0205784 -0.002183 0.0178908
0.211467 0.014696 0.264923
0.0517865 -0.0165616 -0.0228661
0 0 0
0 0 0
0.189259 0.0214209 0.0532378
-0.285873 -0.00354032 0.0166227
-0.124188 0.37272 0.00635833
-0.167722 -0.08725 0.426769
0.0999431 -0.042608 0.169183
0 0 0
0.381058 -0.304614 -0.100164
0 0 0
0 0 0
0.0606248 0.00182711 0.00558261
-0.00639488 0.0105536 -0.000138664
0.0370489 -0.025057 -0.0890606
0 0 0
0.0190354 -0.383139 -0.0149376
0 0 0
-0.0393107 -0.0156138 -0.348608
0 0 0
0.138805 -0.293005 0.32033
0 0 0
0.2319 -0.256986 0.30397
0 0 0
0.234068 0.432728 -0.0426556
-0.203932 -0.187159 0.103545
0.0766843 0.065188 0.0651338
0 0 0
0.064719 -0.191252 0.000909317
-0.0110169 0.0518577 0.0520352
-0.307723 0.212815 -0.222572
0 0 0
0.0348772 0.150031 -0.00468962
0.117389 0.0155858 -0.178489
0 0 0
0 0 0
0 0 0
-0.156663 -0.353637 -0.315757
0 0 0
0.00234552 0.348995 0.517899
-0.024771 0.00359166 0.00855271
-0.0235204 0.0248291 0.0812345
0.000179019 0.00526386 0.0119083
0 0 0
0.0158174 0.00759453 -0.00557737
0.00126362 0.25246 -0.0245439
0.0773174 -0.34749 -0.122144
0.188603 -0.0836434 0.176914
0.332446 0.111121 -0.264633
0.0684675 0.135947 -0.0531278
0 0 0
-0.141148 0.537836 0.306545
-0.104255 0.106724 -0.2336
-0.302512 -0.0514055 0.237537
-0.10864 -0.200902 0.25607
0 0 0
-0.0502656 -0.109257 -0.374496
0.0168144 0.0103837 0.0199697
-0.0242246 0.086273 -0.152607
0 0 0
-0.187505 0.0827759 0.125096
-0.0510375 0.0374115 -0.231553
-0.0760503 0.037841 -0.0885682
0.120149 0.193643 -0.387353
0 0 0
0.138627 0.136185 -0.229543
0 0 0
-0.148009 0.0741235 0.229334
-0.0559687 0.160796 0.206443
-0.00610321 0.0512834 0.000282679
0.0500451 -0.0423216 0.0198828
0 0 0
-0.0128104 0.0016879 0.0102425
0 0 0
-0.0900836 0.24696 0.0946082
0 0 0
0.0110566 -0.00394242 -0.00803108
0.511614 0.0719919 -0.0773513
0.127455 0.178854 -0.0646219
0.066613 0.10899 0.0881691
-0.350423 0.1719 0.434239
-0.137303 0.356705 -0.0714446
-0.279041 0.291666 0.191004
-0.301595 0.11583 -0.204459
0.366367 0.130259 -0.517088
0.0387264 0.0741591 -0.101497
0.418051 0.217541 0.0317551
0 0 0
0.323559 0.0112911 -0.114391
-0.0176128 0.0242241 -0.0357594
-0.0337651 0.450562 -0.256731
-0.0761474 0.15371 -0.0591185
-0.415382 0.208685 0.119196
0 0 0
0.168471 -0.0600521 -0.0907403
0 0 0
0.0347893 -0.0165665 -0.000106942
0 0 0
-0.136632 0.0681832 0.118247
-0.0163645 0.143389 0.0773793
-0.299135 0.315147 -0.220681
0 0 0
-0.0751584 -0.0195838 0.0994212
-0.00629396 -0.0108305 -0.000266162
0 0 0
0 0 0
0 0 0
-0.0398639 0.0501092 0.03153
-0.00452425 -0.0575145 -0.0992584
0 0 0
0 0 0
-0.0371621 -0.0544638 0.0526415
0 0 0
0.0528043 0.122709 0.217565
0.00182831 -0.175363 0.0602132
-0.138197 0.156294 -0.114046
-0.00196179 -0.218742 -0.0833017
0.0125758 -0.158784 0.0484979
-0.227857 -0.249783 0.361333
-0.0431238 -0.0360305 -0.00668324
-0.226331 -0.0738101 -0.00171228
0.0191169 0.0315953 -0.0125105
-0.0848685 0.542049 -0.078397
0 0 0
-0.094652 -0.0261945 -0.180716
0 0 0
0.160646 -0.0513062 0.493964
0 0 0
0 0 0
0.0370238 0.442988 0.350489
-0.132094 0.456096 -0.00568429
-0.00527621 -0.337682 -0.0562024
0 0 0
0.0473101 -0.0385144 0.0368999
0.473098 -0.0455295 0.303059
0.0156183 0.0268026 0.00321412
-0.0232264 -0.060476 0.00310083
0.0293091 0.140643 0.0329254
-0.0334874 0.255713 0.398089
0 0 0
-0.0536747 0.286142 0.0369027
-0.00639373 -0.0653754 -0.0137133
0 0 0
-0.375706 -0.0087036 0.366379
-0.0191067 0.122129 0.220157
0 0 0
0.0820529 -0.00150405 0.039255
-0.0617984 -0.289896 -0.176561
-0.120405 -0.0695805 -0.146248
0 0 0
0.000420026 0.0630018 0.0314675
0.0680022 -0.186926 -0.017289
0 0 0
0 0 0
0.126124 0.325208 0.239546
0.0723304 0.0733809 -0.0298834
0.16864 0.151024 -0.0764305
0 0 0
0 0 0
0.185466 0.018251 -0.0694248
0.0639802 -0.0840507 -0.127962
0.23233 0.0563376 0.0615278
0.253327 -0.0333993 -0.0419161
0.0502251 -0.145027 -0.0312992
0 0 0
-0.0191767 -0.0567527 -0.114008
0.0687526 0.143322 0.258525
0.0629261 0.0971866 -0.17709
0.0202966 -0.0528754 -0.103363
0.160508 0.408981 0.0706213
0.0544655 0.0590677 0.0560072
0.059894 0.122851 0.504543
0.0137667 -0.00617901 -0.00222743
0.1797 0.0436769 -0.0941308
0.0197939 -0.0487122 0.00166432
0 0 0
0 0 0
0.208994 -0.224493 0.00449506
0.0415738 0.00899846 0.0151049
0.302277 0.308013 -0.319577
0.0676694 0.168866 -0.000873461
0 0 0
0.202637 0.0861906 -0.52314
-0.0387674 0.011659 0.0276537
-0.105675 0.0119782 -0.0295732
0 0 0
0 0 0
0 0 0
0 0 0
0 0 0
0.295564 -0.179948 -0.201308
0 0 0
0 0 0
0.371956 -0.160075 -0.0737679
0.0424167 -0.134589 0.065963
0 0 0
0.171819 0.26512 -0.0693647
0 0 0
0.0559142 0.147388 -0.11878
0 0 0
-0.265295 -0.459125 0.0403836
-0.0322149 0.253408 0.230215
-0.0163302 0.222454 -0.144864
0.147568 0.128271 -0.227097
0.25906 0.0427857 -0.178703
0 0 0
-0.073885 -0.0454815 0.397164
0 0 0
0.0761939 -0.275324 -0.118781
-0.0222728 -0.00601231 0.0307525
-0.0643643 0.190832 0.186123
-0.0565025 0.137169 -0.0662825
-0.0230538 0.00249111 0.0133092
0.0949416 0.288908 -0.233901
0.139595 -0.0177689 -0.0868442
-0.00506717 0.00817458 -0.00963316
-0.0475575 0.0557559 -0.0139211
-0.0174926 -0.101684 0.0867641
0 0 0
0.0974488 0.103392 -0.0160188
0.0453686 0.111033 -0.160151
0.0873836 0.179839 0.0786109
0 0 0
-0.0533965 -0.0959742 0.144266
0 0 0
-0.0736615 -0.18076 0.147863
0.115114 -0.0162691 0.169955
0.147763 -0.13906 0.0645297
0.109582 0.337394 -0.113894
0.0674338 -0.00507575 0.0341765
0 0 0
0 0 0
0 0 0
0 0 0
0 0 0
0 0 0
0.12494 0.206235 -1.91814e-05
-0.109636 0.148594 -0.0270607
-0.000644689 0.00822307 0.181108
-0.083157 0.175296 -0.122367
-0.0599608 0.15536 -0.327385
0.516276 -0.150431 0.157521
0.325517 0.122983 -0.191215
-0.115166 0.475778 -0.0781695
-0.112415 -0.0781406 -0.0791397
0.00108291 -0.23121 0.0312217
-0.302114 -0.260668 -0.277655
-0.0611487 0.119775 0.00994583
0 0 0
0 0 0
-0.026143 -0.0498732 -0.00270234
-0.115198 -0.0979967 0.107521
0 0 0
-0.00151768 0.00234416 -0.00885707
0 0 0
-0.152912 -0.390465 0.060597
0.0362727 0.0278872 -0.0304194
0 0 0
0.0378693 0.454477 -0.284099
-0.271029 0.159931 -0.399238
-0.0199795 -0.010147 0.0050796
-0.0380011 -0.0233587 -0.0496631
-0.0707963 -0.111009 -0.0777154
0.0376768 -0.0273397 -0.0546024
0 0 0
0.0562381 -0.164437 -0.000710174
0 0 0
0 0 0
-0.243409 0.315841 0.0105076
-0.174054 0.0379469 0.0244815
0 0 0
0 0 0
0.0162411 0.178962 -0.531884
0 0 0
0.0373629 -0.0396246 0.0875775
-0.104423 0.205836 0.142142
0 0 0
0 0 0
-0.323689 0.139845 0.197245
-0.00864343 0.000510937 0.0147389
-0.000723248 0.0639712 -0.0151585
0.0411505 -0.106653 -0.0573928
0 0 0
-0.0772863 -0.236699 -0.012781
-0.209842 0.267186 0.0286272
0 0 0
-0.0931578 0.0817804 0.248461
-0.0892236 -0.0235161 -0.0788274
-0.0105642 0.00573823 -0.0170852
-0.0413585 0.334281 -0.150939
-0.0649895 -0.0476722 -0.130446
0.111405 0.266311 -0.262463
-0.119855 -0.0377652 -0.0551656
0.093088 -0.193984 -0.202395
0 0 0
0.025251 0.302065 0.14378
-0.0938037 0.065435 0.131996
-0.00312497 0.0852841 -0.139001
-0.194597 -0.162525 0.215443
0.279529 0.0916255 -0.000495555
0.0638966 -0.0536305 -0.0191429
0 0 0
0.0256968 -0.171635 0.125361
-0.199922 -0.251487 -0.525083
0 0 0
-0.128015 0.011383 0.0631482
0.108032 0.358806 0.253343
0.239175 0.0517055 -0.0497542
0.299383 -0.0236348 -0.188489
-0.000113457 -0.0311761 -0.0382583
0 0 0
0 0 0
0.216449 0.0928944 0.0319744
0.103576 0.114616 0.213385
0.0504733 -0.176087 0.243403
0 0 0
0.218065 0.306678 0.0637626
0 0 0
0 0 0
-0.0259672 0.184404 -0.150099
0 0 0
0.113033 0.209921 -0.249144
0 0 0
0.249318 -0.0965774 0.00353756
0 0 0
0.0524692 -0.00427321 -0.0730931
0.114412 0.0544732 -0.0507526
-0.129476 -0.0139148 -0.324538
-0.000102102 0.0544223 -0.198903
0.0443354 -0.0300854 -0.115962
0.0778278 -0.057825 -0.118172
-0.129283 0.0962581 0.00456869
-0.0925811 0.128098 -0.0301287
-0.0167412 0.024402 0.0169662
0.164338 0.227979 -0.180135
-0.000863378 0.0889227 -0.145241
-0.0495185 0.071624 0.240801
0.0626779 -0.0130144 -0.000318312
0.0168895 0.0232444 -0.000816512
-0.153713 0.32959 -0.259567
0 0 0
-0.138308 -0.031733 4.64821e-05
-0.0711374 -0.313749 -0.378127
0 0 0
-0.141204 0.187272 0.200836
-0.151818 0.0608847 0.0420414
-0.0177196 -0.062623 -0.0192935
-0.0958976 0.145521 -0.0222425
-0.12682 0.0632558 -0.0833928
-0.174483 0.116819 0.122532
-0.133539 0.141533 0.0548455
-0.0593691 -0.0424668 -0.0492879
0.383848 -0.0484606 0.0560145
0.115747 -0.300357 -0.0390324
0.363334 -0.0884701 -0.109093
0 0 0
-0.14345 0.236796 -0.0318861
-0.0144858 0.0789135 -0.0137741
-0.0579671 0.0374075 0.0279882
0.0314279 0.044762 -0.068862
-0.0347317 -0.292678 -0.408793
0 0 0
0 0 0
-0.0470945 0.0971045 -0.15993
0.016156 -0.0204257 -0.00934416
0.00304607 -0.109449 -0.168202
-0.00961343 -0.0318613 0.066967
0 0 0
0.11355 0.000400547 0.0410495
0 0 0
-0.0349352 -0.0291286 0.108583
0.0297615 -0.144522 0.0935854
0.0923014 -0.013222 0.174885
0.0625393 0.386014 0.112217
0.143098 0.0247452 -0.0335775
0 0 0
0.163664 -0.241261 -0.529364
0.0401378 0.0436723 0.182328
0.0144969 -0.0357479 0.189455
0 0 0
0 0 0
-0.0383865 0.11052 -0.0359167
-0.0369184 0.0967509 0.28854
-0.124073 0.0237818 -0.028501
-0.263831 0.0615724 0.0860715
0 0 0
0.0390046 -0.0701962 -0.135766
-0.11396 0.0627058 -0.150165
-0.00111176 -0.249177 0.0251615
-0.370076 0.00688593 0.262517
0 0 0
-0.125041 -0.323834 0.110017
0.187005 0.0865996 -0.0822202
0.0779148 0.0306774 0.0804501
0 0 0
0.0240022 -0.513553 0.024753
-0.0165871 0.0975596 0.233583
-0.367718 -0.194872 0.14606
0 0 0
-0.181975 0.0935783 0.164792
0 0 0
-0.0664107 0.0265606 2.46585e-06
0.0492993 0.100486 0.00111894
0 0 0
-0.0492593 -0.123781 0.0555264
0.040569 -0.124023 0.00180243
0.00665369 0.00537307 0.0118475
0.523309 -0.00784903 0.0742921
0.449839 -0.142129 0.0240649
0.485198 0.503817 -0.151863
0 0 0
0.0225056 0.137812 0.0340009
0.0502953 -0.015892 -0.0312858
0.17999 0.134376 0.0809313
0.00633618 -0.00132433 -0.0112113
-0.203613 -0.0164104 0.00235834
-0.0208961 0.0341192 -0.00658971
0.0181521 0.506333 0.183094
-0.00327957 -0.0620618 -0.0821341
0 0 0
0 0 0
0.0826123 -0.226677 -0.243557
0 0 0
0 0 0
0 0 0
0 0 0
0.188245 -0.214212 0.30981
0.000961644 0.0659196 -0.276195
-0.0106999 0.00434602 -0.0128696
-0.209456 0.0621495 -0.175928
0 0 0
0 0 0
0.134884 0.153002 0.0143007
0.209399 -0.0514426 -0.25744
-0.00454408 -0.0155429 -0.0200964
-0.000414134 0.14112 0.022327
0.161167 0.275166 0.144717
0.0633222 -0.0107561 -0.0191761
-0.0312663 0.00810084 0.128062
0 0 0
-0.119798 0.221875 -0.116343
0 0 0
0.142675 0.238612 -0.232463
0.0970704 0.0404926 -0.0580632
0 0 0
-0.167906 0.609845 -0.0215673
0.0075859 0.000641656 0.000416276
0.00362265 0.124768 -0.166768
-0.382574 -0.0024507 -0.183745
0 0 0
0.0544491 0.223909 0.280283
-0.00305033 0.654056 0.108258
0.0458644 -0.0317615 -0.0203692
0.219475 -0.0451255 0.212064
0 0 0
-0.0121308 -0.0899351 0.00190236
0.0544274 0.063017 0.0690009
-0.208899 -0.152152 0.0420801
0 0 0
-0.162057 -0.0161133 -0.137429
0.000141469 0.00329755 0.0209323
0.132662 -0.139784 -0.149893
0.00220167 -0.244641 0.0530614
0.200332 -0.0135157 0.211642
0.0754307 0.120294 0.0671277
0.0923582 0.0183531 0.0456419
-0.0445093 -0.0347852 -0.000494783
-0.158973 0.108115 0.0208434
-0.0772843 0.177533 -0.0574396
0 0 0
-0.485397 0.274884 -0.265029
-0.109824 -0.141604 -0.171019
-0.0534207 -0.0042831 -0.00119825
-0.0625976 -0.0757336 -0.0989954
-0.625531 -0.267079 -0.180376
-0.079985 0.234578 0.179391
-0.226738 0.136078 -0.27605
0 0 0
0 0 0
-0.0692918 0.104326 0.105108
-0.14965 -0.00680611 -0.245754
0.000790857 0.0373813 0.00621226
0.115021 0.200994 0.117469
0.0419598 -0.0494081 0.000843197
0.274082 -0.253569 0.00347546
-0.176399 -0.0424128 0.128397
-0.207231 0.0996069 0.0876012
0 0 0
-0.225097 0.458203 0.0891328
0.00582315 0.0468595 0.0189442
0.0096615 -0.114824 0.393998
-0.0450489 0.0749217 0.0326497
0 0 0
-0.0291118 0.024956 -0.202092
0.0322449 -0.0635852 -0.0581672
0 0 0
-0.0176212 0.0706222 0.200692
-0.147681 0.383792 -0.0678567
-0.0784213 0.266931 0.0258512
0.132326 0.114339 -0.234182
0 0 0
-0.100722 0.0794495 -0.531423
-0.0876928 0.00161521 0.0269635
0.142705 0.0332694 -0.0011359
0.13327 0.051943 -0.14388
0.00759 -0.214502 -0.107191
0.124563 0.158712 0.1749
0 0 0
0 0 0
-0.00253842 -0.0648599 0.0152751
-0.172191 0.144479 -0.315084
-0.0512254 0.109325 -0.107786
-0.0484665 0.0939235 0.162643
-0.448328 0.140427 -0.063646
-0.106376 -0.0612056 -0.104989
0.333846 -0.359727 -0.339013
0.0483438 0.0161127 -0.00285425
0 0 0
0.205949 0.0496704 0.0171249
0.149671 0.122279 -0.0757753
-0.119169 0.497336 0.113438
0 0 0
0.104517 0.0033509 0.331793
0.0602496 0.126477 -0.108673
0.0309473 -0.0488462 -0.392071
0.0448279 0.14427 -0.13254
0.211948 0.0234519 0.118474
0.195687 -0.0787452 -0.143522
0.0957045 0.081952 0.117411
0.15674 0.0544663 0.0174017
0 0 0
-0.149882 0.139882 -0.0751379
0 0 0
-0.318979 0.0452178 0.267362
-0.0775965 0.00228281 -0.0793191
0 0 0
0.0805402 -0.123522 0.218864
-0.0486356 -0.0837953 0.0699691
-0.0322159 0.102189 -0.183017
0.0436744 0.0888969 -0.0483314
0.259614 0.0984703 0.12323
0 0 0
0.345198 0.0583935 -0.236477
0.146871 -0.125975 0.0666178
-0.00695268 0.147356 -0.00688342
-0.251312 -0.176915 -0.210916
0 0 0
0.315758 -0.391875 -0.273414
0 0 0
0.325571 -0.161944 -0.0895386
0.0162956 -0.0228577 0.0628983
0.152124 0.162291 0.251725
0 0 0
0.0829179 -0.0161997 0.0122527
0 0 0
0.1016 -0.110941 -0.311533
-0.00899434 0.0461656 0.0946198
0.0490807 -0.0238198 -0.21687
-0.0109612 0.0377839 -0.0198613
-0.00239832 0.21944 -0.0598197
0 0 0
-0.0325931 -0.441565 -0.386199
0.244262 0.348808 -0.0498999
0.145676 -0.219023 -0.0264662
-0.0510169 0.131397 0.371901
0 0 0
0.0477815 -0.375893 0.1856
0 0 0
0.059557 0.0516529 -0.324064
0 0 0
0.00572843 -0.142409 -0.314297
-0.0173844 0.0871796 0.0353127
-0.00677152 0.302128 0.00662298
0.118085 -0.0582262 0.0260717
0.0476084 -0.0658338 0.283125
0.0369998 -0.0914859 0.365731
0 0 0
0.158009 -0.0470544 -0.0858768
0.00315889 0.0176197 -0.0374578
0.00422203 -0.085677 0.02849
0.256355 0.211583 -0.0459691
0.0809095 -0.0135573 -0.00162039
-0.0177269 -0.154099 0.263394
0.0953681 0.145246 0.412297
-0.011368 0.144499 0.153512
-0.00467692 0.00327804 0.038605
-0.20666 0.475167 0.28318
0 0 0
-0.357674 -0.596706 -0.0532179
0 0 0
0.104132 0.218982 -0.126768
6.97015e-06 -0.0013489 -0.00655331
0 0 0
0.0572557 -0.1281 -0.220154
0.50906 -0.166533 -0.137873
0.0794348 -0.0675934 0.0158966
0.113338 -0.319487 -0.0893022
-0.0349841 0.0377695 0.12371
-0.211642 0.129154 0.200732
0 0 0
0.0726044 0.010607 0.245828
0.0477991 0.0386348 -0.0684436
0.172613 -0.0790897 -0.080777
0.0148785 -0.21476 0.0942664
0 0 0
0 0 0
0.0384129 -0.0171222 0.0655252
0 0 0
-0.188419 0.00277773 -0.323447
-0.219123 0.124711 -0.103323
-0.127262 0.172713 0.0943544
0 0 0
-0.0562318 -0.176379 0.122489
0.00300992 -0.0197648 0.0792717
-0.0014035 0.12137 0.260104
0.00363637 -0.0174726 0.0851828
0.0855943 -0.179054 -0.193792
0.0463191 0.041653 0.103786
0.17107 0.143886 0.0975516
0 0 0
-0.286043 -1.28619 -0.0130008
0 0 0
-0.190334 -0.0324788 0.0251254
-0.196385 -0.0198057 -0.131425
-0.185432 -0.00286039 -0.279514
-0.00498328 -0.00648085 0.00285067
-0.286951 0.13367 -0.217108
-0.239174 0.05464 -0.352138
-0.276008 -0.195082 0.136462
0 0 0
-0.0636874 0.0856755 -0.00027232
0.00207195 0.0105489 0.130146
0.0144216 -0.0192088 0.0605315
0 0 0
-0.0853816 -0.012423 0.0411573
-0.0974184 0.0503182 -0.0393637
-0.0971092 0.0441896 0.00185417
0.01572 -0.355887 -0.385202
0.0312581 -0.0413437 0.0207354
-0.367595 0.0499287 0.180886
-0.0412131 0.0577215 0.0299658
0 0 0
-0.0766017 -0.0415251 -0.0117428
0 0 0
0.0310161 -0.30276 -0.0357201
0.0466933 0.198376 0.0812939
0 0 0
0.113545 0.574375 -0.2839
0 0 0
0.178805 0.0886096 0.116275
0 0 0
0 0 0
0.410163 -0.22496 -0.188482
0.0786241 -0.135145 -0.105555
0.121912 0.391784 0.0908912
0.0334956 0.00138142 -0.000456748
0.111845 -0.104967 -0.261512
-0.48282 -0.185208 -0.0980931
0 0 0
0.0361017 -0.068088 -0.165223
0 0 0
0.0989699 -0.0565683 -0.0405027
0.0135452 -0.101009 0.149327
0.116058 0.125366 0.0245618
0.473331 -0.021984 -0.358498
-0.118791 0.0306308 -0.00265855
-0.127222 0.269951 -0.301592
0 0 0
-0.192693 0.115579 -0.194042
-0.0783793 -0.015037 -0.0174757
-0.226927 -0.0089576 0.0733807
0.111562 -0.00293054 -0.0794941
0.0769111 -0.191368 -0.0898832
0.207937 0.0360852 -0.0667764
0.00355873 -0.162834 -0.00543552
-0.0669722 0.265623 -0.0542213
-0.0325143 0.534454 -0.220365
-0.0739568 -0.101509 0.114413
-0.00509841 0.0789003 -0.208024
0 0 0
0.211744 0.758975 -0.0167774
-0.0506426 0.0639072 0.374174
0.163312 0.410794 0.130218
0.000403199 0.0503053 -0.0102315
0.0725385 -0.110698 -0.0910702
0.00240829 -0.0837574 0.081795
0 0 0
0 0 0
-0.407232 0.154299 -0.145876
0 0 0
0 0 0
-0.0477012 -0.0540768 -0.159659
0.0623046 0.0393392 0.0374051
0.215782 -0.210206 -0.266618
0 0 0
0 0 0
-0.0318512 0.00339676 0.0930611
-0.0797001 0.222345 0.436702
0 0 0
0 0 0
0 0 0
0.0800479 0.0976469 0.0463285
0 0 0
0.156773 -0.275886 0.0730211
0 0 0
0.0765783 0.0762459 -0.0182616
0 0 0
0.0151498 0.457501 0.130677
-0.00339951 0.150771 -0.020693
0.224625 -0.162379 -0.226452
-0.00509625 -0.0006072 -0.00162065
-0.0503327 0.0730258 -0.306489
-0.0959781 -0.0383903 -0.11813
-0.105777 0.246376 0.0779302
-0.271421 0.433761 0.154001
-0.140255 0.19645 0.131127
-0.323902 0.0350457 -0.252884
-0.0827346 0.0559358 0.206671
-0.272422 -0.196608 -0.118014
-0.214684 -0.309843 0.012125
-0.03911 -0.00118714 -0.162988
0 0 0
-0.238163 -0.321804 -0.136419
0 0 0
-0.387979 -0.173106 0.0156538
-0.323004 -0.147663 -0.0517896
0.00113484 -0.138213 0.0626633
0.0281765 0.0328404 -0.368797
0 0 0
0 0 0
0.0793976 -0.096697 0.0280842
0 0 0
0.0305864 0.286262 -0.205838
0.0603952 -0.233861 0.115248
0 0 0
0 0 0
-0.332861 -0.0483533 -0.0380721
0.0621756 0.222166 -0.263416
-0.00202404 0.00464635 -0.0259287
0 0 0
0.0498015 0.170288 0.11323
0 0 0
-0.0577595 -0.0705004 -0.0764599
-0.347914 0.0234956 -0.285565
-0.164697 -0.102701 0.174031
-6.90616e-05 -0.096638 0.0802222
-0.171662 0.174451 0.402075
-0.202647 0.0421739 0.193098
0.124433 -0.160006 -0.075571
0.203971 -0.327254 0.259135
0 0 0
0.114676 0.429402 -0.0785794
0.0646662 -0.209393 -0.31038
0 0 0
0 0 0
0.130703 0.131469 -0.000582703
0.110887 0.185488 0.204615
0.0848102 -0.0801222 -0.0873041
0.113377 0.045439 0.152533
-0.148317 0.0692625 0.0658726
-0.411968 0.253864 0.227935
-0.366325 0.0366813 0.149352
-0.159588 0.0455093 -0.102796
0.0595428 -0.00710962 -0.028864
0.277637 -0.236132 0.205335
0.181262 -0.0714212 0.0462312
-0.01242 -0.126651 -0.000300906
-0.282117 -0.0587602 -0.181021
-0.145804 -0.166829 0.00408784
-0.0079762 -0.00675792 5.03352e-05
0 0 0
-0.010985 -0.0984061 0.411671
0 0 0
0 0 0
-0.0661844 0.280968 -0.0411618
0.501498 -0.0291869 0.155044
0.0573038 0.011853 -0.0196657
0.407783 -0.117168 0.38842
0 0 0
0.379926 -0.835375 -0.214935
0.180042 -0.0334103 -0.0744836
0 0 0
-0.335234 -0.0786459 -0.135823
-0.0173142 0.0574277 0.2322
-0.0499875 0.282891 0.0611246
-0.106127 0.0735059 -0.0373983
0 0 0
0.155528 0.251971 0.212886
0 0 0
0.162532 0.396935 -0.245394
-0.0627372 0.0232366 -0.0991955
-0.182863 0.263531 0.0478171
0.0394987 -0.00626333 0.0541096
-0.0478388 -0.0590041 -0.185554
-0.0117091 0.0147303 -0.163829
0 0 0
0 0 0
0.220052 0.138102 -0.178212
0 0 0
0 0 0
-0.149047 -0.163531 0.143449
0.0646743 -0.167903 0.0568774
0 0 0
-0.028222 -0.117781 -0.103115
-0.0408901 0.146091 0.374316
-0.172121 0.0580486 0.043612
0 0 0
-0.204246 -0.0327416 0.112034
-0.375344 0.0159398 -0.111093
0.117426 0.0210382 0.143505
0.61043 -0.40704 -0.124072
0.536489 -0.0514117 -0.176896
0.126262 -0.225078 -0.0754466
0.0777423 0.142274 0.267669
0 0 0
-0.0200303 -0.098708 -0.0155361
-0.112836 0.0571073 -0.150979
0.0966967 0.0825523 -0.0652953
0.0401935 -0.0611695 -0.0530834
0.0852625 0.0433134 -0.0960913
-0.048677 -0.137867 0.384333
0 0 0
0 0 0
-0.245922 -0.131941 -0.02309
-0.49921 0.0908451 0.1918
-0.0429845 -0.201151 -0.0105528
0.0725994 0.182475 -0.245049
0.156962 0.0449801 0.124929
-0.145251 0.276488 -0.0311154
0.525023 -0.0367828 0.246821
-0.234624 -0.0390987 -0.159578
0.0945403 0.0040469 0.0040926
0.0182799 0.108345 0.168088
0.191389 -0.29076 -0.220999
0 0 0
0 0 0
0 0 0
0 0 0
0 0 0
0 0 0
0 0 0
0 0 0
0 0 0
0 0 0
0 0 0
0 0 0
0 0 0
0 0 0
0 0 0
0 0 0
0 0 0
0 0 0
0 0 0
0 0 0
0 0 0
0 0 0
0 0 0
0 0 0
0 0 0
0 0 0
0 0 0
0 0 0
0 0 0
0 0 0
0 0 0
0 0 0
0 0 0
0 0 0
0 0 0
0 0 0
0 0 0
0 0 0
0 0 0
0 0 0
0 0 0
0 0 0
0 0 0
0 0 0
0 0 0
0 0 0
0 0 0
0 0 0
0 0 0
0 0 0
0 0 0
0 0 0
0 0 0
0 0 0
0 0 0
0 0 0
0 0 0
0 0 0
0 0 0
0 0 0
0 0 0
0 0 0
0 0 0
0 0 0
0 0 0
-0.0642445 0.0775998 0.135313
0.0288604 0.0932272 0.115068
0.00711284 0.0296722 -0.0815958
0.0359877 -0.00481027 -0.0590698
0.124943 -0.000676102 -0.0311778
0 0 0
0.0874362 0.00372765 -0.101797
0.00241635 0.0845547 -0.0663962
-0.0385105 -0.0335268 0.0952738
0.138139 0.0708746 -0.0927783
-0.00610755 0.122139 -0.00955775
0.0729337 -0.0288428 -0.0168347
0.109556 -0.0408369 -0.0478303
0.000800449 -0.00172337 -0.0189247
0.00315196 0.120914 -0.118553
-0.00524126 -0.249569 0.0591059
0.0775398 0.283298 0.0361882
-0.00339504 -0.0627357 0.0152397
0.00176465 -0.0357281 0.025415
0.121004 0.0660817 0.000490469
0.0451204 -0.0588926 -0.0775918
-0.00111643 0.00352902 0.0519545
-0.0200922 0.0476676 -0.246297
-0.00168256 0.156466 -0.174452
0.0734424 -0.146429 0.213901
-0.00920509 -0.0177318 0.0553799
0 0 0
0.136041 -0.0191014 -0.0572396
-0.271537 -0.0116167 0.0914023
0 0 0
-0.166108 -0.00350617 0.0826951
-0.0240312 -0.182395 -0.169789
-0.0385044 0.0255928 0.0186109
0.0173004 -0.101423 -0.0206545
0 0 0
-0.0669554 -0.0532485 -0.0114651
0.0811732 -0.0369549 -0.112503
-0.00042978 0.0158468 0.00731938
-0.239423 0.00713422 -0.0873682
0.000166589 -0.34445 0.179529
0.0870057 0.219041 -0.154445
-0.158064 -0.010111 0.135057
0 0 0
-0.0174542 0.0708287 0.0390074
-0.026274 -0.00147861 0.00537094
0 0 0
0.00386057 -0.0563225 -0.0470042
-0.0619451 0.00224284 -0.0498055
-0.100414 0.014427 -0.122902
-0.0871111 -0.150764 -0.0322668
0 0 0
-0.165766 -0.00339575 0.00384752
-0.007206 0.0605259 -0.0121479
0 0 0
0.0851908 0.00504421 0.0733014
0.0507892 -0.127896 0.240285
0.0190051 0.0936137 -0.161392
-0.0240826 0.00020967 -0.0692433
0.000619218 0.026409 0.114821
-0.0725372 0.0297979 -0.00861904
0.268142 -0.00627836 -0.0919406
0 0 0
-0.00457047 0.0640164 -0.00223831
0.105282 -0.0213409 -0.00851676
0.0344114 0.155669 0.236123
0.0481448 0.190655 0.287127
-0.0388836 0.118112 -0.2861
-0.00736417 -0.250998 -0.205514
0 0 0
0.122912 0.0505733 -0.166335
0.210291 -0.0708716 0.237634
-0.0610869 0.190361 -0.10526
0 0 0
-0.10175 0.0329848 0.256107
-0.178119 0.0540301 -0.11209
0 0 0
-0.00477543 -0.0269641 -0.0222954
0 0 0
0.0992713 0.200316 -0.361964
0.247926 -0.0975693 0.154666
0 0 0
-0.102555 0.00424999 -0.129769
-0.0831688 -0.0895277 0.108574
-0.136809 0.107076 0.0752767
-0.0857952 -0.0460409 -0.00264267
0 0 0
0.0813948 0.191303 -0.204939
0.230932 -0.00545314 0.175799
0.0281803 -0.0168128 -0.0282327
-0.0951451 -0.358094 -0.0528493
0.124835 0.000843189 0.115069
0 0 0
0.210452 -0.108773 0.144456
-0.0780004 -0.101099 0.174598
0 0 0
-0.0272747 -0.100201 -0.209247
0.0723203 -0.0373001 -0.0315578
0 0 0
0 0 0
0.247321 -0.185161 0.23945
0 0 0
0.114635 -0.163323 -0.126145
0 0 0
0 0 0
0 0 0
0.0673394 -0.45738 0.399045
0 0 0
0.0322376 -0.0252493 -0.0629323
0.139551 -0.125746 -0.15703
0 0 0
-0.16831 0.0279924 -0.176607
0.0905625 0.142541 0.375395
0.144494 -0.0844446 -0.00106161
-0.164409 -0.0454078 0.110958
-0.158356 -0.134566 -0.112923
0.0968324 -0.150711 -0.117759
0.161846 0.0180187 0.274155
-0.0279629 0.276067 0.00129585
-0.0576805 0.10721 -0.000386297
-0.1399 -0.062524 -0.138372
0.00023684 -0.00510276 0.0125405
-0.00296952 0.17557 -0.0336915
0.148296 0.053631 -0.171508
0 0 0
0 0 0
0 0 0
0.0675118 -0.116617 -0.297171
0.179057 -0.0692696 -0.0721433
0 0 0
0.285126 0.183416 0.334252
0.194805 0.0626501 0.190465
0.166519 -0.0237268 0.136032
0.157645 -0.12049 0.134588
0 0 0
0 0 0
-0.0236115 -0.0328884 0.0250035
-0.0270017 -0.222926 0.0795672
-0.0582142 -0.121719 -0.260923
-0.0427098 -0.505202 0.0274823
-0.162927 -0.185369 -0.0945582
-0.0127262 -0.0778439 -0.140594
0.424356 -0.102424 0.0542314
0.126675 0.10689 0.0694908
0.161645 -0.181212 -0.263069
-0.256534 -0.125449 -0.0850579
0 0 0
0 0 0
-0.0188729 0.483181 0.00316569
0 0 0
-0.0786484 -0.0434365 0.0994058
0.114072 0.0210768 0.119384
0.0607571 0.177707 -0.00083692
0.0172318 -0.02136 0.045563
0.204863 -0.0646801 -0.136617
0.0565401 0.0160662 0.0417603
0.0988105 0.0255919 -0.036397
0 0 0
0.31582 -0.130245 -0.173133
-0.205183 0.0976505 0.0202055
0.00564383 -0.305918 0.0200345
-0.162414 0.298169 -0.0957999
0.0714956 -0.207525 -0.188207
-0.00498093 0.0115188 -0.00303189
-0.000275258 0.051035 0.00174491
-0.119323 -0.115975 0.348044
0 0 0
0.136788 0.0246241 0.208275
0.120172 0.0793388 -0.0258706
0.23445 -0.565228 0.0471739
0.0938904 -0.00199451 0.0282048
0.0898358 0.200618 -0.277161
0 0 0
0.289889 0.0676842 -0.146929
-0.044851 -0.0289023 -0.0624596
-0.288519 0.0386037 0.0872329
0 0 0
0 0 0
0.0506943 0.116943 -0.0411986
-0.00993491 0.584746 0.067469
0 0 0
0 0 0
0.0304737 -0.296028 -0.411601
0 0 0
0.239681 0.0407459 -0.311982
-0.00210409 -0.00601269 -0.0400009
0.0138555 0.0296431 -0.000356273
0.0235419 0.000113423 -0.00279742
0 0 0
0 0 0
0.000343636 -0.00464207 -0.105313
-0.0494045 -0.0219775 -0.224195
-0.14705 0.114119 0.0664702
0 0 0
0.0556127 -0.29772 0.368396
0.052523 -0.0115173 -0.0387053
0.209397 -0.260634 0.257094
0.096789 -0.0614139 0.0446756
0.279297 0.355139 0.134952
0 0 0
-0.0482232 0.138738 0.0185172
0 0 0