<?xml version="1.0"?>
<VTKFile type="RectilinearGrid">
<RectilinearGrid WholeExtent="0 32 0 32 0 32" Origin="0 0 0" Spacing="1 1 1">
<Piece Extent="0 32 0 32 0 32">
<PointData>
</PointData>
<Coordinates>
<DataArray type="Float32" format="ascii">
0 0.524874 1.04975 1.57462 2.0995 2.62437 3.14924 3.67412 4.19899 4.72386 5.24874 5.77361 6.29849 6.82336 7.34823 7.87311 8.39798 8.92285 9.44773 9.9726 10.4975 11.0224 11.5472 12.0721 12.597 13.1218 13.6467 14.1716 14.6965 15.2213 15.7462 16.2711 16.796 
</DataArray>
<DataArray type="Float32" format="ascii">
-5.03879 -3.62163 -2.20447 -0.787311 0.629849 2.04701 3.46417 4.88133 6.29849 7.71565 9.1328 10.55 11.9671 13.3843 14.8014 16.2186 17.6358 19.0529 20.4701 21.8872 23.3044 24.7216 26.1387 27.5559 28.973 30.3902 31.8074 33.2245 34.6417 36.0588 37.476 38.8931 40.3103 
</DataArray>
<DataArray type="Float32" format="ascii">
0 0.524874 1.04975 1.57462 2.0995 2.62437 3.14924 3.67412 4.19899 4.72386 5.24874 5.77361 6.29849 6.82336 7.34823 7.87311 8.39798 8.92285 9.44773 9.9726 10.4975 11.0224 11.5472 12.0721 12.597 13.1218 13.6467 14.1716 14.6965 15.2213 15.7462 16.2711 16.796 
</DataArray>
</Coordinates>
<CellData>
<DataArray type="Float32" Name="Vector" NumberOfComponents="3" format="ascii">
0 0 0
0 0 0
0 0 0
0 0 0
0 0 0
0 0 0
0 0 0
0 0 0
0 0 0
0 0 0
0 0 0
0 0 0
0 0 0
0 0 0
0 0 0
0 0 0
0 0 0
0 0 0
0 0 0
0 0 0
0 0 0
0 0 0
0 0 0
0 0 0
0 0 0
0 0 0
0 0 0
0 0 0
0 0 0
0 0 0
0 0 0
0 0 0
0 0 0
0 0 0
0 0 0
0 0 0
0 0 0
0 0 0
0 0 0
0 0 0
0 0 0
0 0 0
0 0 0
0 0 0
0 0 0
0 0 0
0 0 0
0 0 0
0 0 0
0 0 0
0 0 0
0 0 0
0 0 0
0 0 0
0 0 0
0 0 0
0 0 0
0 0 0
0 0 0
0 0 0
0 0 0
0 0 0
0 0 0
0 0 0
0.0337605 0.0776672 -0.092379
0.0526411 0.0123199 -0.0480941
0 0 0
-0.0783683 0.0819134 0.0617521
-0.0215612 0.0602383 -0.0392983
0.00436331 -0.0135128 -0.0407273
0.150812 0.065418 0.00622706
-0.0215818 -0.0284741 0.003783
0.0305748 -0.247059 -0.0488391
-0.145363 -0.157606 0.00981691
0 0 0
-0.106043 0.0841002 0.00125473
-0.180896 0.226886 -0.00710975
0 0 0
0.0608182 -0.152371 -0.0759874
-0.129701 0.107516 -0.0121938
-0.0191606 -0.0464499 -0.00356991
-0.192544 0.0496598 0.00886839
0.000320062 0.0915472 0.00826853
-0.138819 -0.0694252 0.0679582
0.136898 -0.332801 -0.0887681
0 0 0
0.307102 0.129761 -0.0238265
0.122325 0.0342172 0.0522482
0.0897337 0.0984371 -0.101527
0.0527933 0.0809308 -0.0295622
0 0 0
0.0339981 -0.0527474 0.0826976
0.0220192 -0.117142 0.0349993
0 0 0
0.0873777 -0.0952708 -0.0617477
-0.0904099 0.1246 0.0435027
0.0570882 0.10416 -0.0838262
-0.0205163 -0.0977042 -0.0700045
0 0 0
-0.0832282 0.100471 -0.0760618
0.120151 0.0578053 0.0209379
0 0 0
0.0856879 -0.213522 -0.0136092
0.0453184 -0.00356895 0.0536566
0 0 0
-0.259005 0.249343 -0.0487267
0 0 0
-0.0122579 0.0212533 -0.0197085
-0.18125 0.0434936 0.0012349
0 0 0
-0.00341261 -0.0416617 0.0819819
-0.160875 -0.107685 -0.0866622
-0.1493 0.142893 0.0657878
-0.016343 -0.006656 -0.0149818
0 0 0
-0.0449211 -0.144575 -0.00311435
-0.0136291 -0.0191004 0.0662862
0 0 0
0.129878 0.144914 -0.027919
0 0 0
0 0 0
-0.0888909 0.0115143 -0.0310019
0 0 0
0.00895482 -0.0076654 -0.0279704
-0.28518 -0.160402 0.0216571
0 0 0
-0.109117 0.0286094 0.0311872
0.241109 -0.266624 0.107563
0.0295938 0.0731676 0.0170207
-0.0677172 -0.203743 0.120834
0 0 0
0 0 0
-0.00552871 0.0046194 -0.00623237
0.0337625 0.0593816 0.168036
0 0 0
-0.0190215 0.259766 0.259239
-0.0390226 -0.0632617 -0.0270485
0.146219 -0.262865 0.0599056
0.00828515 -0.00282066 0.00301644
0 0 0
0.237106 -0.123469 -0.0292739
0.0834209 -0.0245959 -0.079639
-0.104298 -0.0189539 -0.135454
-0.420718 0.0322622 -0.127265
0.00262359 -0.0902665 -0.0278858
-0.228213 -0.153499 0.165109
0 0 0
-0.334646 0.0149033 0.081059
0.107378 0.00881558 0.0171724
0.0187143 0.0163335 -0.0112451
0 0 0
-0.0614875 -0.0717881 -0.0167597
-0.0953043 0.0798384 -0.129137
0.0338964 0.248552 0.343223
0 0 0
0.0673137 0.0931524 0.00151393
0 0 0
0.148291 -0.177546 -0.245521
0.108418 0.296283 0.0753596
0.0299563 0.0100595 -0.0264608
0.154385 -0.372687 -0.22012
0.132534 0.164279 0.0428237
0 0 0
0.0249725 -0.0505607 0.0292025
0 0 0
0.0401665 -0.213583 0.0491396
0.0373991 0.085352 -0.13492
0.270909 0.246331 0.179029
0.299834 -0.0103265 0.139194
0.0607494 -0.0767127 0.00448529
0.195115 -0.194304 -0.0127396
0 0 0
0.0783089 -0.00419732 -0.0428608
0 0 0
-0.0132596 0.298115 -0.412388
0 0 0
0 0 0
-0.0336356 -0.315287 -0.2946
-0.013184 -0.101569 -0.0759625
-0.117604 0.262108 0.121782
0 0 0
-0.490937 0.0834561 -0.283744
-0.262218 0.149723 0.0249019
0.0195306 0.0594589 0.0114999
-0.0778638 0.0570757 -0.17635
0.263507 0.160587 -0.0172337
-0.00849328 0.0612273 0.000874377
0 0 0
0.181566 0.012078 -0.169996
0.00321361 -0.00711414 0.0487422
0.134662 0.0117906 0.00127445
0 0 0
0.155509 -0.256958 -0.0492398
0 0 0
0 0 0
-0.177807 -0.112998 -0.0551011
0.063548 -0.223364 -0.00402722
0 0 0
-0.181054 0.102476 -0.00616337
-0.0105371 0.254701 0.392899
-0.0406632 0.0934048 -0.00205324
0 0 0
0 0 0
0.08997 0.250819 0.00098959
0.1564 -0.00217533 -0.0145496
0.00492731 0.0407306 0.168609
0.21352 -0.100669 0.13821
0.131707 0.0652414 -0.00105027
0.0864766 -0.0778127 0.224894
-0.0492172 -0.161379 -0.403364
0 0 0
-0.376909 -0.0296711 0.0973505
-0.000491967 0.160189 -0.0468351
0 0 0
-0.0802004 -0.1397 -0.120908
0.129488 0.140276 -0.0250084
0.179666 -0.234361 -0.112273
0.0718611 0.00759586 0.103502
0 0 0
0.0389676 0.0294015 -0.0653468
0.0773898 -0.042095 -0.144962
0.00555345 0.334866 0.0511644
0 0 0
-0.000133446 0.00837502 -0.00160423
0 0 0
0.225028 -0.153894 0.126491
-0.00181971 0.0501298 0.0214369
0.332628 -0.224813 -0.10383
0 0 0
0 0 0
0 0 0
-0.000745888 0.00304998 0.023752
0.124057 -0.179123 0.237747
0.0463705 0.0981631 0.0642277
0.0228813 0.157977 0.166979
-0.194898 0.19297 0.0235076
-0.292622 0.230261 -0.101159
0.0472676 0.0397766 0.078939
0.0989884 -0.00984901 0.152
0.0365409 0.0218692 0.0185606
0 0 0
0.421895 -0.0772708 0.238125
-0.187304 -0.161119 -0.2642
0.13735 0.0334735 -0.0483149
0 0 0
-0.0295305 0.108403 0.284824
0.144275 -0.423492 0.122075
0 0 0
-0.0220911 0.0238548 -0.0659288
-0.267626 -0.0742649 -0.136372
0 0 0
-0.0131335 0.0207092 -0.0156997
-0.339164 0.253499 -0.0679295
0 0 0
0.109263 -0.189019 0.00133854
0 0 0
0.00134525 0.128869 -0.0601617
0 0 0
0 0 0
0.148624 -0.194546 -0.0577628
0 0 0
-0.00476715 -0.0236899 0.115681
0 0 0
0 0 0
0 0 0
0 0 0
0 0 0
0 0 0
0.120337 -0.135607 -0.0143564
0.0313655 -0.0307497 -0.121255
0.200799 -0.403883 0.0594497
-0.0735861 0.0208942 0.0237291
0.164716 -0.351347 0.459978
0.067427 -0.0541613 -0.0665242
0 0 0
-0.0396761 0.0471039 -0.0229697
0.242234 0.142571 -0.196745
0.0376791 0.152111 0.284557
0.0473656 -0.0129226 0.238258
0.0288142 -0.119542 0.156757
0.0900891 0.276901 -0.453407
0 0 0
0.308867 0.0498865 -0.263767
0 0 0
0.00350196 0.0051073 0.00727358
0 0 0
0.222766 0.157014 0.296195
0.374032 -0.271837 -0.239694
0 0 0
0 0 0
-0.143375 -0.203762 -0.0658442
-0.351947 -0.0677101 0.140694
0.0358134 -0.268335 -0.166704
-0.0557123 0.000167305 0.112962
0.0101589 -0.013298 -0.00653891
0 0 0
-0.106226 -0.00373222 -0.0435564
-0.0254256 -0.00410851 0.00416493
0.0721239 -0.216551 0.425733
-0.00193431 -0.0742942 -0.00810624
-0.052321 -0.0113953 -0.201666
0.148519 -0.198735 0.00180536
0 0 0
-0.0596359 0.0492022 -0.0519892
0.0346309 -0.416635 -0.104679
0.108399 -0.0470099 0.234476
0 0 0
0.106874 -0.11245 -0.0476135
-0.0499128 0.0809569 0.156666
0 0 0
-0.15241 0.322899 0.218152
0 0 0
0 0 0
0 0 0
0.000462768 -0.0953952 0.0248665
0.02511 -0.0156282 -0.00331101
0.219106 -0.142427 0.21171
0 0 0
0 0 0
0 0 0
0 0 0
0.0901585 0.0259301 0.241557
-0.216972 -0.170876 0.0649661
0.0431553 -0.725608 -0.283484
-0.154456 -0.0793343 -0.0239247
-0.220605 0.0652501 0.0652515
2.13765e-05 -0.174067 -0.00784356
0.0134149 0.120304 0.00181369
-0.0583156 0.173714 0.024077
-0.000681481 -0.00626024 -0.0264953
0.283215 -0.127399 -0.270921
0.0466159 0.256154 -0.103454
-0.10194 -0.123055 -0.00572824
-0.312592 -0.254793 0.247757
0.00455108 -0.0566975 0.125206
0.401591 -0.00526112 0.0714408
0 0 0
-0.0959057 -0.0167672 -0.0751517
-0.171719 -0.191116 -0.0094288
0.126439 -0.326262 -0.207711
-0.136572 -0.122324 0.29017
-0.0795129 -0.316536 -0.0157295
-0.410852 0.0310446 0.0321492
0 0 0
0 0 0
-0.0253934 -0.138683 0.00608907
-0.133104 0.103713 -0.114907
-0.15394 -0.285368 -0.0352705
0.311921 -0.199801 -0.310063
0.293448 -0.219876 -0.0196935
0.330068 -0.198471 0.156541
0.00416098 -0.12317 0.0276898
0.133751 0.217163 -0.00081429
0 0 0
0.0989495 -0.0888287 0.222526
0.202957 0.0548254 -0.000564718
-0.000908807 -0.0605007 -0.0224493
0.317318 -0.201327 0.0890321
0.054398 -0.031566 0.036399
0.0351238 0.0967526 0.0430898
0.0986368 -0.288652 -0.301146
0.140418 -0.00660223 -0.18167
-0.227733 0.0620035 -0.116935
0 0 0
0 0 0
0.0366739 -0.0551219 0.00306182
0.189058 -0.141829 0.0195051
0.098659 -0.0353893 -0.0186839
0.238119 -0.0688146 0.200361
0.0266081 -0.0170166 -0.00674474
0.179624 -0.400176 -0.420203
0 0 0
0.0696006 -0.291848 0.171673
-0.244303 -0.319359 0.234914
-0.00493938 -0.00441912 -0.00876688
0 0 0
-0.132543 0.327597 0.0363814
0 0 0
0.0890761 -0.176982 0.21896
0.0165193 -0.00834289 0.00364082
0 0 0
0.0828989 0.0475671 0.154193
0.116685 0.0809461 -0.0251886
0.12379 -0.0398057 0.149433
0.113008 -0.122842 -0.0501599
0.250613 -0.116501 0.0381342
0 0 0
0.021622 0.119946 0.0291035
0 0 0
0 0 0
-0.0363349 -0.316999 0.232236
0 0 0
0.251109 -0.083323 0.00374221
-0.0238462 -0.0155827 -0.195942
-0.0905417 -0.15183 -0.162519
0.00270295 0.198248 0.0164498
0.0522513 -0.00152244 -0.057445
0.144884 0.0260628 0.192936
-0.153053 0.0017966 0.215746
0 0 0
-0.220103 0.310958 0.0138662
-0.0916741 -0.0392244 -0.00860171
-0.0952606 -0.233837 -0.214518
0.0119625 -0.146157 -0.00416743
0 0 0
0.0917178 -0.280764 -0.236513
0 0 0
0.276045 0.0475566 -0.348105
-0.119089 0.0433575 -0.0551339
0 0 0
-0.0861959 -0.400915 0.229423
0 0 0
0.0918401 -0.0461025 0.0887724
-0.00323975 -0.0194931 0.034012
0.0179602 -0.175815 -0.0481236
0.0980492 -0.0837137 0.0469981
-0.000199632 0.103285 0.0258134
0.113995 -0.0244982 -0.133319
0 0 0
-0.0486876 0.114002 -0.157285
0 0 0
0.00399362 -0.0330468 -0.0929893
0.143763 -0.1819 -0.10969
0 0 0
-0.115908 -0.563673 0.155947
0 0 0
-0.228377 -0.0673304 0.123153
-0.134353 0.0274401 -0.261212
0 0 0
0.20253 -0.162753 0.219024
0.0500489 0.150736 -0.219467
0 0 0
-0.0596838 0.161191 0.148434
0.0884455 0.0367882 0.0101108
0.191219 0.22125 0.159355
0.190921 -0.0714788 0.0478504
-0.128641 0.0590482 0.385106
0.0862434 -0.100754 -0.141919
-0.011509 -0.266189 0.0404449
-0.11856 -0.0815635 0.0166189
0.121151 0.0726642 0.137088
0.0428472 -0.137056 0.0505264
-0.0329745 0.0568632 -0.138353
-0.00686538 0.117344 -0.368858
0.00214825 -0.0211487 0.0692459
-0.0957878 -0.035057 0.028365
0 0 0
0 0 0
0.193616 -0.131505 -0.144478
-0.145985 -0.0641236 0.194305
0.0335217 0.607646 -0.0707479
0.000436063 -0.00196673 -0.00169642
-0.102264 0.00306326 -0.000924171
0.255769 0.307329 -0.184884
0.0535079 -0.150693 -0.163765
0 0 0
0.215564 -0.0900377 -0.115272
0.047752 0.011432 -0.162752
-0.0660731 -0.112444 0.00356806
0 0 0
-0.0459796 0.203416 -0.0855777
-0.0369406 0.301625 0.176664
0.220227 0.0945118 -0.0720306
-0.0449688 -0.223379 -0.397079
-0.000906241 0.0829575 0.0884139
0.200649 0.148688 -0.184341
0 0 0
0.405602 -0.108668 -0.0147577
0 0 0
0 0 0
-0.00503399 0.0928847 0.000775374
-0.0143686 0.0324423 0.0250896
0.114506 0.0334078 -0.0774108
0.0249553 0.0701704 0.0618329
0.360411 -0.429441 -0.15932
0.176185 0.221092 -0.111162
0 0 0
-0.134247 -0.837491 0.103295
0 0 0
-0.0798271 0.0782201 0.260403
-0.000371775 -0.119845 0.118486
0.0472334 -0.507256 0.189723
0 0 0
0.254823 0.224399 0.527645
0 0 0
0.117922 0.12656 -0.00735157
0.104026 0.788793 0.403036
0 0 0
0.133746 -0.28745 -0.0754822
0 0 0
-0.0105399 -0.119686 -0.118339
0 0 0
0 0 0
0.354046 -0.103611 0.00450294
0 0 0
0.0292208 -0.237496 -0.0415432
0 0 0
0.0728167 -0.179618 -0.114846
0 0 0
0.0402371 -0.0164747 -0.00268968
-0.00450858 -0.013154 0.0143015
-0.00670051 0.0750712 -0.00962681
0.0659678 -0.201608 -0.283821
0.0585159 -0.0535099 0.0606576
-0.0287026 0.0034564 -0.152704
0.0888817 -0.0442006 -0.0645716
0.13921 0.119776 0.0822803
0.041587 -0.400817 -0.278298
0.00903756 -0.0147068 -0.0415325
0 0 0
0.0676083 0.0984294 -0.05862
0.0917603 -0.105638 -0.00405943
0.35144 0.127466 -0.102196
-0.163466 0.139856 0.22423
0 0 0
-0.319889 -0.0060732 -0.0189742
0.00328508 -0.134744 0.140016
0 0 0
0 0 0
0 0 0
0 0 0
0.0361824 -0.00356961 0.0525393
0.0427549 -0.0694671 0.173339
0.0154604 -0.0679867 0.0743291
0.00936222 -0.000664454 -0.00799377
0 0 0
0.110635 -0.127666 -0.0795298
0.234892 -0.196222 -0.235091
0.0930651 0.0957055 -0.00935112
0.145018 -0.0652802 0.0796681
0 0 0
0.150169 -0.0691588 0.0514871
0 0 0
0.0793632 -0.0944322 -0.118761
0.135474 -0.0826521 -0.046737
0 0 0
0.40344 0.398213 0.0496588
0.354223 0.0426028 -0.0464805
-0.003101 0.17709 -0.0765326
0 0 0
-0.0430479 0.0964686 0.0744505
0.00259025 -0.00340491 5.65068e-05
0 0 0
0.170674 0.118657 -0.0268253
-0.330126 0.482357 -0.0987837
-0.0233939 0.079209 -0.0699141
0 0 0
0 0 0
-0.024524 -0.337924 0.0760192
0 0 0
0.0759381 0.312065 0.166769
0.04352 0.0478152 -0.00278514
-0.0732214 -0.36913 -0.162751
0.0812463 -0.0733372 0.0137924
0.0150226 -0.392668 -0.0602409
0.0389479 -0.0728054 -0.00653602
0.0019496 -0.344752 0.147752
0.238905 0.0391474 -0.155375
0.0727867 0.0785389 0.010232
0.0655249 -0.000587703 0.0464864
0.0678384 0.0134246 -0.127185
0.280003 0.0918026 0.162034
0.0335156 -0.0316203 -0.0366679
0 0 0
0 0 0
-0.0604581 -0.161519 -0.014861
-0.0679845 0.0461281 0.116386
-0.389483 -0.11705 -0.181062
0.0264579 0.0743483 0.0322082
0 0 0
0.165091 0.257585 0.249294
0.0431181 0.123033 0.175819
0.0559354 -0.114637 -0.0670264
0 0 0
-0.201037 0.100243 0.172108
0 0 0
-0.012867 0.102644 -0.335203
-0.362104 0.235588 0.29942
0.00346844 -0.00515342 -0.00529721
0.304211 -0.135797 -0.319106
0.0566803 -0.0581156 -0.000847284
0 0 0
0.0830135 -0.151755 -0.202307
0.181904 -0.00955536 0.136762
0.136725 0.057351 -0.00124648
-0.0377842 -0.0815611 0.0789383
0.242468 0.338442 0.0363415
0.00703456 0.252545 0.00368535
-0.0670524 0.043268 -0.0416817
-0.393484 0.198156 0.0372625
-0.0351816 0.0190405 -0.136589
0 0 0
-0.250069 0.167178 0.292815
-0.195944 -0.161695 -0.149204
-0.216729 0.212678 -0.0102837
-0.261338 0.112826 -0.111372
-0.180328 -0.0478066 0.113897
-0.546577 0.130123 0.168235
-0.051146 -0.0522482 -0.283156
-0.0123105 -0.0529503 0.134525
-0.029728 0.0282115 0.0397584
0.230008 0.0298815 -0.0295264
0 0 0
0.0243337 0.196133 -0.0568647
-0.0532084 -0.0272364 0.0411623
0.091235 0.170137 0.216599
0.0267114 0.00874743 -0.0103635
-0.0960954 0.00225034 -0.000984546
0 0 0
0.220528 0.114295 0.0864091
0.394356 -0.191858 -0.122115
0.0293438 -0.122061 0.0528737
0.320747 0.0498555 0.291164
0 0 0
-0.327406 0.0214977 -0.31125
-0.150206 0.266555 -0.0418984
-0.29488 0.372335 -0.291233
-0.131147 0.0340919 0.0360282
-0.0125666 0.0131483 0.0418661
0.122922 -0.00440796 0.0505146
0.054016 0.0592169 -0.0495471
-0.0584505 -0.00454157 0.0344881
0.113224 -0.0093389 -0.0843403
0.306092 0.177673 0.354275
0 0 0
0.46538 -0.117465 0.0929934
0.205384 -0.0119753 0.0989535
0.0614007 -0.0809016 0.188672
0.208236 0.3672 0.22612
0.325488 -0.0198646 -0.428299
0 0 0
-0.18724 -0.0497386 -0.236271
0 0 0
-0.00827366 -0.0256501 -0.0524873
0.0449275 0.0717766 0.136105
-0.13211 0.286197 0.204514
-0.023723 0.0098994 0.0194994
-0.254727 0.333253 -0.320688
0.00940146 -0.0194531 0.00987122
-0.0363827 -0.0499572 -0.071237
0.113907 0.0842369 0.201371
0 0 0
-0.0293587 -0.0332764 -0.000331694
0.0061355 0.113318 0.0951952
0.280846 -0.204227 0.264477
0 0 0
-0.0327372 0.0457002 0.0514907
-0.00248676 -0.064648 0.0234315
-0.110351 0.0535686 -0.0651676
0 0 0
0.052005 0.0201264 0.169646
0 0 0
0.167865 -0.00745826 0.183727
0.094836 -0.0625451 -0.0862282
0.177418 -0.0757484 0.354564
-0.0026954 0.228049 -0.0542209
0.426576 -0.130606 0.0733177
0.0555126 -0.0277992 -0.07463
0.601707 -0.208492 -0.191861
-0.0483158 -0.0678226 0.0240924
-0.0662916 -0.0196589 -0.429318
-0.000814234 -0.0160274 0.0367705
-0.193514 -0.398018 -0.0463104
0 0 0
-0.0623006 0.0414685 -0.0379032
-0.268416 0.239319 0.301271
-0.0764916 0.166766 0.137218
-0.171459 0.0833471 -0.186855
-0.0517677 -0.057472 -0.0218832
0.0410376 -0.0655221 0.0320338
0 0 0
-0.301849 0.131368 -0.161086
0.0966895 0.315385 0.1393
-0.0339319 0.498842 0.118633
-0.174314 -0.0341631 0.00982999
-0.0882636 0.0098472 0.0896983
-0.151089 0.199021 0.167333
-0.00158911 0.0675508 0.0928541
-0.093882 -0.058695 0.160474
0 0 0
0 0 0
-0.241976 -0.0183117 -0.0278303
-0.238834 0.0447607 -0.0319365
-0.467422 0.196853 0.0885093
0 0 0
0 0 0
0.05419 -0.258669 0.100591
0 0 0
-0.00372128 0.152219 0.0125457
-0.00241047 0.00315475 -0.0148898
-0.00944109 -0.0239 -0.031351
-0.329944 -0.221663 0.0247697
-0.0424455 0.021811 0.000296468
-0.499345 0.138623 0.0927726
0.0198757 0.005953 0.0409967
-0.526139 -0.0506287 -0.158984
-0.0130536 -0.0104322 -0.0172033
-0.458264 -0.00957636 -0.0450494
0 0 0
-0.00791677 -0.263699 -0.00222573
0.0558434 -0.0585704 -0.237164
-0.209662 -0.146395 0.479384
0.0336333 -0.0435149 0.0980279
0.00951495 0.00511956 0.109625
-0.104767 0.00160838 -0.0683114
0.092805 -0.0230235 0.150652
0 0 0
0.0491302 0.223694 -0.0883605
0 0 0
0 0 0
0.163888 0.211867 -0.323086
-0.00480325 -0.0221322 -0.000473054
0 0 0
-0.11571 0.479159 0.073345
0 0 0
0.129677 0.0858851 -0.00193741
-4.2918e-05 0.00263344 -0.00275123
0 0 0
-0.540523 -0.0552636 -0.0494436
-0.0258334 -0.114263 0.0157113
-0.0949338 -0.0744673 -0.165059
0 0 0
-0.353999 0.279948 -0.144752
-0.0411307 -0.159782 -0.0241077
-0.204017 0.00827617 -0.0374921
-0.125391 -0.132391 0.201689
0 0 0
0.196393 0.458629 0.211407
0 0 0
0.211705 -0.131145 0.733578
0 0 0
0.427635 -0.568285 0.190532
0 0 0
0 0 0
-0.070725 -0.0345105 0.197402
0.012813 0.0313546 0.00158132
-0.183575 0.0117002 0.108371
0 0 0
-0.469312 -0.179214 0.272799
0.0756981 0.0228498 -0.0421389
0.409582 -0.237378 -0.014007
0.47795 -0.336485 0.240126
0.0878656 -0.0934949 0.214194
0.252736 0.0565094 0.0257444
0.28379 0.169883 -0.145051
-0.0137655 0.101658 -0.361837
0 0 0
0 0 0
0 0 0
-0.0288392 0.0459072 -0.0847018
-0.154286 -0.325785 -0.301598
0.0251315 0.215927 0.192658
-0.0559412 0.19334 -0.0037346
0.032706 -0.018137 -0.279604
0.000757277 -0.000422172 -0.0588067
0.160433 -0.30288 0.00473941
0 0 0
0.0143584 0.261621 0.0375012
0.201265 0.132173 0.231964
0.0432006 0.237289 -0.20954
-0.0193286 0.00733747 0.00723498
-0.139263 -0.0951941 0.0547189
0.0256082 -0.0686354 -0.11383
0.25038 -0.257485 0.213054
-0.00154535 0.0552552 -0.110669
0.304148 -0.0852484 -0.149736
0.0565351 0.139879 -0.0361892
0.106363 0.0651071 -0.137285
0.347576 -0.042261 -0.235053
0.167216 -0.00141727 -0.217215
0.345464 -0.129056 0.306052
0.00613733 -0.0200233 0.0544525
0 0 0
-0.0543712 0.106927 0.0555136
-0.000424356 -0.0902442 -0.0344683
0 0 0
0.0820986 0.133441 -0.173983
0.100025 -0.00330604 0.1185
0.484287 -0.250952 -0.476306
0 0 0
0 0 0
0.00402964 -0.27908 -0.201299
-0.361184 0.139899 0.000692657
-0.0587073 -0.113623 0.058368
0 0 0
0 0 0
-0.441428 -0.0925226 -0.226259
-0.114873 -0.278208 -0.0091797
-0.213557 0.0305199 0.00106654
-0.0983926 -0.0733968 -0.0313307
0.0248548 -0.225711 0.0729552
0.0108461 0.0268226 0.00265316
0 0 0
0.114653 0.164173 0.0903482
0.152192 0.0367207 0.131871
-0.00704619 0.0106022 0.0628736
0 0 0
0.0746405 -0.0308495 0.00599747
0.0124695 -0.147587 -0.284862
0 0 0
0 0 0
-0.00419527 -0.155079 -0.255685
0.0476367 0.0490468 -0.123527
0.199899 -0.10374 -0.402627
-0.00118189 -0.0525448 -0.0488966
-0.133966 -0.227076 -0.0867264
0 0 0
-0.173325 0.29193 -0.0759042
-0.0824778 0.0584352 0.00401772
-0.148161 -0.0970257 0.112234
-0.152939 0.0241698 -0.0761332
0 0 0
0.0205479 -0.361176 0.0873252
0 0 0
0 0 0
-0.267781 -0.35994 0.0966963
-0.183786 -0.581764 0.118817
-0.210729 -0.121878 0.0540955
-0.190216 -0.148788 -0.0853182
-0.376486 -0.0922526 0.236563
-0.52168 0.0286403 -0.20459
-0.0407357 -0.00626899 -0.00229913
-0.00219845 -0.0758748 -0.0761311
-0.239795 -0.12606 -0.0781083
0.0763793 -0.0371136 0.0769679
0.0140333 -0.0203593 -0.00629018
-0.171079 0.380163 0.0487395
-0.0724721 0.138837 -0.0103398
-0.200022 0.116878 0.0390555
0 0 0
-0.230813 -0.21432 -0.165877
0 0 0
0.104473 -0.166972 -0.0138106
0.127119 0.114387 0.117996
0 0 0
-0.187217 0.158876 0.285653
0.0572831 0.0824109 -0.0354302
0.0729696 0.0873491 0.142854
-0.39136 0.169738 -0.0345622
-0.0461974 0.0948205 -0.136617
0 0 0
-0.114314 0.0364351 -0.000809962
0 0 0
0 0 0
0.163615 0.214158 0.374966
0.161889 -0.175367 -0.117379
-0.0126307 0.0231518 -0.0334753
0.024303 -0.0967627 -0.033438
-0.161078 -0.186212 0.0507929
-0.0739032 -0.0166503 0.0143128
-0.303263 -0.191021 0.448011
-0.010877 0.0657678 -0.222121
0.116752 0.0804835 -0.0495061
-0.385417 -0.00566312 0.242042
-0.0286583 -0.119462 -0.36802
-0.31163 0.00524569 0.292276
-0.00210127 0.0710003 0.0454709
-0.155033 0.0799876 0.0200244
-0.0274524 0.35068 -0.21105
-0.0508259 0.0924752 -0.188805
-0.114606 0.63984 -0.233987
0 0 0
0.180668 -0.373555 -0.0442432
0.224873 -0.315288 0.0441919
0 0 0
0.0286134 -0.00937785 0.0122679
0 0 0
-0.284575 -0.365934 -0.238205
0.146487 0.590763 0.00333387
0.140214 0.355345 0.0828802
0.522797 -0.0693532 0.23229
0.116252 0.00728978 -0.0212465
0.0374039 0.0184258 -0.246935
-0.488901 0.379482 0.111563
-0.102345 0.0657282 -0.109428
0.0819429 -0.0242001 0.00219259
0.0389627 0.19806 -0.145847
0.283932 0.125522 -0.0721526
0.0109466 -0.0610596 0.0576684
-0.25113 -0.192556 0.541831
-0.363568 0.12538 -0.3515
0 0 0
0 0 0
0 0 0
0 0 0
0 0 0
-0.139742 0.219341 0.0575586
-0.00335458 -0.0077282 -0.00373658
-0.189855 0.547532 -0.211423
0.0616018 0.0769433 0.0130567
0.00113453 0.131894 0.0398933
0.523701 0.239636 0.477924
0.0309382 -0.0707952 0.00340255
0 0 0
0 0 0
0.0473863 -0.137904 0.255848
-0.132208 0.148161 -0.0200176
0 0 0
0.0249757 -0.0756885 0.0216687
0 0 0
-0.0157951 0.0149472 -0.0365827
0.0162778 -0.246173 0.113732
-0.0559933 0.29282 -0.245807
0 0 0
-0.204759 -0.317304 -0.0370572
-0.0485043 -0.0506331 -0.0773597
0.0218958 0.162611 0.266117
0.0436285 -0.0219678 -0.0816282
0.527407 0.0191319 -0.0444524
0.115992 0.00554671 0.238981
0.0576258 0.235057 -0.0550084
0 0 0
-0.194362 -0.171267 -0.194733
-0.000466837 -0.113259 0.021179
-0.028366 -0.13365 -0.0425706
-0.467497 -0.241139 0.107742
-0.00249616 -0.222631 -0.130546
-0.0675348 0.415013 0.126931
0 0 0
-0.368659 0.407095 0.00440422
0 0 0
0.101214 0.072212 0.0547441
0.195659 0.388542 -0.128645
0.33619 0.0722641 0.187421
0.159575 0.00280661 0.130087
0 0 0
0.0685887 -0.21376 0.321463
0 0 0
0 0 0
0.00125635 0.047209 -0.000476546
0 0 0
0.152553 0.0138815 -0.0247099
0.00497375 -0.00235087 -0.00372794
-0.00935083 -0.00874963 -0.00250111
-0.018272 0.0135435 -0.127153
0 0 0
-0.0731249 0.203735 0.134916
-0.175642 -0.146004 -0.062583
0 0 0
0 0 0
-0.00357013 -0.0877087 0.0266899
-0.0354957 0.457243 -0.181643
-0.0407252 -0.135002 -0.0941395
0.12556 -0.479265 0.0159915
-0.194101 0.00952508 -0.0517633
-0.447325 -0.450401 0.0108063
-0.258404 -0.0450229 0.349383
-0.1091 0.107059 0.148805
-0.24364 -0.567583 0.0612707
0 0 0
-0.323861 -0.145601 0.156097
0 0 0
-0.122671 0.0462205 -0.000841754
0 0 0
-0.0311995 -0.0126906 0.549311
0 0 0
-0.0739744 -0.0236629 -0.30202
0.00567505 -0.0931372 -0.0765461
0 0 0
-0.0492243 -0.234566 -0.0920229
-0.0169131 -0.0229573 0.390179
0.101466 0.100347 -0.000230658
0 0 0
0 0 0
0.131015 -0.0686253 0.104139
0 0 0
-0.166972 0.0950071 -0.313865
-0.234997 0.103135 -0.0520471
-0.0562564 0.161346 0.0482069
-0.0775768 -0.0171654 -0.0299764
-0.0933389 0.0244889 0.0181154
0 0 0
0.0125707 0.00311749 0.0256593
-0.0493986 0.32817 0.353587
0 0 0
0.0103045 -0.147505 -0.437198
0.232682 0.0579225 -0.0820781
0 0 0
0.0300586 0.0452555 0.189595
0.00240755 -0.259986 0.055872
0 0 0
0.0450973 0.00174872 -0.277106
0 0 0
-0.0704804 -0.449851 0.161491
0 0 0
0.0428461 0.419797 0.344245
0 0 0
0 0 0
0.144367 -0.124285 0.178205
-0.00339608 0.16979 -0.122592
0 0 0
-0.0373586 -0.0299536 0.0625017
-0.047131 -0.0248185 -0.00332818
-0.111024 -0.0316879 -0.0543992
0.194311 0.0165191 -0.0117909
-9.03187e-05 -0.0903271 0.113676
-0.142725 -0.0775052 -0.111609
-0.0212108 0.199452 0.0873608
-0.165278 0.206083 0.116676
0 0 0
-0.184526 0.136042 0.0939734
0.069737 -0.192314 -0.00142432
0.102768 0.012362 -0.00435076
0.0899774 0.429445 -0.221417
0.364091 0.0223663 -0.191677
0.183133 0.0112673 -0.0354563
-0.00282587 -0.0315123 0.118897
-0.0435774 -0.309375 -0.189755
0.132379 0.0133175 0.264673
-0.0143716 -0.115003 -0.126215
0.277041 0.0746518 0.094756
-0.120237 -0.147955 0.138729
-0.391364 -0.00361218 -0.068013
-0.24149 0.071589 0.12276
-0.331056 -0.147821 -0.0616097
-0.0101443 -0.00462615 0.0181812
0.0345988 0.00669038 0.0766735
0.00636614 0.00536817 0.00191784
0.291583 -0.0388088 0.192105
0.0775768 0.161148 0.0832016
0.464144 0.161197 -0.199913
0.0106122 -0.00510366 -0.00227372
-0.0882344 0.00285999 -0.3661
0.0231318 -0.0327301 0.0632268
0 0 0
0 0 0
0 0 0
0 0 0
0 0 0
0 0 0
0 0 0
0 0 0
0 0 0
0 0 0
0 0 0
0 0 0
0 0 0
0 0 0
0 0 0
0 0 0
0 0 0
0 0 0
0 0 0
0 0 0
0 0 0
0 0 0
0 0 0
0 0 0
0 0 0
0 0 0
0 0 0
0 0 0
0 0 0
0 0 0
0 0 0
0 0 0
0 0 0
0 0 0
0 0 0
0 0 0
0 0 0
0 0 0
0 0 0
0 0 0
0 0 0
0 0 0
0 0 0
0 0 0
0 0 0
0 0 0
0 0 0
0 0 0
0 0 0
0 0 0
0 0 0
0 0 0
0 0 0
0 0 0
0 0 0
0 0 0
0 0 0
0 0 0
0 0 0
0 0 0
0 0 0
0 0 0
0 0 0
0 0 0
-0.0524903 -0.0418347 -0.235501
0.0274347 0.138984 -0.0478228
0 0 0
0.0733754 -0.00668282 0.0696891
-0.0402175 0.13342 -0.0277937
0.000722295 -0.089225 -0.0510148
0.139567 -0.0662088 -0.0005679
0.0181449 -0.220186 -0.0206332
0.031262 0.260195 0.013972
0.0682391 -0.00279636 0.0222474
0 0 0
0.00794746 -0.0907358 -0.0426197
-0.0747766 0.130009 -0.0122672
0.00200848 -0.0638648 0.028142
-0.0829007 -0.094181 0.0579307
0.186503 -0.178809 -0.0941873
0.0865168 0.131496 0.149011
0.0348591 0.0021555 0.0247406
-0.00180118 -0.0372728 -0.100983
0.120466 0.0616729 0.174265
-0.0515375 -0.115475 0.0814459
0.002908 0.00470798 -0.0783624
-0.0251809 0.0247949 -0.0713734
0.00460747 -0.0856792 -0.109807
0.0133392 0.0922599 0.07116
-0.149299 -0.0061011 0.0667257
0 0 0
0.0868366 0.0641112 0.148068
0.0975036 -0.0318942 -0.0574237
0.00320634 -0.0877882 0.104845
0.00780573 0.236749 0.0527905
-0.0808989 0.0129207 0.0629353
0.0250849 -0.0273874 -0.0161336
0.00308856 0.0474697 -0.0153289
0 0 0
-0.0626345 -0.0168603 -0.0116675
0.0565239 -0.0492147 0.0148468
0 0 0
-0.140321 0.000954334 -0.00269166
0.0176079 -0.138351 0.031423
0.0301118 0.0113667 -0.112085
0.0848645 0.00370879 0.11042
0 0 0
0.0502212 0.00380907 0.0618115
0 0 0
0 0 0
-0.0637726 0.0252184 -0.0593067
-0.118025 -0.0472772 -0.0827587
-0.0810406 0.048607 -0.0175846
-0.0575244 0.0626955 -0.0630913
0 0 0
-0.0255925 0.00292001 -0.0980897
0.0256527 0.0928067 0.0548475
-0.00182207 -0.00590152 -0.020334
-0.0339231 0.0130087 0.0632882
0.0357817 -0.114576 -0.0264909
0.00458351 0.0210797 0.0452411
-0.00365764 -0.00557831 -0.00667423
0 0 0
-0.0659105 0.00974201 -0.0233225
-0.143983 0.000849001 -0.0651719
0 0 0
0.0598785 -0.148371 0.150572
0.0228691 0.00723908 0.208782
0.0916743 0.000676033 -0.123786
0.214339 0.131283 0.0171807
0 0 0
0.078056 -0.11737 0.241655
-0.0433142 -0.159181 0.362338
-0.112523 -0.0361715 -0.161546
0.116086 -0.00970279 -0.0152781
0.0848209 0.0709555 0.0308866
0.0446678 -0.0954636 -0.0268888
-0.215607 0.313956 0.595624
-0.114578 -0.215661 0.10563
-0.239393 -0.543383 0.385597
0.0751549 0.11892 -0.34351
0.00417073 -0.117742 0.198992
0.0391785 0.0909396 -0.220093
-0.300575 -0.0498939 -0.217127
-0.329908 -0.0290333 -0.0167142
-0.0747208 0.0711512 -0.137015
0.0131981 -0.0397333 -0.00154251
-0.130886 0.180672 0.198125
0.105441 -0.0441931 0.0403235
-0.00239495 0.068056 -0.0875846
0.103153 -0.127619 -0.0791372
0.0630303 -0.0708806 0.0537446
0.194113 -0.00657435 -0.16784
-0.296795 0.139641 0.0480759
-0.151172 -0.0267198 -0.199805
-0.156628 0.181008 0.0451543
-0.193377 0.348348 0.375958
-0.00655552 -0.160049 -0.195976
0.0247877 -0.0524977 -0.0640458
0.261495 -0.0477509 0.110757
0.0454563 0.143924 -0.00187634
0 0 0
-0.00200947 0.152722 0.0710527
0.0675255 -0.443241 0.0988802
0 0 0
0 0 0
0 0 0
0.0364082 0.0114278 0.052951
0.179046 0.077253 0.164805
0 0 0
0.00494786 0.00309315 -3.50124e-05
0.175238 0.0153892 -0.17706
0.104411 -0.343256 -0.27587
0 0 0
0 0 0
0.124486 0.131535 -0.211414
-0.298761 -0.0150962 -0.132807
0 0 0
0.0526564 -0.0269299 0.0989843
0.275926 0.158587 0.20285
-0.00123078 0.137217 -0.229745
0.0773708 0.0434782 -0.0586846
0 0 0
-0.166443 -0.294797 -0.000399697
0 0 0
-0.215722 -0.0550028 0.276772
-0.035497 0.178925 0.0203418
-0.015555 -0.0153987 -0.00776607
0 0 0
0 0 0
0.0328149 0.152074 0.0748407
0 0 0
0 0 0
0.173734 -0.319078 -0.223429
0 0 0
-0.171382 -0.185477 0.0682761
0.119688 0.107573 -0.115655
-0.000777344 -0.0598104 0.0298787
0.0643238 -0.111133 0.11143
0.011866 0.148803 0.0109017
-0.0154751 0.136656 0.136116
0.182704 -0.00446328 0.278969
0.155771 0.543961 -0.30447
0 0 0
-0.171445 0.273805 -0.0467949
0 0 0
0 0 0
0.19566 -0.0232901 0.00469804
0 0 0
-0.0877591 -0.202654 -0.083367
0 0 0
-0.123505 -0.0188779 1.77932e-05
0.0253917 0.0214209 0.168751
0.128259 0.108125 0.18452
0.0656436 0.178508 0.405834
0 0 0
-0.00352813 0.0155762 -0.0158493
-0.0329508 -0.00748268 0.0351875
0.168046 0.34912 0.0574101
0.141044 0.0856134 -0.2694
-0.03015 -0.0419763 0.0365236
0 0 0
-0.213545 0.366467 0.271701
-0.0508363 -0.156242 -0.207834
0.132428 0.0487284 0.234348
0.120459 0.14687 0.080546
-0.000637726 -0.14392 0.0532472
0 0 0
-0.000790683 -0.0143984 -0.0788193
-0.191714 -0.261972 0.27131
0 0 0
0.0722073 -0.217429 -0.00220827
0.235344 0.233307 0.401935
0.144816 -0.00389586 -0.0463441
0.202124 0.243386 -0.0520938
0.110438 0.0296789 0.113913
-0.0165802 -0.004094 0.0194231
-0.12132 0.123666 0.0675963
-0.0391234 -0.267095 0.155068
2.42919e-05 -0.0025365 -0.0140732
0.197896 -0.0497681 -0.103314
-0.0795314 0.00221752 0.153803
-0.00154502 -0.278153 0.0542049
0 0 0
-0.270729 0.458754 0.313947
-0.000212709 -0.00504998 6.93403e-05
0 0 0
0.174015 -0.133158 -0.0516412
0 0 0
-0.112619 0.0317807 -0.119058
-0.213365 -0.113561 -0.0299278
-0.00756251 0.049111 0.0372554