<?xml version="1.0"?>
<VTKFile type="RectilinearGrid">
<RectilinearGrid WholeExtent="0 32 0 32 0 32" Origin="0 0 0" Spacing="1 1 1">
<Piece Extent="0 32 0 32 0 32">
<PointData>
</PointData>
<Coordinates>
<DataArray type="Float32" format="ascii">
0 0.524874 1.04975 1.57462 2.0995 2.62437 3.14924 3.67412 4.19899 4.72386 5.24874 5.77361 6.29849 6.82336 7.34823 7.87311 8.39798 8.92285 9.44773 9.9726 10.4975 11.0224 11.5472 12.0721 12.597 13.1218 13.6467 14.1716 14.6965 15.2213 15.7462 16.2711 16.796 
</DataArray>
<DataArray type="Float32" format="ascii">
-5.03879 -3.62163 -2.20447 -0.787311 0.629849 2.04701 3.46417 4.88133 6.29849 7.71565 9.1328 10.55 11.9671 13.3843 14.8014 16.2186 17.6358 19.0529 20.4701 21.8872 23.3044 24.7216 26.1387 27.5559 28.973 30.3902 31.8074 33.2245 34.6417 36.0588 37.476 38.8931 40.3103 
</DataArray>
<DataArray type="Float32" format="ascii">
0 0.524874 1.04975 1.57462 2.0995 2.62437 3.14924 3.67412 4.19899 4.72386 5.24874 5.77361 6.29849 6.82336 7.34823 7.87311 8.39798 8.92285 9.44773 9.9726 10.4975 11.0224 11.5472 12.0721 12.597 13.1218 13.6467 14.1716 14.6965 15.2213 15.7462 16.2711 16.796 
</DataArray>
</Coordinates>
<CellData>
<DataArray type="Float32" Name="Vector" NumberOfComponents="3" format="ascii">
0 0 0
0 0 0
0 0 0
0 0 0
0 0 0
0 0 0
0 0 0
0 0 0
0 0 0
0 0 0
0 0 0
0 0 0
0 0 0
0 0 0
0 0 0
0 0 0
0 0 0
0 0 0
0 0 0
0 0 0
0 0 0
0 0 0
0 0 0
0 0 0
0 0 0
0 0 0
0 0 0
0 0 0
0 0 0
0 0 0
0 0 0
0 0 0
0 0 0
0 0 0
0 0 0
0 0 0
0 0 0
0 0 0
0 0 0
0 0 0
0 0 0
0 0 0
0 0 0
0 0 0
0 0 0
0 0 0
0 0 0
0 0 0
0 0 0
0 0 0
0 0 0
0 0 0
0 0 0
0 0 0
0 0 0
0 0 0
0 0 0
0 0 0
0 0 0
0 0 0
0 0 0
0 0 0
0 0 0
0 0 0
0.00739497 0.125623 0.0102015
0.0730635 0.250127 0.00981141
0.102427 0.0376385 0.0885195
0.398651 0.128074 -0.136231
-0.0307875 -0.199892 -0.00973016
0 0 0
0.0572452 -0.174847 0.00816333
-0.0339422 -0.0721386 -0.0265271
-0.0609761 -0.0574731 0.00221467
-0.221104 0.12209 0.0267637
0.0147557 0.0158987 0.0196896
0.0538628 0.0941259 -0.0255644
0.176816 -0.00644118 0.0970028
0 0 0
-0.280201 0.0435537 -0.0159669
-0.00697602 -0.205042 -0.0393399
-0.00634196 -0.101116 0.0481347
-0.26691 0.0478871 0.0517912
0.00876565 0.00470504 -0.00101522
0.209184 0.0556979 -0.0522331
0.166195 -0.0031804 0.0143222
0 0 0
-0.130435 -0.0727752 -0.125499
-0.0503836 -0.017922 -0.0734976
-0.0977882 -0.0234512 -0.0617776
-0.171462 -0.252964 0.0662355
0 0 0
0.0182729 -0.0146604 0.0286176
0.0372787 0.396129 -0.0750082
0 0 0
0.130948 0.0116377 -0.00128729
0.128415 -0.135278 -0.0276488
0.0544525 0.0683204 -0.0879673
0.0425401 0.00382362 -0.0469451
0 0 0
-0.101847 -0.192243 0.00596851
0.0151521 -0.0796294 0.0967498
0 0 0
-0.0487649 0.156568 -0.00293004
-0.00478032 -8.02917e-05 0.00414307
0.0252108 -0.000169869 0.0179062
-0.0807745 0.175748 0.0273002
0 0 0
-0.0340713 0.0654027 0.109826
-0.231181 0.152957 -0.0253701
0 0 0
0.175046 0.0802342 0.122697
-0.0227678 0.0589374 -0.0300903
-0.097648 -0.247268 0.0278643
0 0 0
0.00177528 0.00132481 0.0153449
0.491358 -0.062293 -0.106166
-0.0537892 0.0104932 -0.0402157
0 0 0
-0.0809602 0.0251774 0.0466454
0.015538 0.0115627 0.0582295
0.0527522 0.0387428 0.142239
-0.123067 0.0287603 0.00817448
0 0 0
0 0 0
0.0243542 0.514908 0.00245746
0 0 0
0.132987 -0.0267627 0.04442
0.106475 0.102408 0.0914665
0 0 0
-0.306755 0.0723382 0.243911
-0.33564 -0.0144982 0.0660276
0 0 0
0.0638024 0.050004 -0.0212831
0 0 0
-0.239239 -0.205925 -0.050353
0.4225 -0.216987 0.211567
0.404931 0.0921219 0.0565045
0.387663 -0.384159 0.359011
0.126075 0.4242 -0.127172
0.217862 -0.00369651 -0.225444
0.330244 -0.079151 -0.173763
0 0 0
-0.0594379 0.136884 -0.162691
-0.021948 0.427768 -0.139923
-0.181732 -0.143896 0.0299544
-0.131286 -0.0315004 0.00142625
0 0 0
0.0555574 0.369295 -0.0624359
-0.0267374 0.180228 -0.0223847
0 0 0
-0.0125252 0.0642287 -0.00263338
-0.0437628 0.0482627 -0.170805
-0.0792337 0.0792391 -0.0404349
-0.0846474 -0.0498677 -0.0281861
0 0 0
0.217051 0.0590534 0.101623
0.128957 -0.0819452 -0.0080959
-0.0272207 -0.0231969 0.0325153
-0.163814 0.0210531 0.162448
-0.0711152 -0.0533224 0.100344
-0.0256171 0.05974 -0.0877141
-0.155947 0.110143 0.0354433
-0.000770778 0.0658244 0.0164333
0.0445727 0.110797 0.362501
0 0 0
-0.0164618 0.00164617 0.0216539
0.0474073 -0.332026 -0.133617
0.0732308 -0.167473 0.0721469
0.149548 0.247254 -0.186203
0 0 0
-0.159392 0.147496 -0.0294551
0 0 0
0.00751399 -0.00352708 -0.0323725
0 0 0
0.12413 0.568513 0.0978718
0 0 0
-0.0314094 0.268118 -0.104281
0.0979689 -0.1465 -0.0908889
0.000808883 0.0595616 -0.0162075
-0.20481 -0.292131 0.000188614
-0.0443637 -0.0545095 0.0376662
0 0 0
-0.000171267 -0.00395059 -0.0263178
0.0126465 -0.0439 0.0438652
0.00351092 -0.129535 -0.0339725
-0.179711 0.0644042 -0.148614
0 0 0
-0.0765274 -0.0648228 -0.0538688
-0.0662109 -0.102624 0.124319
0.0646319 0.0305574 0.0010351
-0.00518664 0.0750959 0.0890481
-0.0582842 0.501488 -0.0729076
0.0822168 0.0478914 0.403398
0.025903 0.223857 -0.00145291
-0.00014236 -0.101059 -0.248755
0.0727663 0.033818 -0.0248851
0.162626 0.279865 0.00263941
0.099561 -0.157224 -0.0756693
0.0509336 -0.264598 -0.0799884
0 0 0
0.0500563 0.198285 0.151653
0 0 0
0 0 0
0 0 0
-0.211576 0.139918 0.396533
0 0 0
0 0 0
-0.0869654 0.298778 0.000104628
0.337305 0.39289 -0.0232781
0.0245088 0.122586 0.0695759
-0.257412 0.188779 -0.167181
-0.252407 -0.501679 -0.0706284
0.000539652 0.230624 0.0577851
-0.0381805 -0.384064 0.186975
-0.0549406 -0.0626118 -0.106196
-0.0416557 0.0387505 0.000340556
0 0 0
0 0 0
-0.0213781 -0.123558 0.221662
-0.149262 -0.131702 -0.0307694
-0.0175241 0.497959 0.173719
-0.547682 0.27016 0.15127
-0.102404 0.060455 -0.0213044
0 0 0
-0.0328231 -0.0473481 -0.0647349
-0.0268445 -0.20986 -0.119046
-0.0018478 -0.0465806 0.211154
0 0 0
0.0661011 0.0120512 -0.0961454
-0.0374579 -0.0988779 0.102596
0 0 0
0.0872149 0.0350442 0.284456
0 0 0
0 0 0
0 0 0
-0.217669 0.256068 -0.263068
-0.0308315 -0.0203515 -0.0180933
0.171661 -0.117183 0.0527471
0.266205 -0.059755 -0.186672
-0.000696454 0.145004 0.235707
-0.0387068 0.000987468 0.0364029
-0.0284486 0.0869832 0.117911
-0.0142652 0.0019425 -0.0153748
-0.028711 -0.030459 -0.0880796
0 0 0
0.106741 -0.166402 -0.308723
-0.138533 0.105796 0.00472452
0.240064 0.149971 -0.279607
0.301154 0.0662792 -0.0915071
0.00472682 -0.151089 0.080607
0 0 0
0 0 0
0 0 0
-0.113439 0.165459 -0.272455
-0.00162156 0.188754 -0.143638
0 0 0
-0.254609 -0.291754 -0.11549
-0.000633869 -0.0677779 0.360401
0 0 0
0.163997 0.220833 0.0772512
0 0 0
-0.0879896 0.263003 -0.226141
0 0 0
0 0 0
0 0 0
0 0 0
0 0 0
-0.147884 -0.0690116 0.0106468
0 0 0
-0.0333192 0.0019919 -0.0755701
0 0 0
0.0174502 0.249867 0.107416
-0.000336405 -0.00995602 -0.15273
-0.0073857 0.052766 0.125083
0 0 0
0.156585 -0.217363 -0.00651113
-0.304239 -0.199414 -0.325348
-0.00148487 0.0442258 0.0061832
-0.236583 0.0103291 -0.259553
0 0 0
0.212291 0.247875 0.145893
0.0723334 -0.275532 0.0230392
-0.0079159 0.0283386 -0.0275989
0 0 0
0 0 0
0.0418726 -0.0873951 0.000429047
0 0 0
-0.0901748 -0.0184812 -0.0497779
-0.114035 0.0854874 -0.0794251
-0.262882 -0.107583 0.0339469
0.0388499 0.0373698 -0.220581
0 0 0
-0.0670369 -0.0592755 -0.128489
-0.0231322 0.0125264 -0.105599
0.278298 -0.226942 -0.148324
-0.000741126 0.0990556 -0.223466
-0.231539 0.32866 0.0187743
-0.0032218 -0.131926 0.0924185
0 0 0
-0.06253 0.00921436 -0.00316173
0.0768819 0.0882019 0.12001
0.0282967 0.150896 0.0583172
0 0 0
-0.0494681 0.155645 0.273089
0 0 0
-0.0828516 0.352316 0.295273
-0.361831 -0.0911646 0.0140886
-0.245868 -0.219633 0.0672045
-0.0530605 -0.121249 -0.0311133
-0.0749514 0.108104 0.00735581
0.0501097 -0.0083418 -0.0736529
0.0214982 -0.0105606 0.0379941
0.0258291 -0.0618795 -0.000315664
-0.218234 0.00934183 0.0819129
-0.54677 0.57249 -0.0243656
0.062686 0.13008 0.0405003
-0.439271 -0.0499222 0.0102527
-0.141973 -0.08416 -0.0816032
0 0 0
-0.370326 0.20552 0.0865576
0 0 0
0.0992751 0.0246986 -0.384178
0.0332674 0.322074 -0.0673006
0 0 0
0.153716 0.125269 0.0222914
0.0587313 0.0491836 -0.022694
0.403573 0.0183576 -0.488721
0 0 0
4.46986e-05 -0.283126 0.0552387
0.000289895 0.252903 -0.0474382
-0.0392415 -0.16207 0.0273393
-0.0720724 -0.268545 0.121999
0 0 0
0.142667 0.483428 0.373835
0 0 0
0 0 0
0 0 0
0.134959 0.0239518 -0.0613548
0.321811 0.152253 -0.135108
0 0 0
0.110102 -0.0463084 -0.32468
-0.00137863 -0.0466315 0.00754794
-0.0572796 -0.0401551 -0.236851
-0.0538632 0.00705642 -0.078594
-0.0445899 0.264928 -0.0521313
-0.143315 0.228016 0.291259
0 0 0
0.142969 0.0104739 -0.263208
-0.0666093 0.0333194 0.171624
0 0 0
0.270203 0.056259 -0.0444068
0.170863 -0.0610931 -0.146253
0.0185602 -0.0102466 -0.0377747
0 0 0
0 0 0
0.153759 0.019658 0.114776
0 0 0
0.315129 -0.394701 -0.402708
0 0 0
0.197106 0.0715035 -0.0548418
0 0 0
-0.300131 -0.11772 0.00226822
-0.0768438 -0.127935 0.00177366
-0.00153119 -0.00625177 0.00411463
0.0610014 -0.060033 0.122269
0 0 0
0 0 0
-0.0149497 0.0412633 -0.00913304
-0.0959029 -0.0928186 0.230174
0.059562 0.0627992 -0.329915
0.0251926 -0.0673549 0.0728098
-0.0377629 -0.0445137 0.0352267
0 0 0
0.126307 -0.172235 0.184728
0 0 0
0 0 0
0 0 0
-0.385695 -0.0459664 -0.0957749
0.00376033 -0.0581194 -0.00196201
0.144972 -0.12764 -0.191008
-0.028398 -0.0131321 -0.0180406
-0.0805969 0.00331057 0.0466815
-0.0240127 -0.346199 -0.0719673
0 0 0
0 0 0
-0.0288724 0.157908 0.28017
0 0 0
0.0949408 0.00139812 -0.0343749
0 0 0
0 0 0
-0.0970586 -0.0832445 0.0917987
-0.00634378 0.0127701 0.00925059
0.0469965 -0.243011 -0.174834
-0.107633 -0.0159383 -0.445815
-0.092149 -0.0160205 0.031337
0 0 0
0.173729 -0.387247 0.232921
0.0180767 0.0100652 0.00692398
0.262404 0.0188728 0.0435386
0.113529 -0.00270736 0.160711
-0.0511778 0.0207241 9.02404e-06
0 0 0
0.103076 -0.106879 -0.222435
0.0397385 0.175101 -0.241704
0.0312939 -0.128891 0.163059
-0.0431591 -0.116699 0.114447
0 0 0
-0.0207149 -0.0664326 0.024607
-0.183628 0.20817 -0.00624103
0 0 0
0.148993 -0.0787194 0.148599
0.285476 -0.0858189 0.278826
0.377927 -0.0239381 0.35243
0.125604 -0.000443734 0.0556335
0.0010273 -0.109575 -0.0434441
0.143917 0.445437 0.00120594
-0.0750934 0.0536132 -0.0385048
-0.285417 0.0174631 0.121631
-0.035595 0.0936314 -0.0576723
0 0 0
0.0181558 0.00055247 0.00441727
0.00335095 0.0321914 -0.00145935
-0.254602 -0.018612 0.106148
-0.0158418 -0.0234499 0.0813385
0 0 0
-0.0943176 0.101383 0.0036646
0 0 0
0.174806 0.167518 -0.297187
-0.0400333 -0.192586 -0.218032
-0.41503 -0.589234 0.15572
0 0 0
0.0845606 -0.0321735 0.1934
-0.147976 0.34988 -0.319291
0 0 0
-0.168627 0.142187 -0.0624129
0 0 0
0.0625104 -0.0109073 -0.0387394
-0.00769538 -0.0108611 -0.279805
-0.159626 -0.106496 -0.0272804
-0.102756 0.236026 0.0178526
0 0 0
0.0336041 -0.416826 -0.206561
0 0 0
0.0544179 -0.476049 0.197664
0.0396424 -0.00142019 0.010961
-0.0475585 0.00823425 0.223447
-0.024965 0.0713501 -0.132658
-0.0321353 0.34693 0.0766761
0.0726929 0.023341 -0.0230576
0.347835 0.304178 0.0633917
-0.117772 0.0804409 -0.240205
0 0 0
-0.20299 0.496537 -0.0488367
0 0 0
-0.0380969 0.152241 -0.0789229
0.0778372 0.0135414 -0.0109696
0.177785 -0.481213 0.0884564
0.0200244 -0.103042 0.0153819
0.0387538 0.389564 -0.0306406
0.221214 0.372812 -0.0467303
0.226578 0.290617 -0.142515
-0.0138858 0.141888 0.0750518
-0.175118 0.267851 -0.0726526
0.176818 -0.00652132 0.422767
0 0 0
0 0 0
0 0 0
0.218076 0.144078 -0.0174061
0 0 0
0.107535 -0.0619734 0.165539
0.197667 -0.0354676 0.154416
0 0 0
0.200693 -0.169916 0.149771
0.30284 0.169886 0.249286
0.160999 0.109061 -0.102978
0 0 0
0.20883 -0.00217994 0.170395
-0.143228 -0.261743 -0.142263
0 0 0
-0.140811 -0.0553714 -0.0769029
-0.0319045 0.029536 -0.0590384
0.12502 0.605447 0.535309
0 0 0
0 0 0
-0.0348697 0.126462 -0.133954
-0.0742759 0.349688 0.111893
0.167545 -0.0508262 -0.167154
0.164213 -0.0209939 -0.198798
0.133019 -0.162277 -0.0973681
0 0 0
0 0 0
0.137047 -0.203468 -0.131741
0.125818 0.18636 0.0720047
0.220632 0.170021 0.179416
0.0985609 -0.00567744 -0.0669476
0 0 0
0.061678 0.0318601 -0.0893882
0.601978 0.561387 0.110673
0.0264133 0.00149609 -0.0286153
0.318201 0.113849 -0.38223
0 0 0
-0.0128792 -0.0205393 -0.251396
0 0 0
0 0 0
-0.0630027 0.109629 -0.0201887
-0.100487 0.122516 0.0709959
0.221917 -0.118546 0.229436
0 0 0
0.0341867 0.167699 -0.000422257
-0.0153209 -0.157793 -0.101473
-0.0735074 -0.153082 0.0339607
-0.0991104 0.281598 0.133732
-0.0471226 -0.0556559 -0.035331
-0.123169 0.0912037 -0.0455649
0 0 0
-0.0230009 -0.100082 -0.0375581
-0.0161425 -0.061037 0.14416
-0.00293111 -0.0562353 -0.0369496
0.337093 -0.246406 -0.350716
0.0163312 -0.0506729 -0.0193838
-0.0454737 0.0941663 -0.00141361
0 0 0
0 0 0
0 0 0
0.0230953 -0.374635 -0.189566
0.000809023 -0.0438157 -0.0126405
0.186404 -0.143 0.197769
0.200018 -0.0190904 -0.0285198
0.0466126 -0.239958 0.0144593
0.0465569 0.160183 0.0084579
-0.101022 -0.0346066 -0.0886151
0 0 0
-0.0985537 0.0835286 -0.292679
0 0 0
0.282108 0.0220296 -0.201754
0 0 0
0 0 0
0 0 0
-0.357842 0.126975 -0.403773
-0.046941 -0.00205533 -0.0124727
0.0400249 -0.319928 -0.132686
0.0755242 -0.101175 0.158968
0 0 0
-0.0690438 0.197571 0.175393
-0.00592455 0.0723982 -0.114352
0 0 0
-0.0505782 0.284074 0.114728
0 0 0
0.117217 -0.097536 0.254552
0 0 0
0.0336796 -0.000315558 0.0788234
-0.0348479 0.00630991 -0.0291305
-0.0414685 0.0296978 0.0313046
-0.00202787 -0.00654987 0.0627509
-0.00945005 -0.183231 0.214261
0 0 0
-0.0210572 -0.547262 -0.11988
0 0 0
0 0 0
0 0 0
0.145275 0.000404556 0.0694595
-0.02694 0.0810601 -0.0388607
0.228455 0.211826 0.384603
0 0 0
0.0980269 -0.268332 -0.00694523
0.17529 -0.126598 -0.0448601
0.0758685 0.406882 0.145545
0 0 0
0 0 0
0.00681127 0.0306002 0.0254417
0 0 0
0.0289982 -0.0387244 -0.0728524
0 0 0
-0.219967 -0.267236 0.0268693
0 0 0
0.121006 -0.0272576 0.0442419
-0.000732783 -0.0228376 -0.0348882
-0.160327 -0.109339 -0.0336991
-0.442779 0.215329 -0.218904
0.00264771 -0.0285912 -0.118935
-0.176748 -0.0547235 -0.0796698
0 0 0
0 0 0
0.030085 0.151173 -0.211304
0 0 0
-0.11798 -0.243177 -0.0848629
-0.0789174 -0.216556 0.0801071
-0.17067 -0.398574 0.134063
-0.00808732 -0.124077 0.0345367
-0.166301 -0.148715 -0.0557561
-0.165384 0.0176479 -0.142553
-0.0403723 -0.100016 -0.00624508
0.111993 0.0236176 0.0112404
0.212673 0.115384 -0.0824827
-0.0306831 -0.0224285 -0.00765789
-0.00970669 0.000249714 0.00687632
-0.00227189 0.0566756 -0.0520532
-0.181545 -0.295359 0.0444888
0.0743694 0.0421663 -0.0988259
0.233102 0.411586 -0.224375
0 0 0
0.0738964 -0.0630157 -0.221816
0.203538 -0.114325 0.0495056
0 0 0
0.111408 0.0476938 -0.00330105
-0.0202723 0.0666263 0.329142
-0.001059 -0.120202 0.0588704
-0.0196789 0.0696352 0.308096
-0.210965 -0.166693 0.436484
0 0 0
0 0 0
0 0 0
0.0581027 0.215535 -0.132062
0.0899021 0.0407797 0.14674
-0.0338047 0.0395211 -0.00263315
-0.115794 0.234557 0.00358516
0.143843 0.111483 -0.032538
-0.049903 0.0629248 -0.0241094
-0.0641794 0.0216983 -0.0231021
-0.120117 -0.282094 0.00105994
0 0 0
0 0 0
0.11897 -0.189755 0.103279
0.0492962 -0.179459 -0.282813
-0.00170889 0.0258718 -0.113406
0.132575 0.396151 0.251703
0 0 0
-0.1129 0.277354 -0.0527176
0 0 0
0 0 0
0 0 0
0.142238 0.269745 -0.172682
0 0 0
0.087907 -0.540422 0.152699
-0.240467 0.143093 -0.0293582
0 0 0
0.126288 0.331182 -0.487336
0.00406661 -0.0201829 -0.0393548
0.0221684 0.0911047 -0.085805
-0.202812 0.123424 -0.0126513
0 0 0
0.0230166 0.0743954 0.0979378
-0.055517 -0.0201778 0.300488
0.00278033 0.0654435 0.060819
0.133289 -0.034826 0.0326094
-0.000670098 -0.00129029 -0.00140826
-0.0044473 -0.0244754 -0.0068183
0.000479552 0.065933 -0.0232865
0.00039447 -0.0604593 -0.0746366
-0.310292 -0.135444 0.0740981
0 0 0
0.102248 0.153632 -0.183062
0.149693 -0.219728 0.129853
0.123527 0.0668074 -0.115956
-0.00411826 -0.0852513 -0.529879
0 0 0
-0.0325561 0.0633142 0.000397174
0.154595 0.0152283 0.40566
0.16452 0.361367 -0.226177
0.0976345 0.342224 -0.0900402
0 0 0
-0.0998528 -0.0104955 0.0511109
0 0 0
-0.0602049 -0.0212376 -0.0670936
0.0332231 0.138853 -0.156093
-0.0497445 -0.0961271 -0.101814
-0.0849172 0.0379591 0.117031
0 0 0
-0.17051 -0.102709 -0.0359612
0 0 0
0.0575711 0.263924 -0.0816482
0 0 0
0.0712685 0.0133598 -0.31374
0.291405 0.488888 -0.354688
0.00662981 0.0433126 0.154073
-0.0465298 -0.213875 0.28575
-0.231484 -0.0177264 0.0499373
-0.123733 0.262276 -0.0035155
0 0 0
-0.0794782 0.081004 -0.603714
0.102487 -0.234546 -0.0555825
0 0 0
-0.0777046 -0.184899 0.0520259
0 0 0
-0.0842064 0.120005 -0.198817
0 0 0
-0.00283257 0.00569978 -0.00291613
0.314569 -0.0414794 0.26302
0 0 0
-0.0653843 0.129626 -0.124441
0.000983889 0.0641497 -0.0661885
0.339538 -0.00435541 0.221357
0.0865726 0.000772761 -0.266131
0 0 0
0.120438 0.00900559 -0.314875
0 0 0
-0.115654 -0.0831384 0.152091
-0.310412 -0.104709 0.0507701
0.00214252 0.316437 0.0112339
-0.11656 0.00185956 0.322572
-0.207685 0.0618234 0.10727
-0.347978 -0.0508234 -0.220514
-0.0524224 0.322711 0.090196
0.00502778 -0.0129636 0.00405222
-0.0922652 0.137878 -0.0014803
-0.251307 -0.138197 0.0246022
-0.125004 0.10451 0.154409
-0.350808 0.0329381 0.189132
-0.102874 0.0767828 0.0028988
-0.242008 0.0323212 -0.172007
0 0 0
-0.113441 -0.233577 -0.0879792
-0.162006 0.136677 -0.139405
0 0 0
-0.322697 0.298087 -0.129847
-0.000752394 0.131642 0.136596
0.00134226 0.0372679 0.0758546
-0.0282733 -0.171019 -0.149581
0.0716565 -0.198927 -0.174688
-0.000226697 -0.0201402 0.0815237
-0.00601692 0.0501482 0.0891732
0 0 0
0.0128745 0.155436 0.0949987
-0.000200623 0.0495146 -0.00603339
-0.0299453 -0.118666 -0.116846
-0.0838537 -0.0910797 -0.237321
-0.288566 0.0253687 -0.167841
0 0 0
-0.331136 0.000741778 -0.00367459
-0.0625382 0.121411 0.178114
-0.0284886 -0.0899582 0.034979
0.000210706 -0.0367583 -0.260582
-0.107668 -0.109812 0.067182
-0.163959 -0.354605 0.15476
-0.102928 0.0166041 -0.0178769
-0.260469 0.44696 0.212126
0.100347 -0.0343641 -0.0288774
-0.0919063 0.185833 0.198173
0 0 0
0.360029 0.157261 0.195577
0.0869413 0.0512446 0.183069
-0.161775 -0.287953 0.0681922
-0.219112 0.155533 -0.232448
-0.278023 -0.11243 -0.119864
-0.0851718 -0.283387 0.292319
-0.0466767 -0.00983148 -0.0229951
0.200087 -0.0798504 -0.0910775
0 0 0
0 0 0
0.0575482 -0.0563842 -0.112374
-0.0168959 -0.115388 0.0393717
0.0201229 -0.06351 -0.00407744
-0.231148 0.130396 0.368587
0 0 0
0 0 0
-0.0945992 -0.201748 0.00180985
-0.01321 0.157231 -0.00269927
-0.0972929 -0.208255 -0.0634605
0 0 0
-0.309052 0.0965632 0.200727
-0.025702 -0.0184543 0.00250049
0 0 0
0.0152249 0.00379575 -0.00034144
0 0 0
0 0 0
0.21793 0.102537 0.196896
0.174098 0.127311 0.00119469
0.0146602 -0.0135149 -0.012042
-0.103735 -0.00439927 0.00164444
0.0155416 -0.10059 -0.00740922
0.00623168 -0.0135261 0.00285853
-0.23588 0.0489368 0.469837
0 0 0
0.0827205 -0.219004 0.0408838
-0.345907 0.0856093 -0.358401
-0.125513 -0.767395 -0.240492
0 0 0
0.0899787 -0.500248 -0.233821
-0.00421637 -0.0914292 -0.398066
0.01953 -0.0963087 -0.199665
0.0930704 0.245457 0.0372199
-0.134025 0.0838349 0.242016
0 0 0
0.12243 0.336517 -0.0677713
0 0 0
0 0 0
-0.0275659 -0.0203354 0.05821
-0.163772 -0.227802 0.23758
0 0 0
0.102469 0.0341908 0.261638
-0.00240059 -0.00334716 0.291215
0.108865 0.155053 0.0866352
0 0 0
0.194314 -0.30019 0.527164
0 0 0
-0.0182654 -0.115074 0.0414286
0 0 0
-0.0551643 -0.0365102 0.109
0.296958 -0.0159271 -0.350968
0.132005 -0.1208 -0.248477
0.0310371 0.0239074 -0.0274427
-0.073775 -0.153642 -0.301652
0 0 0
0 0 0
0.0619337 -0.0438018 -0.0468044
-0.000577098 -0.0855559 0.0456425
0.0676244 -0.0701699 0.0992339
0.0965917 -0.142944 -0.0357332
0.260685 -0.289456 0.0400659
-0.0947856 -0.19569 -0.192364
-0.00798742 -0.00503131 -0.00793797
0.00757233 -0.00137301 -0.0285706
-0.0425986 -0.338131 -0.36371
0.11926 0.124088 -0.117639
0 0 0
-0.256712 0.0638926 -0.129284
0.00209343 0.191604 0.00980315
-0.120739 0.149071 0.480272
0.000485131 0.00304736 0.0861932
-0.105713 0.480678 0.235817
0 0 0
0.015695 -0.520666 -0.0402059
-0.0962424 0.0457403 -0.001683
0 0 0
-0.0121046 -0.103463 0.00239473
0.0971332 -0.0434124 -0.00205467
0.27088 0.329801 -0.0817268
-0.0794761 0.10341 0.0931191
0.418495 0.0103688 0.0141542
0.202215 -0.201896 0.164991
0 0 0
0.0351367 0.0354126 -0.785831
0.154327 -0.130593 0.457675
-0.0555373 -0.0706004 0.0934257
-0.292169 -0.241707 0.125899
0 0 0
-0.21791 0.0408821 0.168579
0 0 0
0.190426 -0.28887 0.316437
0.12403 -0.138469 -0.0634031
0 0 0
-0.00252874 -0.103901 -0.0120817
-0.0749986 0.130038 0.005244
-0.191745 0.1085 0.394012
-0.0820494 -0.0690849 -0.0408202
-0.148078 0.141243 -0.0743787
-0.318129 0.265156 0.120315
-0.0388792 0.000410273 -0.00445363
0.153446 0.151172 0.0720803
-0.111775 0.0153548 -0.0502214
-0.0251722 0.0949747 -0.00104874
-0.00204668 -0.147804 0.100181
0.127473 -0.478213 0.205
-0.0770677 -0.214167 -0.079194
0.0613214 0.0256775 0.106129
0.066397 0.0575807 0.213449
0 0 0
0 0 0
-0.174897 0.116789 -0.134552
0 0 0
0.0358201 -0.0127467 0.00149962
0.202517 0.205344 0.0675939
0.0312986 -0.280759 -0.355775
0 0 0
-0.0868246 0.19383 0.0872437
0 0 0
0.281351 0.114717 -0.281229
0.0276987 0.00950814 -0.207539
0 0 0
0 0 0
0 0 0
-0.112103 0.120324 -0.154652
0 0 0
-0.25296 0.0603133 0.147663
-0.000308858 -0.0502055 -0.00666684
0 0 0
-0.0827447 0.164441 -0.0497479
0 0 0
-0.170865 -0.00122408 -0.286976
-0.0189456 0.0176184 0.000880383
0.136439 -0.137617 0.166042
0.168353 0.233868 -0.00231598
-0.039792 -0.0658263 0.303074
0.112485 -0.079811 -0.034398
-0.0504931 -0.1581 0.0462747
0.0123033 -0.135086 -0.0529948
0 0 0
0.0801244 0.034166 -0.0764715
0.10182 0.138837 0.199559
-0.246046 -0.172439 0.321859
0.00849084 -0.0183625 -0.00567874
0.168831 -0.107297 0.0215963
0.0476273 -0.138694 -0.0682569
0.0354 0.0319645 0.0675444
0.245835 -0.223919 -0.0452052
-0.114191 -0.0160826 -0.122026
0.0093194 0.0741114 -0.0385547
0.00358932 -0.0425103 -0.133402
0 0 0
0 0 0
-0.0185512 -0.0307143 -0.0772796
0 0 0
0.0907126 -0.00504736 -0.0805478
0 0 0
-0.081561 -0.254001 0.214679
-0.0513481 -0.312499 -0.120284
0 0 0
0 0 0
0.0418911 0.0375668 -0.344513
0 0 0
-0.00416237 -0.112155 0.295302
0 0 0
-0.0663138 -0.0180443 -0.0117783
-0.211902 0.231262 0.000582045
0.120514 0.0915974 -0.183009
-0.188418 0.110555 -0.13359
0.00468867 -0.193461 -0.121952
-0.0387406 -0.351045 0.119806
0.45518 -0.265654 -0.519851
0.0294518 0.115233 0.0571204
-0.0548996 -0.0027342 -0.0767069
0.0518955 -0.137966 -0.312019
0.19663 -0.237168 0.316625
-0.105611 -0.0071083 0.021524
-0.48868 0.122507 -0.116798
0 0 0
-0.00445713 0.479117 -0.0166203
0 0 0
0.153249 0.0112646 0.0144882
0 0 0
0.221551 -0.269598 0.408623
0 0 0
-0.0770263 0.0529122 -0.0822095
-0.0023678 0.138064 -0.0680672
-0.0468347 0.0342312 0.0770732
-0.130518 0.0193845 -0.173521
-0.11952 -0.0612685 -0.0588459
-0.00227227 0.0773374 0.00669986
0.150353 -0.203484 0.14373
0.194538 -0.0484923 -0.021585
-0.0784872 0.0963102 -0.0319035
-0.524904 0.0667374 -0.0843743
-0.212057 0.0406703 0.151106
0 0 0
0.141078 -0.27768 0.281704
0.52299 0.487327 -0.127951
0.179744 0.142728 -0.389717
0.269678 -0.311015 -0.346552
0 0 0
-0.0101772 0.040821 -0.00294284
0.149787 -0.00963857 -0.0376253
0.128063 -0.0866779 -0.045047
0.090672 0.0526486 -0.169335
0 0 0
-0.143287 -0.0800719 0.00613035
-0.255581 -0.0781654 -0.0110747
-0.0470432 0.18415 -0.21144
-0.220921 0.14045 0.00330592
0.0145835 -0.189112 0.53149
0 0 0
0 0 0
0.00207976 -0.326622 -0.30233
0.0466686 -0.232931 -0.312982
0.131876 -0.0871096 -0.0460958
0.0459583 0.0597927 -0.0698298
0.113834 0.0142128 0.00368485
0.00202428 0.00199603 -0.0756525
-0.0328983 0.0691225 0.177126
-0.00135154 -0.0126078 0.00873092
0 0 0
-0.27361 -0.184533 -0.262039
-0.172779 0.181668 -0.0338767
0 0 0
0 0 0
0.122945 0.0445618 -0.0404777
0 0 0
0 0 0
-0.253827 -0.00287486 -0.337062
0 0 0
0.0461013 0.00571051 -0.431549
0.133933 -0.127738 0.0935796
-0.0245941 0.0325549 -0.000810221
-0.108857 -0.329224 -0.066724
-0.0928169 -0.00521379 0.00174529
0.223089 0.167337 -0.172991
0.0682467 -0.253146 -0.023361
-0.00377333 0.0777851 -0.147248
0.224673 -0.28351 -0.226974
0.333639 0.156705 0.114042
0.148416 -0.0511232 -0.0818201
0.364287 0.326503 0.120307
-0.0364728 0.10437 -0.000682075
-0.0365537 0.0614893 -0.0328133
-0.188621 0.172897 -0.586054
0.0689937 0.0701651 -0.146041
8.7019e-05 0.00501237 -0.00293195
0.238128 0.151175 -0.129155
0.000480962 0.128442 0.179989
-0.0262482 0.0357597 -0.00466984
-0.0840492 -0.000235637 -0.0186882
0.174383 0.027441 0.0387225
0.16363 -0.198732 0.10486
0 0 0
-0.15517 -0.0409996 0.0600783
-0.122743 -0.0212585 -0.0903659
-0.0432498 -0.0313085 -0.116189
-0.177323 0.0146235 0.19551
-0.034216 0.224464 -0.350968
0.0176581 0.266169 -0.0766793
0.109848 -0.181021 0.0673032
0 0 0
0 0 0
0.0196955 0.302941 0.705345
0 0 0
-0.25684 -0.0924956 0.45352
0 0 0
-0.229708 0.0443736 0.220909
-0.159488 -0.26858 -0.0846198
-0.257355 -0.0200233 -0.0077876
0.00223046 -0.0160164 -0.107277
0.071724 0.0602524 0.124434
0.217637 0.127593 -0.0668547
0.127693 -0.25157 0.401529
0.0498388 0.142671 0.00836906
0 0 0
0 0 0
0 0 0
0 0 0
0 0 0
0 0 0
0 0 0
0 0 0
0 0 0
0 0 0
0 0 0
0 0 0
0 0 0
0 0 0
0 0 0
0 0 0
0 0 0
0 0 0
0 0 0
0 0 0
0 0 0
0 0 0
0 0 0
0 0 0
0 0 0
0 0 0
0 0 0
0 0 0
0 0 0
0 0 0
0 0 0
0 0 0
0 0 0
0 0 0
0 0 0
0 0 0
0 0 0
0 0 0
0 0 0
0 0 0
0 0 0
0 0 0
0 0 0
0 0 0
0 0 0
0 0 0
0 0 0
0 0 0
0 0 0
0 0 0
0 0 0
0 0 0
0 0 0
0 0 0
0 0 0
0 0 0
0 0 0
0 0 0
0 0 0
0 0 0
0 0 0
0 0 0
0 0 0
0 0 0
-0.0112584 -0.0742042 -0.00813814
0.0383648 0.00925593 -0.168674
0 0 0
0.128933 -0.098998 -0.0962185
-0.108497 0.0146107 0.0106394
0 0 0
0.192176 -0.00390977 -0.0246263
-0.0215571 -0.112572 -0.0288431
-0.0741289 0.00698466 0.0449165
0.0189276 -0.0167472 0.153965
0.00872378 0.0195793 0.0059476
-0.113226 -0.000361663 0.0622347
0.0984081 -0.00946523 -0.126832
-0.00151326 0.0159136 -0.120132
-0.0113135 -0.119039 0.116034
-0.0184573 -0.00318928 -0.129838
-0.0297949 0.00171676 0.0866721
0.00774865 -0.0180197 0.0913607
0 0 0
0.163813 0.0337964 -0.229048
0.0278344 0.0245711 -0.131697
0 0 0
-0.0540151 -0.0590082 -0.0110454
0.0062233 0.0200861 -0.226423
0.0120311 -0.0629762 0.152671
0.00920095 -0.00991185 0.0300108
0.00617486 -0.00318674 -0.00338406
0.0420382 0.0553595 0.00105627
-0.0234304 -0.0506524 0.0891921
0.073532 -0.0541447 0.141692
0.0840507 0.0645978 -0.125525
-0.0493155 0.208361 -0.0478828
0 0 0
0.00353307 -0.0308046 -0.0287093
0 0 0
-0.123843 -0.0646201 -0.0388065
0.0328196 0.0614169 0.0536657
0 0 0
-0.266242 -0.0250357 0.0169434
0.0572063 -0.400043 -0.183691
0.0308641 0.144539 0.213423
0.165374 -0.0578381 0.122654
0 0 0
0.0149738 -0.116233 -0.00260848
-0.113425 -0.0066674 0.16536
0 0 0
0.011293 -0.0214328 -0.0640425
0.0230663 -0.0299916 -0.00167209
0.123817 0.0267213 -0.0820283
0.0128927 0.0391297 0.0222463
0.0239278 -0.0050958 0.00860058
0.0448253 0.0024223 0.167307
0.097946 -0.0179611 -0.0149559
0 0 0
0.166147 0.0167345 0.163055
-0.0828925 0.0336148 0.183269
-0.0863602 -0.0178552 -0.292558
0.0251772 0.00202009 0.117545
0 0 0
-0.00605685 0.000449375 0.00603261
0.00488584 -0.0375515 -0.0889652
0 0 0
0.0355641 -0.0963679 0.14953
0 0 0
-0.00437603 0.0232321 -0.0232041
0 0 0
-0.0668853 -0.0152234 -0.0995669
-0.148093 -0.158435 -0.22677
-0.236031 -0.0273198 -0.00300456
0.0174634 -0.0963879 -0.0973995
0.235114 0.312041 -0.25274
-0.000793481 0.00704563 0.0384595
0 0 0
0.232197 -0.223975 0.0967972
0.191495 0.166635 0.0185439
0 0 0
0.108477 -0.115615 -0.0427783
0.00636872 0.0248757 0.000904057
0.121087 0.262134 -0.126223
0.121825 -0.225356 -0.0702003
-0.0606754 0.208499 -0.0358323
0.00266374 0.133555 -0.074036
0.121446 -0.0906961 0.0397943
-0.0315548 0.0940455 -0.119042
0.0483875 -0.00851296 -0.0193476
0.114262 0.190423 -0.0418759
-0.243376 0.0675605 -0.466655
-0.0981871 0.147204 0.0352714
-0.00198012 -0.131136 0.0927681
-0.0655249 -0.137762 -0.116492
-0.0034706 -0.286157 0.000747418
0.0853279 0.0343015 0.163387
-0.0352415 -0.0432624 -0.163426
-0.00956743 -0.0062849 -0.00724239
-0.107016 0.33043 0.0677875
0.0056715 -0.11931 0.280967
0 0 0
-0.249836 0.326338 0.0844785
0 0 0
0 0 0
0 0 0
0.0139415 0.121112 0.0262359
0.0886641 -0.0274656 -0.0284198
0.05575 -0.0378762 -0.022862
0 0 0
-0.0165268 -0.0514962 0.0444305
0.0508735 0.191077 -0.187501
0 0 0
0.237561 0.207358 -0.117033
0.0635021 0.14955 -0.0944442
-0.0988564 -0.0134509 0.0521446
0.0206999 -0.107575 0.0108189
0.456572 0.291511 -0.00458266
0 0 0
0 0 0
0.196627 0.0278738 0.162805
0.00225592 -0.0206989 0.318315
0 0 0
0.155255 -0.0146338 -0.0766558
0 0 0
-0.0126258 -0.0105508 -0.0464134
0.0511175 -0.0659057 0.0345793
0.00202494 -0.170568 0.0131505
0.144325 -0.179676 -0.119884
0.221495 -0.107908 -0.0788339
0.0852716 0.0385188 -0.0395094
0.187726 0.135427 0.121287
0 0 0
0 0 0
0 0 0
0.246344 0.0460055 -0.0864657
0.0417745 -0.0287408 -0.0762487
-0.264209 -0.295148 -0.00173589
0 0 0
0 0 0
0 0 0
-0.0578403 -0.012585 0.0971361
0 0 0
0.00680408 0.0744178 0.267133
-0.271957 0.377094 0.021211
-0.137562 -0.0481706 0.123394
0.0253504 0.436282 0.288204
0.257309 -0.0563208 0.238679
0.0782577 -0.190427 0.0744631
-0.00953315 0.142543 0.133018
-0.03658 -0.000880455 0.226495
0.0259506 -0.0228703 -0.0149668
-0.00641508 -1.33136e-05 -0.00522892
0.147277 -0.00667576 0.089995
0.00164672 0.00852058 -0.0466407
0.196979 0.0437439 -0.143073
-0.249763 0.453671 -0.0187957
-0.000461761 0.0834063 -0.0938179
-0.0496843 0.0076159 -0.175546
-0.0876224 0.173221 -0.000404015
0 0 0
-0.0472964 0.0318195 0.0129154
-0.00211788 0.074953 0.027931
0 0 0
0.0846142 0.269603 0.1009
-0.102183 0.0436623 -0.00253305
0 0 0
0 0 0
0 0 0
-0.0823736 -0.109883 -0.321052
-0.0273423 0.0508891 0.00378767
-0.299979 0.180933 -0.0348106
-0.0608595 0.156655 0.182333
-0.0162975 -0.00703982 0.0298207
-0.198193 0.230064 0.245632
-0.0877798 0.271156 0.403085
0 0 0
0 0 0
-0.269188 0.179945 -0.0824235
0 0 0
0 0 0
0.00665525 0.0971976 0.0581323
0.00460226 -0.204145 0.133369
-0.00365103 0.00253002 0.0187672
-0.0876701 -0.0317216 -0.107838
-0.380497 0.0063691 0.0465974
-0.00528842 -0.199837 -0.268856
0 0 0
-0.0176417 0.0456389 -0.000616018
0.0324962 -0.0292357 0.0406788
0.0684192 -0.104411 -0.166371
0.321974 0.158306 0.0262949
0 0 0
0.0619362 0.175563 0.032971
0 0 0
-0.169549 -0.425187 -0.100514
-0.697004 0.274159 -0.0935169
0.000877068 0.054298 -0.0551366
-0.100715 0.140575 0.165778
-0.175767 0.0434621 0.100902
0 0 0
0.000742001 0.263871 -0.0721495