<?xml version="1.0"?>
<VTKFile type="RectilinearGrid">
<RectilinearGrid WholeExtent="0 32 0 32 0 32" Origin="0 0 0" Spacing="1 1 1">
<Piece Extent="0 32 0 32 0 32">
<PointData>
</PointData>
<Coordinates>
<DataArray type="Float32" format="ascii">
0 0.524874 1.04975 1.57462 2.0995 2.62437 3.14924 3.67412 4.19899 4.72386 5.24874 5.77361 6.29849 6.82336 7.34823 7.87311 8.39798 8.92285 9.44773 9.9726 10.4975 11.0224 11.5472 12.0721 12.597 13.1218 13.6467 14.1716 14.6965 15.2213 15.7462 16.2711 16.796 
</DataArray>
<DataArray type="Float32" format="ascii">
-5.03879 -3.62163 -2.20447 -0.787311 0.629849 2.04701 3.46417 4.88133 6.29849 7.71565 9.1328 10.55 11.9671 13.3843 14.8014 16.2186 17.6358 19.0529 20.4701 21.8872 23.3044 24.7216 26.1387 27.5559 28.973 30.3902 31.8074 33.2245 34.6417 36.0588 37.476 38.8931 40.3103 
</DataArray>
<DataArray type="Float32" format="ascii">
0 0.524874 1.04975 1.57462 2.0995 2.62437 3.14924 3.67412 4.19899 4.72386 5.24874 5.77361 6.29849 6.82336 7.34823 7.87311 8.39798 8.92285 9.44773 9.9726 10.4975 11.0224 11.5472 12.0721 12.597 13.1218 13.6467 14.1716 14.6965 15.2213 15.7462 16.2711 16.796 
</DataArray>
</Coordinates>
<CellData>
<DataArray type="Float32" Name="Vector" NumberOfComponents="3" format="ascii">
0 0 0
0 0 0
0 0 0
0 0 0
0 0 0
0 0 0
0 0 0
0 0 0
0 0 0
0 0 0
0 0 0
0 0 0
0 0 0
0 0 0
0 0 0
0 0 0
0 0 0
0 0 0
0 0 0
0 0 0
0 0 0
0 0 0
0 0 0
0 0 0
0 0 0
0 0 0
0 0 0
0 0 0
0 0 0
0 0 0
0 0 0
0 0 0
0 0 0
0 0 0
0 0 0
0 0 0
0 0 0
0 0 0
0 0 0
0 0 0
0 0 0
0 0 0
0 0 0
0 0 0
0 0 0
0 0 0
0 0 0
0 0 0
0 0 0
0 0 0
0 0 0
0 0 0
0 0 0
0 0 0
0 0 0
0 0 0
0 0 0
0 0 0
0 0 0
0 0 0
0 0 0
0 0 0
0 0 0
0 0 0
-0.00659177 0.0879659 0.0111552
-0.00511856 -0.0268473 0.0197676
-0.00193104 -0.0162548 -0.0463782
-0.0559338 -0.171723 0.0190511
0.0786123 -0.0267645 0.0184883
0 0 0
0.0332273 0.0822546 0.0366283
-0.130307 -0.0682045 -0.0884413
0.0150732 0.0684067 -0.115581
0.0118733 -0.115547 -0.06977
-2.27794e-05 -0.0117125 -0.0112209
0.235467 0.0515228 0.00737309
0.0773716 -0.0172938 0.0278585
0 0 0
-0.100754 0.133695 0.0152966
0.0355758 -0.203946 -0.0498029
0.075037 0.101047 0.0546243
0.0842553 0.0147896 -0.0235118
9.99448e-05 0.0183564 -0.00912193
-0.177567 0.338359 -0.0393939
-0.0202218 0.00995721 0.100321
-0.00948521 0.0972291 0.0172166
-0.134232 0.000100292 -0.00243559
-0.0725977 -0.0153138 -0.0292362
-0.00381624 0.10775 0.0368056
-0.252001 -0.333762 -0.00158464
-0.000999806 -0.032014 0.00846385
0.114211 -0.0648621 0.00997789
0.284359 -0.186911 0.0351333
0.0352906 -0.0402811 -0.0462203
-0.140122 -0.106667 -0.114163
-0.120261 0.0112172 0.0109642
0.0707981 -0.0931549 -0.0308972
0.0194993 0.0134542 0.164201
0 0 0
0.393194 0.0682766 0.0307948
-0.105061 0.0124057 -0.0648565
0 0 0
-0.0787391 -0.267 0.00184238
-0.0109192 -0.0524734 -0.0249299
0 0 0
-0.00812288 0.0874035 0.0512168
0.0437069 0.00373999 0.042785
0.0859818 0.0104588 0.0943757
-0.338097 -0.271309 0.0623659
-0.00341048 -0.00330813 0.023301
0.0235608 -0.00264107 0.0851935
-0.0600727 -0.1175 -0.0409744
-0.0415002 0.0214566 0.0411773
0 0 0
0 0 0
-0.0216051 -0.00327172 -7.71921e-05
0 0 0
0 0 0
-0.0197467 0.0371373 -0.0368712
0.00364764 -0.029105 0.0259341
0 0 0
0.14172 -0.0335996 -0.0035509
0 0 0
-0.0636737 -2.72081e-05 0.025503
0.0378853 0.146323 0.0568401
0 0 0
0.104469 -0.00243663 0.0514352
0.0909116 -0.154976 0.112891
0.000227147 -0.062918 0.112221
-0.135609 -0.0139836 -0.216826
0 0 0
-0.0142924 0.0631253 -0.00155742
-0.350526 0.310227 0.141208
0.00141628 0.100151 -0.0328346
-0.0863016 -0.134215 0.099244
-0.0671738 -0.0975021 -0.0106744
-0.0694777 -0.0561994 0.067882
0.0752574 0.0550208 -0.00113273
0.0389903 0.0210234 -0.000756176
0.0324603 -0.00408924 -0.0224059
0.147634 0.141201 0.0329025
0.000147852 -0.00847445 -0.0111434
0.0477828 0.0969527 -0.104601
0 0 0
0 0 0
-0.0606179 0.263711 -0.0694846
-0.138985 0.154934 -0.0174375
0.0016808 -0.137886 0.0160504
-0.287502 0.055659 -0.150058
-0.0476918 0.0715054 0.0767832
0 0 0
-0.056804 -0.130308 0.0366087
-0.0108803 -0.0804036 0.107989
-0.0106087 0.00226469 0.00433424
0 0 0
-0.237927 0.436635 -0.0392735
-0.0156741 -0.0028575 0.124504
-0.0906536 0.0951297 -0.0341303
-0.182608 -0.069383 0.17171
-0.0273737 -0.394622 0.332465
0 0 0
-0.0538495 -0.143982 0.00260678
0 0 0
-0.369058 -0.0247832 -0.016334
-0.182856 -0.0292447 0.268672
-0.152219 0.00920412 0.000346867
0 0 0
0.0218946 -0.00285826 0.135498
0.0722597 -0.0113648 0.00194027
0 0 0
0.038469 0.0292983 0.0622403
0.221446 -0.129871 -0.0624009
0 0 0
-0.00787948 0.384128 0.0196558
-0.100375 0.00383336 -0.00039281
0.0669174 0.24101 -0.0763867
-0.0607212 0.222635 0.0565043
0.117745 -0.129997 -0.00199751
0 0 0
0 0 0
-0.221213 0.0550211 -0.088979
0 0 0
0.0129516 -0.0145461 -0.037854
0.0324721 0.0590498 -0.170052
0 0 0
0 0 0
-0.23344 -0.202842 0.15796
-0.103267 0.126225 -0.0578599
0 0 0
0.105439 -0.077312 -0.0026145
0 0 0
-0.0358326 -0.000486216 0.0366705
-0.516123 0.643792 -0.0618398
-0.00417472 0.00325724 -2.9557e-05
0 0 0
-0.11444 -0.00769518 0.182355
-0.253684 0.254783 0.018246
-0.0584346 0.00344419 -0.00143281
0 0 0
-0.0735061 -0.145218 0.526043
0 0 0
0 0 0
-0.123788 -0.00704753 -0.001536
-0.105778 0.0121389 -0.173578
-0.201513 0.00257227 -0.00326674
0 0 0
-0.052399 0.156442 -0.346941
-0.0252905 0.18131 -0.142738
-0.123271 -0.0209025 -0.0582804
0 0 0
-0.072868 -0.0894899 0.028223
0 0 0
0.102371 -0.00370083 0.0635686
0 0 0
0 0 0
-0.0722973 -0.219795 -0.113776
0.178644 -0.163572 0.138373
0.0926443 -0.0996337 -0.220019
0.0722116 0.0262754 -0.000890613
0 0 0
-0.114805 0.0994647 0.163954
-0.141333 -0.236303 0.168864
0.00227715 -0.0272908 -0.0108232
-0.0548843 0.109597 -0.0990376
0.349685 0.248822 0.00419075
0.00792881 0.251124 0.0169072
0 0 0
0.101885 -0.0828578 -0.223201
0 0 0
-0.133411 0.265622 -0.0217726
-0.0381537 0.0810175 -0.479872
0.0612696 0.123141 0.0343641
-0.000914394 0.110759 -0.140742
-0.100219 0.220013 -0.193856
0.21449 0.0597491 0.161721
0.000231037 -0.143065 0.0279958
0.0605912 0.270789 0.0317126
0.000843371 -0.125423 0.119873
0 0 0
0 0 0
-0.183648 0.0840054 -0.122314
0 0 0
-0.0528627 -0.188047 0.114533
0.104359 0.0690005 -0.0686835
0.442997 0.368798 -0.0817538
0.0618833 -0.0476928 -0.0619516
-0.0632044 0.00673128 -0.0401882
0.00797131 -0.0484109 -0.168554
0 0 0
-0.204741 -0.172824 0.0988951
0.0474693 0.00137117 0.0892888
0.0254792 0.0180039 7.87862e-05
-0.206023 -0.0115022 0.256901
0 0 0
0.270304 -0.27552 -0.113898
0 0 0
0.220923 -0.153321 0.253814
0 0 0
0 0 0
0 0 0
-0.00272451 -0.0810147 0.193122
-0.00342134 0.0728515 -0.021838
0.0846651 -0.103397 -0.118267
0 0 0
-0.17149 -0.0677626 -0.16417
0 0 0
-0.0316211 0.032573 0.000190949
0 0 0
-0.0759794 0.00864687 -0.111975
-0.168195 -0.130946 -0.115126
0.0203196 -0.0484154 -0.0920511
0.161353 -0.365792 -0.19646
0 0 0
0.0369337 -0.0719219 -0.150044
0.0112579 -0.0601968 -0.0155782
0.187402 -0.671343 -0.325211
-0.0803685 -0.270323 0.231439
0 0 0
0.257069 0.482728 -0.165452
0.0753798 -0.0486157 -0.0780934
0.336897 0.129484 -0.464394
0.191028 0.168517 -0.187729
0.00729272 0.0122172 0.0369481
0.0551209 0.154674 0.0325513
0.00784936 -0.00486468 0.0167148
0 0 0
0.164256 -0.00929194 -0.100649
0.0768321 0.00988237 -0.0399526
0 0 0
0.315988 -0.295789 -0.163147
0 0 0
0.0834987 -0.00651351 -0.249914
-0.0840307 0.0462566 -0.114638
-0.0512318 -0.128162 0.0044351
-0.167595 -0.0322132 -0.0173413
-0.027601 -0.249735 0.0713156
0.047891 0.0483532 0.177979
-0.0395232 -0.102549 -0.000573336
-0.065594 0.270868 0.24515
-0.105942 0.130519 0.0594697
0 0 0
0.108148 0.00254736 5.79411e-05
0.33206 -0.0461355 -0.0458271
-0.00157074 0.0011503 0.108066
0 0 0
0 0 0
0.285224 -0.15992 0.236298
-0.00216708 -0.0111533 -0.0393813
0.00431394 -0.176914 0.100828
-0.442073 0.186933 0.00710317
-0.00678677 0.000916404 -0.00905446
-0.0315308 0.0130544 -0.106599
0.151032 -0.0815224 0.422211
0.0574856 0.063554 0.00438643
0.147873 -0.048512 0.220025
0.100654 -0.0654583 -0.315544
0.169409 0.0607378 -0.00839716
0.00143064 0.110391 -0.0339537
-0.250537 0.297059 0.0661415
-0.232322 -0.156257 -0.0650614
-0.248364 0.0969515 -0.162036
-0.00236822 0.0100478 0.0290295
-0.00133396 -0.121998 -0.133438
-0.0862091 -0.000636321 -0.0343535
0.254737 -0.359152 0.149237
0.0566715 -0.197602 0.00149485
0 0 0
-0.0905066 0.0131059 0.0953495
-0.194189 0.480824 -0.307362
-0.167834 0.169314 -0.180487
-0.451866 -0.0103028 -0.25477
0.0137236 0.0211867 -0.00879913
-0.0441345 -0.436143 -0.270874
0.000965703 0.0877107 -0.129739
-0.315227 0.017721 -0.103881
0.000297216 0.0169143 -0.0687337
-0.11649 0.106323 0.197674
0 0 0
0.0612293 -0.0802639 0.0157922
0.00260541 0.202081 0.163584
0 0 0
-0.0536186 -0.219716 0.00243184
0 0 0
-0.0647065 0.204867 -0.232005
0 0 0
0 0 0
0.0347596 0.119707 -0.288645
0 0 0
-0.383127 -0.193595 -0.0856712
-0.092415 0.0760826 -0.0749329
0.0807436 0.46173 -0.203453
-0.0556918 0.0984322 -0.0570836
0.00266318 0.0769754 -0.0148302
-0.00277535 0.169173 -0.0650527
0.310523 -0.0365234 0.122072
0.0460958 -0.224286 0.201943
-0.0429999 0.16759 0.0544776
-0.157265 0.0381014 0.0228417
-0.159299 0.131477 -0.174428
0.128654 0.713058 -0.133824
0 0 0
0.142827 0.763377 -0.197266
-0.00277481 0.0129238 0.0145813
0.0934925 0.0297793 0.42755
0 0 0
-0.0843209 0.238104 -8.29255e-05
0 0 0
0 0 0
0 0 0
0 0 0
0.108529 0.631125 0.151674
0 0 0
0.305381 0.375798 0.0742287
0 0 0
0 0 0
0.297162 0.2637 -0.165158
0.00444528 -0.137516 0.0654713
0 0 0
-0.0805009 -0.0261761 0.159503
0 0 0
-0.0791762 -0.153868 -0.00529897
0.0284554 0.162195 0.0803742
-0.143408 0.279098 -0.0961962
0.24794 -0.133435 0.301865
0.164828 0.147022 0.101717
0.114884 0.0206249 0.097204
0.0899993 -0.0211859 0.109878
0.0475385 -0.00698328 -0.00327302
0.0441956 -0.00352551 -0.055494
0 0 0
-0.02729 -0.208792 -0.245351
-0.160774 0.300417 0.251247
0 0 0
-0.204132 0.130125 0.000465542
0 0 0
0.0079982 -0.141711 -0.0490073
0.221224 0.0931639 0.13091
-0.161462 0.00218271 -0.084332
-0.533428 -0.485512 0.270068
-0.189005 -0.126041 -0.084871
0.111923 0.175254 0.0046443
0 0 0
-0.013855 8.1544e-06 -0.0308108
-0.0266309 0.220588 -0.0104785
0.051816 -0.00864742 0.0569198
0 0 0
0.140993 0.0305803 0.0102339
0.0740542 0.074522 -0.311687
0.534151 -0.126299 -0.0907865
-0.111597 0.10836 0.221752
0.185086 0.302762 0.057661
0.0416339 -0.0347314 0.0196903
0.177808 -0.270975 0.0464178
0.322734 0.157327 0.202896
0.207282 -0.226337 -0.0269567
0.113325 -0.169297 -0.154102
0 0 0
0 0 0
0.000967631 -0.00147149 0.0029347
-0.152487 0.137174 0.0656034
0.122428 -0.0570278 -0.176888
0.198492 0.027591 -0.1326
0 0 0
0.151841 0.179581 -0.0195496
0.276564 -0.0343193 -0.0157655
0.0981813 0.0260395 -0.0491623
0.176976 0.206204 0.0931956
-0.092304 -0.0663657 -0.113761
-0.21741 0.0634698 -0.0283398
-0.0646761 -0.212606 0.0581822
-0.0703117 0.123301 0.0266953
0.122486 -0.0482466 -0.212676
0.0448648 -0.0551926 -0.0833411
0.00379293 0.0269059 0.00391964
0.0653631 -0.0601885 0.00884641
-0.170418 -0.057916 -0.00325238
-0.0181267 -0.0414097 -0.0335956
-0.0491036 -0.0656922 -0.00185896
-0.0428407 0.00120207 -0.000915958
0.0131501 -0.100247 0.059532
0.00175129 -0.0205954 0.118345
0.0926317 -0.366885 0.0452771
0.438612 -0.290597 -0.110765
0 0 0
0.0790338 0.0204995 -0.00225032
-0.110656 0.139013 -0.0568488
-0.278667 -0.0443404 0.0180419
0.069802 -0.141809 -0.513392
-0.000934189 0.0128503 -0.0402048
0 0 0
-0.065031 0.133434 0.0689307
-0.157598 0.215816 0.034801
-0.0029209 -0.166099 -0.00251318
0.00138691 0.0485336 -0.0597735
0 0 0
0 0 0
-0.0209309 0.148859 -0.151383
0.046939 -0.0212392 0.0580104
-0.161928 0.0262926 -0.169969
0.007958 0.0526031 0.180217
-0.076256 0.175798 -0.319511
-0.210019 0.512336 -0.110457
-0.0789111 0.0819577 -0.166039
0.0869169 -0.0891599 -0.404286
0.157451 0.0465798 0.137846
0.10534 -0.332586 -0.0128872
-0.00031018 0.0106957 -0.0112324
-0.216388 0.270092 0.014706
-0.0254558 0.197096 -0.0189302
-0.00457003 -0.0196735 0.0155326
0.0949689 0.06092 0.160185
0.0446982 0.00193494 0.133494
0.0997985 -0.113294 0.320666
0.0509 0.0758225 -0.229512
-0.0125305 -0.176516 -0.218114
0.00405287 0.00588109 0.0526074
-0.135867 0.0191 0.218483
-0.255759 0.567627 0.0746287
-0.108399 0.0683367 0.0647785
-0.124647 0.0314328 -0.0613366
0 0 0
-0.0550106 -0.0562529 -0.000653745
0.00741008 0.00836204 0.000654004
0 0 0
0.304132 -0.155828 -0.0709627
0 0 0
0 0 0
0 0 0
0 0 0
-0.0272792 -0.0498238 -0.00288311
-0.0204415 -0.102742 -0.129118
-0.0368713 0.0875304 -0.093945
-0.312597 -0.158322 -0.17638
-0.090269 0.1216 0.0469256
-0.27124 0.0313857 0.0494009
0 0 0
0 0 0
0 0 0
0.106693 0.327476 -0.128091
0 0 0
0.0678555 0.130402 -0.0341014
-0.000112581 -0.0483367 -0.0560973
0.045036 0.0261909 -0.0668593
0 0 0
0.0703228 0.0355647 0.410114
0.0749846 -0.00279624 0.255749
0 0 0
-0.011018 -0.041087 0.0122064
0 0 0
0.0563156 0.137201 0.0631276
0 0 0
0 0 0
0 0 0
0 0 0
0.0845275 0.0564119 0.23478
0.0386869 -0.00571326 0.163225
0.0584601 -0.038611 -0.221794
0 0 0
-0.0668964 -0.0367349 0.0555204
-0.131809 -0.159344 -0.347846
-0.0985668 -0.215201 -0.00421046
0.0165778 0.0942117 -0.0822742
-0.228769 -0.103883 -0.483745
0 0 0
-0.13792 0.0787298 0.0420014
0 0 0
0 0 0
0.00145508 0.00655398 0.00153242
-0.0997992 0.0923762 0.205986
-0.149378 -0.109248 0.157302
0 0 0
-0.0617831 -0.0409758 0.0106515
-0.0143808 0.0569373 -0.00222274
0.0392998 -0.0329051 0.101746
0.0692671 0.0546348 -0.0455086
0 0 0
-0.0713066 -0.0824252 0.0557353
-0.378458 -0.0146715 -0.4213
-0.135114 0.30168 0.03338
0.0698977 0.101831 0.0331378
0 0 0
-0.000115135 0.0485564 -0.0437989
0.00861084 0.0279153 -0.005804
-0.137732 0.463747 -0.203241
0.0901249 0.0449609 0.101736
0.225832 0.185298 0.0997447
0 0 0
0.0236829 0.0164156 -0.0237454
0.328484 0.0372217 0.14752
0.255472 -0.144781 -0.0289901
0.169729 -0.0980568 0.133702
0 0 0
0 0 0
0.163243 -0.0451294 -0.0904349
0.027489 -0.10306 0.0199205
0 0 0
-0.401747 -0.164136 -0.114216
0.0254563 0.0760779 0.149061
-0.310141 0.208313 -0.180668
-0.255281 0.228283 -0.0933151
0 0 0
0 0 0
-0.0435987 0.0264256 0.0667757
0.00225704 -0.0146207 0.146484
-0.076512 0.0814432 0.29441
0 0 0
-0.132382 0.26014 0.140744
0 0 0
0.0798542 0.0191681 -0.0233394
-0.0796667 -0.0492691 0.000794158
-0.000206904 -0.10964 0.0933724
0.254028 -0.228525 -0.248059
0.00687273 -0.0660948 -0.00794803
0.144695 0.547235 0.407041
0.00214066 0.010921 0.124677
0.250906 0.595782 -0.0685038
0 0 0
0.12192 0.410259 0.114199
0 0 0
0.315185 -0.12488 0.224503
0 0 0
0.0137337 -0.283141 0.195201
-0.141809 -0.110004 -0.0323488
0 0 0
0 0 0
-0.00399404 -0.0142112 0.522724
-0.0279011 -0.0346387 0.00132749
-0.111006 0.0015494 -0.0918944
-0.111294 0.00911807 -0.055405
0.264395 0.132755 0.089536
0.123462 0.0452828 -0.00343243
0.171207 0.335496 -0.3967
0 0 0
0 0 0
0.203382 -1.17442 0.149437
0 0 0
0 0 0
-0.0010473 0.0263689 0.0303576
-0.0965814 -0.0683762 -0.0321352
0.274209 -0.252061 0.0928647
0.0413892 -0.0596001 0.00783553
0.202113 -0.141652 0.204238
0 0 0
0.0213988 0.133056 0.175622
0 0 0
-0.0342124 0.23246 0.182617
0 0 0
0.298411 0.473737 0.353834
0 0 0
-0.0352471 0.0753353 0.00213905
0 0 0
-0.0959475 -0.033069 0.0443551
-0.00212312 -0.260403 0.00254085
0 0 0
-0.341991 -0.067828 -0.139351
-0.118769 -0.0848026 0.0463063
-0.216759 0.064268 -0.0844019
0 0 0
0.0913799 -0.248265 0.0880643
0 0 0
-0.0539045 -0.14833 -8.39372e-05
-0.125451 -0.0587155 0.00129821
0.000525419 0.0570394 0.027893
0.17929 0.0592513 0.0844391
0.198447 0.312199 -0.272094
-0.0389987 -0.171935 0.0312146
0.268406 -0.641625 0.137677
0 0 0
0.0845874 0.288376 -0.301952
0.128277 0.113284 -0.297103
-0.00462289 0.245799 0.0180554
-0.108048 0.00781853 -0.233144
-0.240695 -0.168143 0.140617
-0.130508 0.0878208 -0.235881
-0.462539 0.0578014 0.178363
0.0457123 0.12009 0.531209
0.0207876 -0.00844557 0.0152252
-0.0357979 0.104217 0.338736
0.0924937 -0.124352 0.238514
0.142166 0.364462 0.00537817
0.00416598 -0.0128364 -0.0200489
0.0340689 0.0446116 0.0311121
0.0232859 0.0151264 -0.440091
0.019495 -0.013273 0.0209725
0.142848 -0.082793 0.0599695
0.0187886 -0.124575 -0.0357617
0.000128414 -0.0464607 -0.00229418
0.0720323 0.049195 0.178182
0.0175254 -0.0533802 -0.454322
0 0 0
0.051602 0.0234632 0.0655734
0.105115 0.294646 0.151077
-0.000536485 -0.0784078 -0.0392196
0 0 0
0.0356271 -8.027e-05 0.0849811
0 0 0
-0.165275 0.0761501 0.209988
0.00353023 -0.0437065 0.00512972
0 0 0
-0.22627 -0.0681544 0.321005
-0.00601219 0.0577432 0.189676
-0.0388306 0.0992592 0.110073
0.142824 0.053861 0.170521
0.0342802 0.156224 -0.0181297
0.248032 -0.133436 0.0908177
0 0 0
-0.0154853 0.038927 0.00172697
0.178533 0.0189141 0.0057538
0.0191199 0.15637 0.326659
0.353641 0.189902 0.118402
0.0288535 -0.195959 0.119348
0 0 0
0.223124 -0.211265 0.00450634
-0.00256888 -0.108365 -0.0599973
0.0197521 -0.209292 0.302186
0.00117277 0.0452112 0.0993243
-0.0940034 -0.00658021 0.230919
0 0 0
0.129473 -0.104143 -0.0228472
0.237119 0.13348 -0.171695
0 0 0
-0.13324 -0.0187877 -0.00582399
-0.126303 -0.121705 0.00354335
0.326197 0.455797 0.0780673
0 0 0
0 0 0
-0.421383 0.160107 -0.0379604
0 0 0
-0.0976323 0.00625395 0.143678
-0.0779887 0.0448476 -0.134959
-0.328979 -0.0652205 -0.13381
0.00303379 -0.0656889 0.0321153
0 0 0
-0.208131 0.0224998 -0.0580921
-0.041884 0.000967084 0.0554394
0.245677 -0.0586665 0.131153
0.00988439 0.0829587 -5.17492e-05
0 0 0
-0.0329882 0.0416298 -0.131494
0 0 0
0.250701 -0.134239 0.12144
0.198257 -0.305182 0.14783
0 0 0
0 0 0
-0.0161164 0.0197991 0.0144021
0.158233 0.139338 -0.000954227
-0.0468736 0.0615603 -0.0985909
-0.0987992 -0.126375 -0.386881
0.071454 0.0702678 -0.0121063
-0.0806862 0.0178955 -0.024726
-0.282106 -0.156875 0.0702767
0 0 0
0.0947296 0.16655 0.191162
-0.0591901 -0.0131964 -0.0276901
-0.0196795 -0.0670188 0.10172
0.0982255 -0.0843632 -0.0230212
0.000498621 -0.398609 -0.147539
0 0 0
-0.113484 -0.241791 -0.0494362
-0.216678 -0.0589028 0.262465
-0.0542782 0.01274 -0.00743955
0 0 0
0 0 0
0.21403 0.0132228 0.0389312
0.312456 -0.167478 0.20952
0 0 0
0.0293974 -0.0355318 -0.120492
-0.156766 -0.130458 -0.0740356
0.0703693 0.0273087 0.145722
0.329767 0.280111 0.131723
-0.0136481 -0.0611578 0.153386
0 0 0
0.266306 -0.314686 -0.055312
0 0 0
0 0 0
-0.137124 0.226305 0.247452
-9.09619e-05 -0.0647389 0.00899817
0.0274242 -0.46675 -0.00813983
-0.054769 -0.213055 0.138066
-0.14113 0.109009 -0.129064
0 0 0
0 0 0
0.180772 -0.117173 -0.136561
0 0 0
-0.139002 -0.123118 0.143976
0.0799726 -0.0152955 -0.00144148
0 0 0
0.229822 0.173554 -0.0974505
0 0 0
-0.176386 0.0731581 0.0725548
-0.0721681 -0.0648397 -0.072241
0.0493028 0.00113545 0.107008
0 0 0
-0.0703964 0.372856 0.0635295
0.162101 0.106079 0.313417
0.0572485 0.0396614 0.0530999
0.0690357 0.0921995 -0.313464
0 0 0
-0.00938953 -0.0965085 -0.0406053
0.138605 0.130603 -0.0753129
0 0 0
-0.0923242 -0.0611285 0.0965741
-0.186462 -0.0264546 0.0240794
-0.284308 0.0576429 -0.181058
-0.0485393 0.0671404 -0.03149
-0.282551 0.275709 -0.347165
-0.0846853 0.0114129 0.00349919
0.0885433 -0.196765 -0.1164
-0.165009 -0.0190028 -0.142598
-0.154014 0.0725557 0.0285082
0 0 0
0.1094 0.0409859 -0.0476212
0.484258 0.079104 -0.114559
0.113279 -0.123873 -0.040251
0.00137325 -0.443741 -0.258999
0 0 0
-0.0175355 -0.409106 -0.089371
0 0 0
0 0 0
-0.137713 0.177742 -0.138294
0 0 0
0.0369404 -0.269285 0.0915746
-0.0121898 -0.192686 -0.03084
0 0 0
0 0 0
0.00444048 0.00864072 0.00999459
0 0 0
-0.0254819 -0.0265259 0.00294315
0 0 0
0.103313 0.0850746 0.256103
0 0 0
0 0 0
0.0487129 -0.362685 0.196237
0 0 0
0 0 0
0 0 0
0 0 0
0 0 0
0 0 0
-0.198458 -0.226187 0.0672945
0 0 0
0.0152904 -0.612438 0.223973
-0.054277 -0.21891 -0.0723856
0.0410081 -0.166622 0.00287602
0.0551065 0.0870002 -0.0645341
0.0662729 -0.0823497 0.0308112
-0.00191001 0.00582342 -0.0347359
0.00708955 -0.225511 -0.0619993
0 0 0
-0.201555 0.116372 -0.137284
-0.0724136 0.0243062 0.113335
0.182404 -0.0268391 -0.0389601
0 0 0
-0.0665653 -0.354409 -0.0058477
-0.163406 -0.146177 0.0669692
0 0 0
-0.057989 0.0334247 0.00286578
0.0516098 0.37515 -0.245396
0.144919 0.188632 0.239698
0.137574 0.0309799 0.234065
-0.0246185 -0.122656 -0.00154205
0 0 0
0.0568124 -0.0189373 0.00621781
0.017394 0.0171765 -0.0871638
0.388342 0.117895 0.00196285
0.0560743 0.0230798 -0.151396
0 0 0
0.0508753 -0.0693696 -0.393658
0.0126039 -0.470614 -0.101387
-0.0088516 -0.0709196 0.273213
0.00126465 -0.283566 0.0332203
0.232995 -0.21632 0.113101
0 0 0
0.306827 0.23294 0.0527526
0.296761 -0.107732 -0.31555
0 0 0
-0.210849 -0.182414 -0.00257544
-0.0424803 -0.0221902 0.0492278
0 0 0
0.203446 0.192608 -0.0488195
-0.0136488 0.0706943 -0.000417099
-0.0305114 0.0325054 -0.00151008
-0.399169 -0.0934935 -0.00878494
0.00271713 -0.00427329 -0.0064161
0.00821629 -0.0110056 -0.0175389
0.0825226 0.334247 -0.0218363
-0.149411 -0.0216383 -0.00120737
-0.0903457 0.207079 -0.45101
0 0 0
0 0 0
0 0 0
0.00755044 0.0190864 -0.00628479
0.0016618 0.0221732 -1.01894e-05
-0.0349934 -0.0381827 -0.000875628
0.050304 -0.47748 -0.122935
-0.0175056 -0.020591 -0.0263565
0 0 0
-0.300618 -0.0907266 -0.159092
-0.0387485 -0.050929 0.148582
0.0226112 -0.403583 0.2075
0 0 0
0 0 0
0 0 0
-0.0507217 -0.210431 -0.105798
-0.00896723 -0.2841 -0.0465482
0 0 0
0.0470031 -0.211552 0.0279572
-0.156345 -0.0369752 -0.128894
0 0 0
0.00278727 -0.0796457 -0.050852
-0.0516667 0.0821286 0.000307202
0 0 0
-0.0640459 0.173079 0.000224606
0.00309153 0.238063 -0.0787916
0.015204 -0.407179 -0.229555
0.0783533 -0.0189222 -0.0531636
0 0 0
-0.00317579 0.14626 0.174091
-0.0139444 0.393749 0.126358
0 0 0
0.0881257 0.040971 -0.259704
0 0 0
-0.0245914 -0.0902201 0.0212385
0 0 0
-0.110857 -0.0113544 0.0861548
0 0 0
-0.133463 -0.0294954 -0.122814
-0.129728 -0.156295 -0.150361
-0.068034 0.0246453 -0.395107
-0.18283 -0.00496804 -0.0462291
-0.0815707 -0.108825 0.0593539
0 0 0
-0.144656 -0.0241024 0.00337867
0.0018153 -0.101827 0.00120588
-0.145083 0.0835186 0.175479
0 0 0
0.519092 -0.231392 -0.0599852
0.195591 0.0688481 0.0653086
0 0 0
-0.0982346 -0.0661579 -0.300387
-0.0705286 -0.00263484 0.100458
-0.131327 0.525402 0.139793
0.000519521 0.142079 0.246013
0.112182 0.199307 0.34731
0.167591 -0.1325 0.069316
-0.0104768 0.112847 0.106246
0.111497 0.00319843 0.092333
0.6211 0.0841996 0.113648
0 0 0
-0.0227297 0.0374331 0.000136015
-0.0014131 -0.00982892 3.80871e-05
-0.00183361 -0.0213876 -0.00012412
-0.237994 0.442988 0.272257
-0.475791 0.232235 -0.0575316
-0.00295357 0.00889935 0.193338
-0.085574 -0.0908917 -0.186448
0 0 0
-0.171768 0.0410509 0.418614
-0.00085107 -0.12312 -0.0692873
0 0 0
0.0608588 0.0328624 -0.22274
0 0 0
0 0 0
-0.0298444 0.0776738 -0.0608944
-0.229865 -0.225681 0.00766593
-0.0470979 -0.0898841 -0.0122902
0.1354 -0.0713686 0.0341529
0.176785 -0.192446 0.0484408
0.104262 0.0466831 0.185031
0.000508576 -0.0874367 -0.0112357
0 0 0
0.00887753 0.0997076 -0.139995
-0.52069 -0.0745546 0.389027
-0.388663 0.211561 0.111385
-0.000251228 0.286867 0.0358002
0.209328 -0.262022 0.246596
0.0296132 0.107664 0.00531824
-0.139193 -0.2334 -0.394958
-0.226117 0.13942 0.0972558
-0.0649357 0.163276 -0.160254
0.0642057 -0.170626 -0.0496811
0.00125532 0.143334 0.175977
0.0063275 -0.0149637 -0.0601056
0.0462102 0.241266 -0.0208753
-0.0167135 0.232278 0.422719
0 0 0
0.290464 0.0548996 0.152448
0 0 0
-0.138397 0.110662 0.0438283
-0.0978399 -0.180897 -0.115786
-0.148074 0.0956951 0.131819
0 0 0
0 0 0
0.0605766 -0.0511867 0.0585203
0.503052 -0.305154 0.067741
-0.0222256 0.0160002 0.175742
-0.0941523 0.14654 0.112951
-0.0481339 0.119507 0.175533
-0.0244182 -0.109609 -0.0328626
0 0 0
0.0247377 -0.306454 -0.141651
0 0 0
0 0 0
0 0 0
0 0 0
0 0 0
0 0 0
0.135469 -0.669269 0.213089
0 0 0
0.0130407 0.00518268 0.121793
-0.103414 -0.161192 -0.000379082
0.0326932 0.0542576 -0.0130854
0.491711 -0.08547 -0.0934655
0.399171 -0.0314241 0.00250376
0 0 0
-0.0513966 0.0458679 -0.0361883
-0.46176 0.294114 -0.217171
0.185966 -0.131595 0.286383
0.0696336 0.169509 -0.202749
0 0 0
-0.150565 0.688253 0.131331
0.00757483 0.262223 -0.0372627
0.335687 0.0108863 -0.0182865
0.00308003 -0.458329 0.0719084
-0.0475052 0.23166 -0.201884
-0.228571 0.214215 -0.0169031
-0.319242 -0.198201 0.167774
-0.117278 0.0154188 -0.00296137
0 0 0
-0.156715 -0.504692 0.000907934
-0.00595189 0.0845218 0.0609938
0.188166 -0.124359 0.453594
0 0 0
-0.134815 -0.0512073 -0.144457
-0.156813 0.00138405 -0.103454
-0.00944681 0.0670197 -0.170411
0 0 0
-0.0209158 -0.0233831 0.068555
-0.0355598 0.0767766 0.196391
-0.434518 -0.112056 0.352531
-0.124134 -0.0151696 -0.31588
0.112525 -0.160318 0.0423762
0.00850461 0.0676433 -0.415475
-0.121079 -0.00118357 0.00228498
0.0496396 -0.297126 0.21133
0 0 0
-0.134269 0.0836822 -0.0745513
-0.134702 -0.0394665 0.174986
0 0 0
0 0 0
0.165421 0.219298 0.401742
0.439795 -0.12695 0.0905446
0.128449 -0.0680463 0.155566
0.311556 0.0482857 -0.414184
0 0 0
0.514043 -0.550332 -0.329008
0.2502 -0.127573 -0.0368275
0.283107 -0.0580311 -0.144855
0.202898 0.0608922 0.156123
0.0388351 -0.116087 0.0615901
0.190957 0.000789949 0.170097
0 0 0
-0.18072 -0.20991 -0.0783035
0.0890166 -0.0540844 -0.104
0 0 0
0 0 0
0 0 0
0 0 0
0 0 0
0 0 0
0 0 0
0 0 0
0 0 0
0 0 0
0 0 0
0 0 0
0 0 0
0 0 0
0 0 0
0 0 0
0 0 0
0 0 0
0 0 0
0 0 0
0 0 0
0 0 0
0 0 0
0 0 0
0 0 0
0 0 0
0 0 0
0 0 0
0 0 0
0 0 0
0 0 0
0 0 0
0 0 0
0 0 0
0 0 0
0 0 0
0 0 0
0 0 0
0 0 0
0 0 0
0 0 0
0 0 0
0 0 0
0 0 0
0 0 0
0 0 0
0 0 0
0 0 0
0 0 0
0 0 0
0 0 0
0 0 0
0 0 0
0 0 0
0 0 0
0 0 0
0 0 0
0 0 0
0 0 0
0 0 0
0 0 0
0 0 0
0 0 0
0 0 0
-0.00515955 0.0645135 0.122437
-0.14802 -0.112064 -0.137401
0 0 0
-0.058109 0.0232655 -0.0646724
-0.0228823 -0.0459681 0.0845086
0 0 0
0.0429897 -0.122783 -0.0218407
0.0553768 0.00877031 0.00589518
0.00329209 0.0582923 0.141394
-0.233421 -0.173129 -0.117546
-0.0032356 -0.0186806 -0.011007
0.0594223 -0.0476452 -0.0404127
0.132547 -0.0038414 0.112106
0 0 0
-0.0193597 0.120539 -0.0030772
-0.0732592 0.0406235 -0.10961
-0.0306696 -0.0832394 0.0366828
0.0773453 0.00671712 -0.0827297
0 0 0
0.0494205 0.0998057 -0.0740026
-0.0292092 -0.0323602 -0.0142283
-0.0063594 -0.00256739 -0.0309525
-0.026749 0.0801275 0.0336143
-0.0745614 -0.0496104 0.133657
-0.0941081 0.187181 0.00679131
0.00128495 -0.00700225 -0.0351443
0 0 0
0.107353 -0.0177874 0.0875431
0.142452 0.00435176 -0.085209
-0.000621496 0.0107839 0.00382214
0.0525054 0.013331 0.000100882
0.0726694 0.0621729 -0.131777
0 0 0
0.00709812 -0.0577756 0.0609588
0 0 0
-0.00426599 0.0164376 -0.0660434
-0.0820293 -0.00266921 0.140308
0 0 0
0.0868402 -0.00213842 -0.0717598
0.0212289 -0.116338 0.0323815
0.0379977 0.0115665 -0.0414849
0.185953 0.00870625 0.0125383
0 0 0
-0.0588545 0.00157504 -0.0595726
0.0492033 -0.00432091 0.0327157
0 0 0
0.0970565 0.00498965 0.0482903
0.0196566 0.0171673 -0.0164823
0.0318021 -0.0208513 -0.0463843
0.00321938 -0.00694015 0.0218824
0 0 0
0.0612144 0.0232745 -0.0523705
-0.060457 -0.0134093 -0.0870722
0.00354461 0.0230255 0.100576
-0.0449639 0.0110559 -0.111979
0.000234995 0.174006 -0.135663
0.0254689 -0.186344 0.185302
-0.00347343 -0.00168481 0.0455297
-0.00121899 0.0533165 0.168542
-0.153288 -0.0225145 -0.0541226
-0.115102 -0.0196093 0.0945037
0 0 0
0.017066 -0.0396511 -0.0112437
-0.0276922 -0.00178669 -0.0391875
0.297568 0.0940223 0.232734
0.023681 0.0595828 0.157331
0.0778509 0.0901262 -0.0552043
-0.0549064 0.169866 -0.0690218
-0.139793 0.068211 0.190065
0 0 0
-0.24235 -0.302583 0.104106
0.0139426 -0.159148 0.0627197
0.127324 -0.0331454 -0.168223
0.148192 -0.118076 0.160607
-0.00163541 0.115115 -0.100402
0.0869862 -0.123281 0.121404
-0.100637 -0.0833816 -0.0517274
0 0 0
0.090298 0.0299189 -0.280578
0.0563992 -0.00339275 0.0516726
0.0688834 0.294755 -0.246685
0.17913 0.0849239 -0.0656699
-0.00161586 -0.0172561 -0.00337977
0.00891082 -0.152968 0.0701839
-0.210592 0.142157 -0.271416
0 0 0
-0.162545 -0.268371 -0.0766811
-0.0746668 0.0384158 -0.045755
-0.0407751 0.0129886 0.126031
0.220994 0.00582618 0.0956228
0.02799 0.0976507 0.103443
0.0754844 0.0776195 0.0933083
-0.150805 -0.073368 0.0499622
-0.164759 0.225827 -0.0361234
0 0 0
0.145592 -0.0859423 -0.0254693
0.00510302 -0.535615 0.128632
-0.225178 0.0393281 -0.0385113
-0.179249 -0.219752 -0.106823
0 0 0
-0.120959 -0.135923 -0.0881814
-0.0828057 -0.056144 0.198462
4.75465e-05 0.159133 0.0709111
-0.00139825 -0.0994887 0.0294018
-0.0124583 -0.15267 0.206324
0.00152134 -0.00934603 -0.0328051
-0.257603 -0.0473124 -0.000781582
0 0 0
0.245159 0.0617227 0.145751
0.0781559 -0.0360388 -0.24148
-0.0421917 0.0360019 -0.033676
0 0 0
0 0 0
0.481724 0.459551 -0.348331
0.0843582 -0.144961 0.340712
0.244766 0.419676 -0.163596
-0.0152883 0.102948 0.0927248
-0.0245014 0.24991 -0.179082
0.0743385 0.154727 -0.0173478
0.0507434 0.0995848 -0.239578
-0.000588498 -0.292584 0.0537994
0.0521594 -0.216128 0.357529
0.0425575 0.226195 -0.00524875
-0.0387385 -0.112161 -0.00446973
0.282512 0.425379 -0.1664
0 0 0
0.1397 -0.136052 -0.105467
0 0 0
0 0 0
0 0 0
-0.396798 0.0907166 -0.209119
0.0946757 -0.0991543 0.103919
0.00095205 -0.116499 -0.0210142
0 0 0
-0.108098 -0.153774 -0.0295987
0.00160597 -0.094566 0.0682008
-0.201556 0.0532471 0.0974364
-0.202717 -0.138989 -0.0485572
-0.339417 -0.113718 -0.182597
-0.0197338 0.0420025 0.0749472
-0.708311 0.00418049 -0.379209
-0.0281461 0.140755 -0.00457261
-0.33883 0.0147475 -0.318397
0 0 0
-0.0770521 -0.0811401 0.427484
-0.0778434 0.0523713 0.00575236
-0.0878395 0.403464 -0.0324361
0.234381 0.549174 0.210029
0.337419 0.206044 0.179408
0.0745683 0.334832 0.306681
0.162908 -0.0217388 0.0568141
0.0223656 0.122573 -0.0220153
-0.209826 -0.0263403 0.0416002
-0.12408 0.0987962 -0.0283897
-0.18908 0.052435 0.100974
-0.000286584 0.00656237 0.0280937
-0.0845653 -0.0349292 0.00172755
0 0 0
-0.220145 -0.207165 0.260409
0 0 0
9.90713e-05 0.00623808 0.00594115
0.403939 -0.219119 0.161139
0.319031 -0.0505413 0.257794
0 0 0
-0.0137061 -0.0753578 0.0956349
-0.135963 -0.162793 -0.121614
-0.0576402 -0.0892493 -0.0744488
-0.0599916 -0.0103773 0.0898188
0 0 0
0.103799 0.107972 -0.0252885
-0.0350432 -0.0232651 -0.021653
-0.04584 -0.065791 0.0384835
-0.000303945 0.0587574 0.0984921
0 0 0
-0.0342467 0.404082 -0.187672
0 0 0
-0.0629911 0.529047 -0.333126
0 0 0
-0.146916 -0.043972 0.232495
0 0 0
0.156118 0.0855687 0.124433
0.520285 0.1044 -0.25969
0.046298 0.328359 0.0950929
0 0 0
0.0429201 0.431866 -0.0016457
0.05833 0.00365341 -0.110585
0 0 0