<?xml version="1.0"?>
<VTKFile type="RectilinearGrid">
<RectilinearGrid WholeExtent="0 32 0 32 0 32" Origin="0 0 0" Spacing="1 1 1">
<Piece Extent="0 32 0 32 0 32">
<PointData>
</PointData>
<Coordinates>
<DataArray type="Float32" format="ascii">
0 0.524874 1.04975 1.57462 2.0995 2.62437 3.14924 3.67412 4.19899 4.72386 5.24874 5.77361 6.29849 6.82336 7.34823 7.87311 8.39798 8.92285 9.44773 9.9726 10.4975 11.0224 11.5472 12.0721 12.597 13.1218 13.6467 14.1716 14.6965 15.2213 15.7462 16.2711 16.796 
</DataArray>
<DataArray type="Float32" format="ascii">
-5.03879 -3.62163 -2.20447 -0.787311 0.629849 2.04701 3.46417 4.88133 6.29849 7.71565 9.1328 10.55 11.9671 13.3843 14.8014 16.2186 17.6358 19.0529 20.4701 21.8872 23.3044 24.7216 26.1387 27.5559 28.973 30.3902 31.8074 33.2245 34.6417 36.0588 37.476 38.8931 40.3103 
</DataArray>
<DataArray type="Float32" format="ascii">
0 0.524874 1.04975 1.57462 2.0995 2.62437 3.14924 3.67412 4.19899 4.72386 5.24874 5.77361 6.29849 6.82336 7.34823 7.87311 8.39798 8.92285 9.44773 9.9726 10.4975 11.0224 11.5472 12.0721 12.597 13.1218 13.6467 14.1716 14.6965 15.2213 15.7462 16.2711 16.796 
</DataArray>
</Coordinates>
<CellData>
<DataArray type="Float32" Name="Vector" NumberOfComponents="3" format="ascii">
0 0 0
0 0 0
0 0 0
0 0 0
0 0 0
0 0 0
0 0 0
0 0 0
0 0 0
0 0 0
0 0 0
0 0 0
0 0 0
0 0 0
0 0 0
0 0 0
0 0 0
0 0 0
0 0 0
0 0 0
0 0 0
0 0 0
0 0 0
0 0 0
0 0 0
0 0 0
0 0 0
0 0 0
0 0 0
0 0 0
0 0 0
0 0 0
0 0 0
0 0 0
0 0 0
0 0 0
0 0 0
0 0 0
0 0 0
0 0 0
0 0 0
0 0 0
0 0 0
0 0 0
0 0 0
0 0 0
0 0 0
0 0 0
0 0 0
0 0 0
0 0 0
0 0 0
0 0 0
0 0 0
0 0 0
0 0 0
0 0 0
0 0 0
0 0 0
0 0 0
0 0 0
0 0 0
0 0 0
0 0 0
-0.0167907 0.247743 -0.00693698
-0.0729098 -0.00691937 -0.0162491
0 0 0
0.00261358 0.125547 -0.0011702
0.0530612 -0.00328184 0.0129784
0.000291565 -0.0364729 0.00814398
-0.252238 -0.0587264 0.0379613
-0.167526 0.042918 -0.0282367
-0.0158502 0.0106184 -0.00665423
0.118542 -0.0265052 0.0292688
0 0 0
0.168507 -0.0614668 0.0338835
0.0895566 -0.103311 0.0503019
0 0 0
0.175365 -0.0599099 -0.105814
-0.228239 -0.0105292 -0.00155973
-0.0513149 0.00905512 0.0361266
0.0640491 -0.110048 0.0455003
0 0 0
0.0552636 -0.00328622 0.13955
0.00617043 0.211098 0.0597962
0 0 0
-0.000551782 -0.0541936 0.190021
-0.0619061 0.00494142 -0.0724838
-0.0905665 0.233034 0.117713
0.000154565 -0.0640671 -0.098521
0 0 0
-0.0867418 0.0793391 0.0553182
0.0405708 0.060716 -0.0454823
0 0 0
0.144255 -0.0830947 0.0165984
0.0158582 0.227295 -0.00121062
-0.112176 0.00900759 0.127546
-0.0666714 -0.00138491 0.0575912
0 0 0
0.141903 -0.117851 -0.0019592
-0.0501239 0.0916556 -0.0151871
0 0 0
0.457767 -0.00456813 -0.00532446
0 0 0
0.00735525 -0.04393 -0.00182297
0.161048 -0.0649606 -0.0038691
0 0 0
-0.02857 -0.0105002 -0.0104356
0.326661 0.12823 0.0350892
-0.00289883 0.0556635 -0.0288023
-0.206388 0.045602 0.178624
-0.0486109 0.0530373 -0.00858804
-0.0660034 -0.228904 0.0216809
-0.0288159 -0.0480545 -0.0155743
0 0 0
0.0526825 0.198589 -0.0599519
-0.155435 0.0343351 -0.0260177
0 0 0
0.0323071 -0.112308 0.00804314
0.00662578 -0.0168977 0.0030418
-0.0294538 0.100311 0.0321182
-0.079759 -0.114428 -0.000962432
0 0 0
-0.00692395 0.0913071 -0.0620207
-0.232385 0.201562 0.0760707
0 0 0
0.0397232 -0.0275289 0.014139
-0.20822 0.177185 -0.172829
0 0 0
-0.16148 -0.268307 -0.217835
0 0 0
-0.119536 -0.132146 -0.229387
0.0321114 -0.0119215 0.202924
-0.165711 0.0562073 -0.094516
0 0 0
-0.232854 -0.0414819 0.137139
-0.196476 0.151223 -0.292868
-0.146083 0.00839219 0.0733273
-0.13337 -0.359634 -0.0655404
0.0993291 0.108189 -0.0687246
0 0 0
0.259637 0.031452 0.245375
0.0382608 -0.274706 -0.485067
0 0 0
-0.0776484 -0.0980086 -0.0165357
0.00732423 -0.189528 0.00269073
0 0 0
0 0 0
-0.0638814 0.0732702 0.000880507
-0.126778 -0.324314 0.0960396
0 0 0
-0.126005 -0.041478 -0.091345
-0.0100626 0.115601 0.0881891
-0.0424866 0.146129 0.00314247
-0.00252383 0.0497781 0.0707403
-0.07554 -0.354812 -0.208053
0 0 0
0 0 0
0.0953776 -0.0815881 -0.144071
0.0787006 -0.259416 0.261496
0.182168 0.139106 -0.110745
0.245062 -0.0159331 -0.188737
0.276301 0.0601048 0.181825
0 0 0
-0.156577 -0.11366 -0.116934
0.115731 0.0349525 0.0506674
0.172436 0.0234976 0.317594
-0.0475512 0.252718 -0.0818729
0.0633118 -0.133137 0.0618552
0 0 0
0.427248 -0.39933 -0.0290732
0.142441 -0.116008 0.135812
0.134314 0.10688 -0.00143997
0 0 0
0.0102417 -0.070153 0.0034839
0 0 0
0.258579 -0.028723 0.105579
0.00162729 -0.0062571 0.0120283
0.0608038 -0.204838 0.0292361
0 0 0
0 0 0
-0.0476252 -0.272488 0.128139
-0.0163202 0.0104226 -0.0247333
-0.0427441 0.00792389 -0.0034697
-0.150616 0.279601 0.61678
-0.0114591 0.00842365 0.00905078
-0.208273 0.25193 0.0861539
-0.016001 -0.0294948 0.0597883
0.149078 0.638514 0.120699
0 0 0
-0.17523 -0.0296453 -0.255311
0 0 0
-0.274802 -0.0267043 -0.0511159
0 0 0
-0.424433 0.121363 0.0331169
0 0 0
0.155481 -0.228435 0.231268
0 0 0
-0.0724643 0.22321 0.167575
0 0 0
0 0 0
0.049301 0.00794988 -0.027261
0.00394622 0.0343725 0.0274962
0.10087 0.0602172 0.0626863
0 0 0
0.0149047 -0.393923 0.00170383
0 0 0
0.409792 0.177171 0.0350656
0.28088 -0.117406 0.0839714
-0.00185518 -0.00355837 0.00729634
-0.0704725 -0.099865 0.0515465
-0.211592 0.219123 -0.0802744
0 0 0
-0.470381 0.496315 0.514105
-0.181858 0.35557 0.0726422
-0.0733017 0.166883 -0.10335
-0.00079564 0.00708074 -0.0457844
0.0769193 0.0167231 0.000400282
0 0 0
0.0314994 0.354058 0.226238
0.0807312 -0.0231397 0.0214446
0.0188412 -0.0786762 -0.0203074
0.0859265 0.260724 0.141838
0 0 0
-0.00531149 0.0455995 0.0682484
0 0 0
-0.326002 -0.153742 0.278228
-0.0687881 -0.233425 0.332145
-0.00127834 -0.0435162 0.023434
0 0 0
0.00240112 0.107762 0.381861
0.161267 -0.000712359 0.186603
-0.056053 0.226525 -0.00318048
0.0670283 -0.0793566 0.096107
0 0 0
-0.0322609 0.214818 0.194581
8.84831e-05 -0.0230092 0.170526
0.213991 0.308225 -0.153019
-0.134697 0.0330292 -0.00895194
0 0 0
-0.0508398 -0.208151 -0.0696026
0 0 0
-0.0523987 0.00322411 -0.026822
-0.230738 -0.088786 -0.188252
-0.0620278 0.00595751 -0.0700241
-0.250981 0.300385 -0.456935
0 0 0
0.00232727 0.00102877 0.0051238
0 0 0
-0.269712 0.368228 0.0109617
-0.485185 0.163412 -0.175259
0 0 0
-0.189031 0.0421193 0.417602
0 0 0
0.422737 0.413387 -0.355181
0 0 0
-0.00643569 0.0136552 0.0047102
0.00402282 0.00584723 0.0165776
0 0 0
0 0 0
0 0 0
-0.0382992 0.0688668 -0.0681242
0 0 0
0.215908 -0.000779854 -0.106778
0 0 0
-0.0105406 -0.167298 -0.217969
0.0675861 0.0158204 0.498629
0.0918842 0.427207 0.00582728
0.00127239 0.140224 0.0666225
0.0818851 0.537784 0.00909368
0 0 0
-0.0816735 0.00271451 -0.0325932
0 0 0
-0.450041 0.0740182 -0.0124222
-0.0175718 0.00188283 0.00260295
0 0 0
0.0740835 0.105465 -0.00127811
0.0799236 0.265244 0.11322
-0.00147 -0.152702 -0.171683
0.0508117 -0.0873667 -0.00150078
0.000121849 0.0342661 -0.104355
0.013336 0.0419018 -0.0172295
0 0 0
0.109939 0.178391 -0.157217
0.258586 0.154686 -0.167628
0 0 0
-0.00264024 0.120609 -0.0442248
0.0310677 -0.0666683 -0.18835
0.0176208 0.0236333 0.026339
0.296093 0.00912088 0.00908035
0.0245032 -0.0602039 0.00104555
0 0 0
-0.0650221 -0.281958 0.0360809
0 0 0
0 0 0
-0.110422 -0.128327 0.00167424
0.277734 -0.0215828 0.288184
0 0 0
0 0 0
-0.0250794 -0.0371135 0.0865035
-0.0355866 0.0688391 -0.0545135
-0.019197 -0.0263776 -0.00230675
-0.00356526 0.00383638 -0.00580231
-0.0107986 0.0296656 -0.0359602
0.0908732 0.356749 0.247494
0 0 0
0.229896 0.140737 0.00603794
0.130683 0.303918 -0.107786
-0.0740261 0.0198566 -0.0603906
0 0 0
-0.0620056 0.281972 -0.0532415
-0.0480775 0.0837733 -0.0231059
0 0 0
0 0 0
0.0979704 -0.0439911 0.0392158
0.0243849 -0.000384168 0.0359744
0.004054 -0.00700463 -0.00294602
0.075657 -0.154653 -0.0706416
0 0 0
0.218696 0.21473 0.214039
-0.135913 -0.252578 -0.318761
0 0 0
-0.00275045 0.0134787 -0.00996541
-0.456165 -0.342114 0.0720779
-0.193607 -0.0619199 -0.0127647
-0.275934 -0.539625 0.140341
-0.0303036 0.103381 0.00754367
0.15005 0.0356014 0.166488
0 0 0
0.106126 0.0234302 -0.0391088
0.0398362 0.0699166 0.0518838
0 0 0
0.0792572 0.112553 0.0330061
0.105459 0.0941809 -0.0754088
0 0 0
-0.109248 0.0876222 -0.0339459
-0.0274989 0.165229 -0.0442174
0 0 0
0 0 0
-0.0883842 0.175449 0.120395
-0.122258 0.0494146 0.182938
0 0 0
0.0291668 0.0599246 -0.184239
0.213327 -0.18641 -0.285436
0 0 0
-0.0973328 0.00710237 -0.136474
-0.185765 -0.00608073 0.0699948
0.0113164 -0.0589884 0.00153076
0 0 0
0 0 0
0.161303 0.11595 -0.0587508
0.0586695 -0.103816 -0.281715
0.259655 0.010267 -0.00145379
-0.0165862 0.110877 0.0455622
0 0 0
-0.00977874 -0.371382 0.0267327
-0.0410877 -0.0256619 -0.0545717
-0.00100711 0.175155 0.234243
0 0 0
-0.0468933 -0.0126676 -0.000563426
-0.0415904 -0.292051 0.119923
-0.210264 -0.0582355 -0.00605672
0.0920829 0.112655 0.0516063
0.255855 0.294027 0.0275334
0 0 0
-0.124088 -0.0575936 0.0939885
-0.119017 0.00323076 0.026661
-0.0145401 0.0300075 0.0104284
-0.00955117 -0.0446033 -0.0794106
0 0 0
0 0 0
0.0666918 0.11137 0.0139394
0.163501 0.144575 -0.00963409
0 0 0
0 0 0
-0.00799939 -0.0055693 -0.0284603
0 0 0
0 0 0
0 0 0
0.334638 0.0771799 -0.365914
0.26885 -0.109907 -0.329578
0 0 0
0 0 0
-0.0168137 0.00221129 -0.0370674
0 0 0
-0.215711 -0.0412827 -0.0610017
0.0022014 -0.0571943 0.266148
0 0 0
-0.0249717 -0.0692897 0.11121
-0.124528 -0.0201377 -0.217246
0 0 0
0.0605353 -0.0542492 -0.0573645
0 0 0
0.0454102 -0.225178 0.0876813
0 0 0
0.169974 -0.00150222 -0.234019
-0.00151105 0.0219529 0.062024
0 0 0
-0.258573 0.180183 -0.217247
0 0 0
0 0 0
0 0 0
0.410337 0.128759 0.0021394
0.0016693 0.0210064 -0.0312934
0 0 0
0 0 0
0.205984 -0.287777 -0.0135372
0.0528337 0.00581933 -0.0778215
0.0461397 0.000592295 0.0408782
0.416296 0.142955 0.135086
-0.142829 -0.0175664 0.107114
0 0 0
0.112968 0.148465 -0.0286164
0 0 0
0.281348 -0.0399894 -0.253768
0.0256356 -0.080005 0.0126003
0 0 0
-0.0282832 -0.011121 -0.00142196
0 0 0
0 0 0
0.018235 -0.0592346 -0.0713597
0 0 0
-0.0912769 -0.165804 0.42983
-0.0729106 0.00281481 0.0117043
-0.194541 -0.157174 -0.186394
0 0 0
0.0256805 -0.138702 -0.24934
-0.186529 -0.127928 -0.0501306
0.0630339 0.0425167 -0.127985
0.150918 -0.074304 0.000427589
0 0 0
0.0681675 0.115072 -0.0240289
0 0 0
0.246421 -0.185216 -0.388647
-0.0829709 -0.103974 -0.102409
-0.00234765 -0.0416734 -0.157186
-0.0256365 -0.0461547 0.000331969
0 0 0
-0.19147 -0.17741 0.206287
0.0234554 -0.0805589 -0.0107935
0.165544 -0.0747356 -0.0141277
0 0 0
0 0 0
0.0564726 0.112623 0.387414
0 0 0
-0.0893123 0.0376672 -0.121446
0 0 0
-0.183229 -0.5439 0.350938
0 0 0
0 0 0
-0.456942 0.127875 -0.116539
-0.0209257 0.174626 -0.164181
-0.491936 -0.420387 0.454161
0 0 0
0.0598891 -0.088311 0.422746
0 0 0
-0.0226069 -0.00225549 0.0543245
-0.0820892 0.194088 -0.0395236
0 0 0
-0.101761 -0.160615 0.234963
0.104963 -0.163843 -0.341143
-0.00153034 -0.0160934 0.000238018
-0.023553 0.0850742 -0.052469
-0.0825737 -0.00536608 0.0508249
-0.0604065 0.0490145 -0.0333118
0 0 0
-0.0548289 -0.331604 0.0939337
0 0 0
0.0134398 0.0278256 0.0923503
0 0 0
-0.0579574 -0.105698 0.172537
0 0 0
-0.417669 -0.289498 -0.138135
0.000515613 -0.106077 0.115162
0 0 0
0 0 0
0 0 0
0 0 0
-0.258578 0.160792 -0.0912749
0.192862 -0.0358997 -0.404756
0.110635 -0.0716838 -0.0996821
0.0707806 0.192931 -0.00859635
0.0721632 0.174921 0.0739158
-0.000850185 0.0611129 -0.0619385
-0.0489178 0.00811521 -0.0204832
-0.128904 0.00290945 0.00625723
0 0 0
-0.168701 0.394767 -0.192033
-0.32041 0.155118 0.0811279
-0.228258 0.215205 -0.0473229
0.0244052 -0.108996 -0.000275259
-0.10011 -0.187561 0.0194145
-0.0953362 -0.437528 0.280664
0 0 0
0.1053 0.0887423 0.176156
-0.30193 0.575383 0.1697
0 0 0
-0.426189 -0.0857365 0.00759146
-0.0188974 -0.0384688 -0.0980776
0 0 0
0.0930043 0.195516 0.224258
0.0258731 0.093112 0.00978314
-0.0806156 -0.0200009 0.0398255
0.0317194 0.0327353 0.0310285
0 0 0
0.0240401 0.302089 -0.263172
-0.118158 0.0639614 0.057405
-0.0237676 0.0896903 0.0865066
0.147677 -0.0241092 0.237057
0.466521 0.0367295 0.0190844
0.0538032 0.0133032 -0.0587237
0 0 0
-0.141291 0.147129 -0.0959265
0.0148993 -0.119655 0.154887
0.151567 0.29247 -0.0861819
0 0 0
-0.421126 0.403894 0.0612536
0.0452539 -0.0596403 -0.0128024
0.0865379 0.0792367 0.0198496
-0.00599733 0.0097342 -0.00277828
0 0 0
0.188066 -0.016844 0.104718
0.0401605 -0.0961748 0.0306038
0.305215 -0.0172503 0.188548
0.259208 -0.0772944 -0.237761
-0.0692694 0.00645235 0.000153589
-0.00171314 0.0166007 -0.065025
-0.0493373 -0.0948173 0.0622406
-0.0339855 -0.16743 0.00191878
0 0 0
0 0 0
0.162888 0.0906454 0.11531
0.0712129 0.13309 0.0859771
0.209355 -0.0327122 -0.00534846
-0.000330467 0.302303 -0.188061
0.00068473 0.018485 0.0243927
-0.061726 0.196155 -0.116755
-0.305936 0.378241 0.0314896
0.14029 -0.161365 -0.132813
-0.0468556 0.00191592 0.0836771
-0.00752644 0.076169 0.00228848
0 0 0
-0.0414623 0.00102469 0.0992881
-0.022157 -0.00976883 -0.059912
-0.00419489 0.178729 -0.0380366
-0.0614342 -0.0516758 0.178385
-0.355625 -0.121566 -0.123246
-0.0194374 0.0657384 -0.065037
0 0 0
-0.0187482 -0.0278802 -0.0225371
-0.017671 0.238704 -0.0894776
-0.00309913 0.475645 -0.134494
0.275288 -0.243823 -0.112989
0.0182052 -0.0146929 -0.0220844
0.00696116 0.416804 -0.0335566
0.00334746 0.183076 -0.157662
-0.0858368 -0.0227756 -0.110088
0.0431026 0.121466 0.066413
0.131416 -0.0947564 -0.103615
0 0 0
-0.116398 0.218538 0.0607467
-0.0920871 -0.000268593 -0.0406278
-0.0222979 -0.0432285 0.0247126
-0.03405 -0.111828 0.0898928
0 0 0
-0.0193619 0.00904577 0.33713
0.111767 -0.0228646 -0.0623483
0.298422 0.781038 -0.332465
0 0 0
-0.00480267 -0.0167342 -0.249053
0.052542 -0.305499 -0.298117
-0.000587193 0.13477 0.318013
0 0 0
-0.071166 -0.124195 0.14261
0.0206103 0.0733864 0.0601481
-0.268093 -0.179921 -0.177946
0 0 0
0 0 0
0.253639 0.542687 0.00974614
0.0104333 0.00541197 0.00928054
0.274417 -0.117692 -0.114833
0 0 0
0 0 0
-0.0331064 -0.0673793 0.0809519
-0.108807 -0.175844 -0.227221
0.0345157 -0.0181746 -0.168438
-0.0888777 0.0824228 0.172462
-0.140066 0.138442 -0.29306
-0.213801 -0.0199718 0.00655432
0.000782598 0.0150192 -0.00214145
0.0120096 0.329467 0.0284776
0 0 0
0 0 0
-0.0548078 -0.0500358 0.00341965
-0.00392861 0.0010845 0.258501
-0.0730287 -0.0798798 0.0197775
0 0 0
0.0590764 0.0648661 -0.00104779
0 0 0
0.0096356 0.1498 -0.390805
-0.188953 0.191599 0.294479
0 0 0
0.219047 0.158648 -0.244071
0.442016 -0.178789 -0.244031
0.521413 0.0799187 0.119842
0.148728 -0.160951 0.00254721
0.145832 0.0268982 -0.135106
0.220931 0.00436503 -0.0819512
-0.0791861 0.204941 -0.144092
-0.00704072 0.00675793 -0.00609571
-0.114618 0.815969 -0.28065
0 0 0
-0.0144856 0.240933 -0.152129
0.0884245 0.100574 0.176688
0.000339777 0.0206709 -0.026172
-0.410852 -0.359733 0.0112399
-0.000900226 0.0144443 0.0426233
0.00934536 -0.00360797 -0.0285356
0.455589 0.131291 0.131009
-0.00272342 0.0586071 0.0867964
-0.166516 -0.239569 0.219932
0 0 0
-0.320173 0.226135 0.149338
0 0 0
-0.100692 0.0915631 0.168455
0 0 0
-0.0710022 -0.100341 0.020727
-0.00907873 -0.0884271 -0.0641572
0 0 0
-0.132104 0.101949 0.199878
0 0 0
-0.262207 0.324469 -0.305901
0.0306336 0.0831342 0.00055585
0 0 0
-0.00874271 -0.215797 0.0193966
0.145974 -0.215373 0.118237
-0.108294 0.164806 0.342919
0.146709 0.213307 0.0708797
-0.00133497 0.0511489 -0.15535
0.0253647 -0.000728211 -0.130826
0 0 0
0.00452462 0.00351457 -0.00855449
0.186553 -0.00483158 0.0617797
0.0959659 0.335009 0.158507
0 0 0
0 0 0
0.123933 0.382586 0.132742
0 0 0
0 0 0
0.00278408 0.000173279 -0.00801817
-0.179688 0.124631 0.138527
-0.0102083 -0.00348335 -0.00855577
-0.289985 -0.00172544 -0.253527
-0.00174418 0.0346176 0.0744606
0.244798 -0.186836 0.062836
0 0 0
-0.0257232 -0.0124993 0.00481718
-0.0823514 -0.170413 -0.096671
0 0 0
-0.000712925 0.0318446 -0.0442921
-0.00615978 0.240517 -0.200145
-0.232209 -0.252491 0.0601455
0.170154 0.0786893 0.0521443
0.20564 0.113796 0.0601333
0 0 0
-0.135376 0.00339094 0.0375551
0 0 0
-0.0580446 0.0100803 0.190714
0 0 0
-0.0520601 0.43671 0.315649
0 0 0
-0.0913629 0.0554177 -0.0403393
0 0 0
0.0950529 0.0955404 0.219786
0.320624 -0.113445 -0.120202
0.296793 -0.0993375 -0.353814
0 0 0
0.0186996 0.200649 -0.0866837
-0.23588 0.1743 0.0743303
0.179578 0.174822 -0.000343762
-0.130808 0.199525 0.0863304
0 0 0
0.0733318 -0.062248 -0.0044321
0.193993 0.132747 -0.127751
0 0 0
0.0501594 -0.0280188 -0.253999
-0.0952907 -0.211151 0.116301
0.126504 0.133879 0.00570327
-0.183549 -0.0613391 0.341027
-0.0943289 -0.167798 -0.0552565
0 0 0
0.15364 0.00464772 -0.000420624
0.121812 0.0966105 -0.0259957
-0.222769 -0.401468 0.0970301
-0.0412218 -0.350506 -0.288217
0.129581 -0.0155446 -0.351956
0.0240676 0.0473221 -0.169673
0.00536283 -0.000987524 -0.00789787
-0.000174987 -0.00509384 0.0347586
0.213346 0.116376 0.157848
0.0567592 0.00315462 0.000607256
0.0549634 0.0345859 0.0753497
0.531782 0.0126907 -0.11192
0.420708 0.370936 -0.0579488
0 0 0
0 0 0
0 0 0
-0.175366 0.105654 -0.290754
0.00148932 0.0429999 0.0722104
-0.272223 0.218657 -0.111102
0 0 0
-0.444033 0.0435925 0.0621842
-0.108417 0.00319199 0.283287
-0.145333 0.102632 0.103181
0 0 0
0.027085 0.0352913 0.11243
-0.0375986 0.00471631 -0.0830434
0.165374 0.0398347 -0.00917149
-0.106459 0.115549 -0.0622427
-0.0739318 0.258702 -0.00175105
0 0 0
0 0 0
0.462693 0.0199762 0.014254
0.000245479 -0.144662 -0.161894
0.0500217 -0.0895379 -0.00078811
0 0 0
0.164598 0.0500667 0.299957
0 0 0
-0.0849778 0.0726006 0.225534
0.0736586 -0.0961532 0.194059
0 0 0
0.10191 -0.22832 -0.0455487
0.0728265 -0.00794173 0.484282
-0.0277668 0.106415 -0.30629
0 0 0
-0.220173 0.125339 -0.28237
0.0601876 -0.0387142 -0.120667
0.342322 0.324609 -0.266186
0.0829494 0.0649725 0.0480019
0.311028 -0.138607 0.234909
0.0432921 0.0489901 0.0931617
0.169242 0.446466 -0.0812371
-0.072054 0.241921 0.215583
0.0110081 0.024969 -0.108083
-0.110513 -0.00881875 0.000813695
0.0545875 -0.00913796 0.0882311
-0.0234003 0.054475 -0.000394498
0.118915 0.139668 0.0165911
0.0732869 -0.0372259 -0.107418
-0.131275 -0.138023 0.00896312
-0.17616 -0.285623 0.119492
0 0 0
0 0 0
0.290223 -0.174358 -0.0673591
0.214306 0.0707303 0.0155461
-0.284015 0.150056 -0.194068
-0.527855 0.20563 -0.119822
-0.147982 0.0199584 0.202254
0.106835 0.116586 -0.220065
0.112202 0.401751 0.305648
-0.145072 -0.286923 0.136955
0 0 0
-0.000693877 -0.00624587 -0.0620673
0.0811056 -0.214331 0.201602
0.000749703 0.0633903 -0.210077
0.169354 -0.389165 -0.0642305
0.00241455 0.249103 -0.0536687
0.034832 0.248582 -0.0409697
-0.161154 -0.0623555 -0.0442678
-0.0715911 0.0703365 -0.010359
0.130026 -0.036046 -0.0691886
0.153043 -0.0635485 -0.19977
-0.000869422 0.0347347 -0.0959204
0.215704 0.355298 -0.22784
0.31567 0.227801 0.223816
0.344989 0.386081 -0.251898
0 0 0
-0.0337329 0.0564934 0.303304
0 0 0
-0.221767 -0.0846397 -0.224136
0.00203395 -0.222383 -0.0712485
0.211743 -0.222904 -0.251015
0.0962688 -0.26967 0.0148389
0.0170822 -0.00128667 -0.030356
0.00232264 0.0003543 -0.00654869
-0.0298929 0.133264 0.0372331
0.039773 0.0625377 -0.0357461
0.587402 0.512792 0.29061
0 0 0
0.045707 -0.123561 -0.0306647
0.0195152 0.00866715 0.0137308
-0.18729 0.228133 0.212625
-0.0150648 0.00573777 -0.00790007
0 0 0
0.173999 -0.0298964 -0.126666
0 0 0
0.600308 -0.60915 -0.258002
0.104435 -0.129015 0.186809
0.0010044 -0.00198422 0.0162163
0 0 0
-0.157197 -0.157813 -0.000859484
-0.129659 0.0914985 -0.00817846
-0.31822 -0.00702332 0.418576
-0.229666 0.0775475 0.0127032
-0.0514 0.108091 -0.16095
-0.226623 0.198709 0.346973
0 0 0
0.074302 0.311432 0.124506
0.000600172 0.0115511 -0.0303579
0.197471 0.233851 -0.144524
0 0 0
-0.176758 -0.343492 0.261538
0.071697 -0.256929 -0.312299
0.00194496 -0.0593085 -0.0583257
0 0 0
0.0194989 -0.0537676 0.0888559
0.16448 -0.0935561 0.120527
0.131723 -0.199837 0.0834061
0 0 0
-0.0691286 0.0452246 -0.060392
0 0 0
0.189493 -0.179232 0.252182
-0.0177582 0.0109305 0.00742056
0.164996 0.192294 -0.0510698
0.0849992 0.0947729 0.0293146
0.128272 -0.223045 -0.102538
0.0458496 -0.178334 -0.286968
0 0 0
-0.0540421 -0.62719 -0.746958
-0.0040979 -0.0309195 -0.0102399
0 0 0
0 0 0
0.0106633 0.0142581 0.0300617
0 0 0
-0.0256898 0.00211444 -0.0409428
0 0 0
-0.0566204 0.108073 -0.0110841
0 0 0
-0.0988757 0.72412 -0.0491655
-0.209437 0.501998 -0.301652
0.033545 0.205159 -0.0906035
0.00172014 0.294195 0.0570251
0.104331 0.0970791 0.0719834
-0.023175 0.0019178 0.0216479
0.212316 0.0561302 0.104747
-0.136072 -0.0504718 0.0573761
0.00806521 -0.162091 -0.0402848
0 0 0
-0.0540103 0.116218 -0.318125
0 0 0
-0.261904 -0.0529915 -0.191016
-0.17546 0.0370806 0.0794118
0 0 0
0.0594794 0.119163 -0.0618757
0.155011 0.0869545 -0.0586203
0.0357305 -0.016261 0.117682
0.360761 -0.17899 -0.307553
0.158332 -0.0425344 0.00173698
-0.0395907 -0.1127 -0.00010599
0.0648058 -0.0298931 0.179458
-0.000157005 -0.00947794 -0.0200527
0.00237915 -0.022349 -0.0319149
0 0 0
0.0128601 0.0448913 0.0979027
0 0 0
-0.14108 0.408942 -0.294496
0.0386626 0.0452432 -0.0705623
-0.0323943 -0.402219 0.083082
0 0 0
-0.304232 0.0366295 0.0791404
-0.334472 0.425832 0.14199
-0.123382 0.379323 0.0608397
0 0 0
-0.0670296 0.516795 0.090303
0.00220817 0.0781132 0.0732028
0.00506947 0.0291477 0.00131938
-0.00238616 0.000307646 -0.00191192
0.143299 -0.105192 -0.0365841
-0.00329075 -0.00724282 0.00095108
-0.115272 -0.145331 -0.0630482
0.136841 -0.002639 0.0053397
0.000220898 -0.0864229 -0.203332
0.039899 0.0576672 0.000779341
0.0258932 -0.0166141 -0.0228677
0 0 0
0 0 0
0 0 0
0 0 0
-0.344039 -0.240604 -0.235788
0 0 0
-0.286543 -0.00873918 -0.0857126
-0.239268 -0.269833 0.00127853
0.0500189 -0.0997147 0.0486676
0.0747685 0.105342 -0.337335
0 0 0
-0.0548661 0.593176 0.0366638
-0.382982 -0.0712327 -0.121783
-0.00359092 0.241649 -0.0754711
-0.138355 0.0760859 0.114831
0.000516068 -0.114711 -0.0843829
0 0 0
-0.0168807 -0.274402 -0.0717654
0 0 0
0.127184 -0.207096 -0.181459
0.00051835 0.0211454 -0.0626997
0.158809 0.131507 -0.124917
0 0 0
0.0262413 -0.0516305 0.148868
0 0 0
0.157999 -0.0735954 -0.165357
0 0 0
0.0281796 -0.0218885 -0.529709
0 0 0
0.38131 0.0120232 -0.437352
0.0301764 0.0648159 0.210019
-0.0826098 -0.0643885 0.00155595
-0.06224 0.202599 -0.0615684
-0.132443 0.00178328 0.0594529
-0.0332713 -0.00027317 0.0124531
0.00227599 -0.247781 0.132159
0 0 0
0 0 0
0.105648 -0.0307083 -0.0432708
0.0904332 -0.0405003 0.0424548
0.106331 0.0786751 0.0611577
0.131112 0.0974112 -0.0059334
0.232653 0.195833 -0.111884
0 0 0
0.0137711 0.0669492 -0.00095128
0.0227027 0.0050878 -0.0290082
0.0586201 0.0169023 -0.0800738
0 0 0
-0.0520435 0.166845 0.0468403
-0.353965 -0.259199 0.0371412
0 0 0
-0.0720939 0.0508366 -0.154116
0 0 0
0.169628 -0.235804 -0.000376873
0.323149 -0.233695 0.0153051
0.000408071 0.0354075 0.621489
0.00190672 0.000910451 0.0243565
0 0 0
0.131579 -0.090502 0.0510187
0.196536 0.178404 0.0955002
0 0 0
0.141232 0.0303732 -0.204214
0 0 0
0.212692 0.214251 -0.301327
0.216258 0.0604905 -0.147362
0.0917264 0.542331 -0.139401
0 0 0
0.00797056 -0.0583077 -0.0867012
0 0 0
-0.068768 -0.000740493 -0.0222722
0.200275 0.0776978 0.099594
0.122883 0.0446968 -0.00438626
-0.018103 0.143092 0.164533
0 0 0
0 0 0
0.000112088 -0.0302029 -0.0139306
0 0 0
0.0965227 -0.0602547 0.0179675
0 0 0
-0.018343 -0.0850098 0.00521971
-0.153183 -0.314709 0.0281959
-0.0572481 0.0416986 -0.0445309
0.00261903 0.0728838 -0.0759996
0.0880725 -0.0441005 -0.0311074
-0.00349135 -0.341532 0.0448337
0.0285981 0.0172718 -0.0446465
-0.0333496 0.0260682 0.036992
0.061416 0.00147729 -0.146695
-0.036522 -0.190857 0.0214768
-0.0800518 -0.18756 0.0319953
-0.00040048 -0.0784301 -0.00231426
-0.0912039 0.0477028 0.029219
0.000438389 0.0795134 -0.0282754
0.0893113 -0.0431759 -0.0104293
0.058955 -0.388974 -0.0298486
0.0010134 -0.117027 0.00885883
0 0 0
-0.0332923 0.0907151 0.0285331
-0.068915 -0.280175 -0.385006
0 0 0
-0.315145 -0.287322 -0.225977
0 0 0
-0.371746 0.100404 -0.00500728
0 0 0
0.0236488 0.0703743 -0.00676306
-0.00072643 -0.0167079 0.0753464
0.0311004 0.121928 0.0368103
0.0372458 -0.0596458 0.0154222
-0.107437 0.221846 0.0633461
-0.0352705 -0.110762 0.0885549
0 0 0
0.0288947 -0.139106 0.0652252
0.196592 -0.0454975 -0.001593
0.00427386 0.000165649 -0.00257774
0.100008 -0.132919 -0.196366
0.272557 -0.0901202 0.00238382
-0.0742243 0.114747 0.114055
0.343052 0.138159 0.0344781
0.128369 -0.0910445 0.0639252
-0.172015 0.0774137 0.0768428
0 0 0
0.193226 0.14758 0.000912619
0.356505 0.133703 0.351168
0.216134 0.124763 0.0408807
0.222977 0.210553 0.0666679
0.23987 -0.288015 -0.559269
0.207611 0.0269992 0.089553
0.0863856 -0.0147696 -0.0942347
-0.292202 -0.206418 0.0643371
0 0 0
-0.124085 -0.251201 -0.0854069
0.00103722 0.0281734 -0.0360512
-0.209128 -0.236807 -0.169855
0.00352055 0.075652 0.00492358
0.00178871 0.0822326 0.124474
0.134458 -0.196461 0.0950333
0 0 0
0.00180387 -0.0198214 -0.000397956
-0.296344 0.376478 -0.0713135
0.36477 0.262066 0.0973283
0 0 0
0 0 0
0 0 0
0 0 0
0 0 0
0 0 0
0 0 0
0 0 0
0 0 0
0 0 0
0 0 0
0 0 0
0 0 0
0 0 0
0 0 0
0 0 0
0 0 0
0 0 0
0 0 0
0 0 0
0 0 0
0 0 0
0 0 0
0 0 0
0 0 0
0 0 0
0 0 0
0 0 0
0 0 0
0 0 0
0 0 0
0 0 0
0 0 0
0 0 0
0 0 0
0 0 0
0 0 0
0 0 0
0 0 0
0 0 0
0 0 0
0 0 0
0 0 0
0 0 0
0 0 0
0 0 0
0 0 0
0 0 0
0 0 0
0 0 0
0 0 0
0 0 0
0 0 0
0 0 0
0 0 0
0 0 0
0 0 0
0 0 0
0 0 0
0 0 0
0 0 0
0 0 0
0 0 0
0 0 0
0.00465742 0.0368551 0.0269562
0.0289623 -0.0993943 0.001619
0 0 0
-0.238089 -0.0229098 -0.0302786
-0.151479 -0.0464089 -0.0813608
-0.00203624 -0.0254292 0.0134511
-0.0704971 -0.00301264 0.112079
-0.00619518 0.356221 0.188385
0.113749 -0.354315 -0.13074
0.132312 0.0280496 -0.184349
-0.00324994 0.0446603 -0.00725437
-0.0845428 -0.118976 -0.0711042
0.131741 0.0849851 0.111695
0 0 0
0.0805924 -0.212267 0.0203668
0.0623766 0.0117221 -0.0908683
0.0105631 -0.0625906 0.00296992
-0.0409692 -0.00189941 -0.0481541
0 0 0
0.131178 0.0983292 -0.0163238
-0.0596834 0.0876847 -0.0716509
0.00301789 -0.142175 0.0700511
-0.0184778 0.0639772 -0.121932
-0.022184 0.38917 0.0871593
-0.0740873 -0.527309 -0.067213
-0.000386528 -0.00951137 -0.0342078
0.00357945 0.04754 -0.0328911
-0.0740337 -0.0764544 0.0759605
-0.116705 0.039801 0.086198
0 0 0
0.106612 0.0346933 -0.107149
-0.0234166 0.00115461 0.0629544
-0.120677 -0.0401277 -0.142564
0.00802138 0.025273 -0.00706846
0 0 0
0.118791 0.0538095 0.0501461
-0.0195009 -0.0434723 -0.0291865
0 0 0
0.0386862 -0.00910094 -0.0923774
0.00266563 0.0624327 -0.00074298
-0.08891 -0.0436355 -0.107976
-0.135801 -0.000967828 0.0662828
0 0 0
0.047783 0.0339652 -0.00446994
-0.115076 0.00402903 0.0271199
0 0 0
0.0319127 -0.0708167 0.0419379
-0.00204217 -0.00732743 -0.0128598
-0.00640825 0.000225127 -0.0209861
0.0468347 0.0292967 -0.0307161
0 0 0
-0.0670678 0.00470038 0.0303476
-0.148711 -0.0667632 0.038449
-0.00310779 -0.00606206 -0.0200158
-0.0633151 -0.00634629 0.105773
-0.00812705 0.152386 0.058911
-0.0146957 -0.109164 -0.141684
0.0251455 0.00186056 0.00908596
0 0 0
0.0294111 0.0991069 0.0273684
0.301853 0.0139471 -0.153048
0.0132138 0.0132181 0.00511593
0.0738194 0.0153629 0.000923347
-0.00217131 0.0363576 0.0508418
0.0423022 0.00668077 -0.0103161
0.0264803 -0.0366756 0.004809
0.253139 0.055159 0.0918676
0.0850385 0.494537 -0.19509
0.0925396 0.106083 0.0545885
0.24614 -0.141211 0.162261
0 0 0
0 0 0
0 0 0
-0.140688 0.0736232 0.0165582
-0.0136659 -0.00782645 -0.01465
0.0165365 -0.0381276 -0.0147425
0.524294 -0.407266 -0.190934
0.148248 0.0283828 0.0379303
-0.00789049 0.116898 0.33437
-0.0155657 -0.115022 0.00344249
0.00128636 -0.0456879 0.199806
-0.184225 -0.290995 0.142425
0.00230804 -0.134246 0.131818
0.0637637 -0.0864638 -0.00561058
0 0 0
0 0 0
-0.144265 -0.118676 0.0793436
0.279228 -0.450837 -0.018571
-0.00496383 -0.123396 0.0435452
0.0449911 0.109366 -0.256342
0.00335216 0.000875306 0.012458
0.0550458 0.000645585 0.150746
-0.291821 0.132803 0.132603
-0.168803 0.10095 0.0125336
0 0 0
-0.231309 0.178784 0.390845
0.0988301 0.144562 -0.207331
0 0 0
0.27305 -0.000330291 -0.059674
0.0878089 -0.0895413 0.136823
0.275207 0.053217 0.148182
0 0 0
0.0590176 0.11448 0.0700264
0 0 0
0.043205 0.0357409 -0.132219
0.278217 -0.173083 0.133229
0 0 0
-0.0340991 -0.0137931 0.21901
0.219414 -0.209481 0.0313811
0.042662 -0.0226851 0.0307406
0.0734719 0.222014 0.0369621
0 0 0
0.0599251 -0.0247606 0.0425837
0 0 0
-0.00966651 -0.183855 -0.00114915
-0.00223164 -0.0199724 0.0785869
-0.128449 -0.0966405 -0.153246
-0.0379593 0.156862 0.170315
-0.131941 -0.0846303 -0.387517
0 0 0
-0.245521 -0.258319 0.326029
0 0 0
0.0148326 -0.0167681 -0.00278704
-0.0199948 -0.0348085 0.0393369
0 0 0
0 0 0
0.0968954 -0.046632 -0.0705915
0.0408892 -0.0165897 -0.00526513
0 0 0
0 0 0
0.299013 -0.140348 0.00242126
0 0 0
0.180994 -0.302447 -0.011454
0 0 0
-0.00361328 -0.0280447 0.088928
0 0 0
-0.284266 -0.472535 -0.135312
0.0107558 0.0443186 -0.0324268
0.0823157 0.104925 0.323968
0.16201 -0.185048 0.0729475
0.0332359 0.177815 0.109403
0 0 0
0.209238 0.0540772 0.083449
0 0 0
0.206788 0.0518455 0.167295
0.296072 -0.131442 0.206794
-0.00260354 -0.213958 0.157282
-0.0465273 -0.00325178 0.00251389
0 0 0
0.137738 -0.00172334 0.211317
0 0 0
-0.126536 0.013762 -0.00296216
0 0 0
0.017913 0.00362639 -0.0179529
0 0 0
0.103398 -0.0611174 0.253791
0 0 0
-0.327035 0.054795 0.142125
0 0 0
-0.146287 0.0290805 0.0553208
0 0 0
0.112501 0.201918 0.145125
-0.0139788 -0.066214 0.0314024
0 0 0
0.236306 -0.289635 -0.124416
0.449574 0.446418 0.18065
0.16931 -0.0997468 0.101438
0.109683 0.0165261 0.0259424
0 0 0
0 0 0
-0.257731 -0.288888 0.0990507
0 0 0
0.057767 -0.00160173 -0.00700659
0.31435 0.316557 -0.1043
-0.197849 0.140299 -0.52905
0 0 0
0 0 0
-0.0114159 0.10493 -0.0265604
0.0169027 0.00741913 0.0119857
0 0 0
0.00743274 0.00818417 -0.0602491
-0.102961 0.137955 -0.11129
-0.271821 0.251638 0.0630261
-0.380385 -0.0155839 0.238467
-0.0652426 0.0852553 0.140061
-0.253981 0.0328478 -0.146667
0 0 0
0.0228039 0.207919 0.0013672
-0.000466528 0.00112736 0.00518183
0.0375182 -0.0774605 -0.0386517
-0.112787 -0.0425982 0.139711
-0.377845 0.60908 0.00735701
-0.00537624 -0.130297 -0.141226
0.19514 0.0312256 -0.0251029
0.262941 -0.311849 0.153643
0.092908 -0.317266 0.273905
0.77318 -0.651017 0.0377436
-0.00484287 -0.0655476 0.0527083
-0.00412007 0.0786179 0.181159
-0.0872642 -0.125183 0.117915
0 0 0
-0.167866 -0.241349 0.120132
-0.223977 -0.0224556 0.0804702
0.075652 0.131877 0.0744612