<?xml version="1.0"?>
<VTKFile type="RectilinearGrid">
<RectilinearGrid WholeExtent="0 32 0 32 0 32" Origin="0 0 0" Spacing="1 1 1">
<Piece Extent="0 32 0 32 0 32">
<PointData>
</PointData>
<Coordinates>
<DataArray type="Float32" format="ascii">
0 0.524874 1.04975 1.57462 2.0995 2.62437 3.14924 3.67412 4.19899 4.72386 5.24874 5.77361 6.29849 6.82336 7.34823 7.87311 8.39798 8.92285 9.44773 9.9726 10.4975 11.0224 11.5472 12.0721 12.597 13.1218 13.6467 14.1716 14.6965 15.2213 15.7462 16.2711 16.796 
</DataArray>
<DataArray type="Float32" format="ascii">
-5.03879 -3.62163 -2.20447 -0.787311 0.629849 2.04701 3.46417 4.88133 6.29849 7.71565 9.1328 10.55 11.9671 13.3843 14.8014 16.2186 17.6358 19.0529 20.4701 21.8872 23.3044 24.7216 26.1387 27.5559 28.973 30.3902 31.8074 33.2245 34.6417 36.0588 37.476 38.8931 40.3103 
</DataArray>
<DataArray type="Float32" format="ascii">
0 0.524874 1.04975 1.57462 2.0995 2.62437 3.14924 3.67412 4.19899 4.72386 5.24874 5.77361 6.29849 6.82336 7.34823 7.87311 8.39798 8.92285 9.44773 9.9726 10.4975 11.0224 11.5472 12.0721 12.597 13.1218 13.6467 14.1716 14.6965 15.2213 15.7462 16.2711 16.796 
</DataArray>
</Coordinates>
<CellData>
<DataArray type="Float32" Name="Vector" NumberOfComponents="3" format="ascii">
0 0 0
0 0 0
0 0 0
0 0 0
0 0 0
0 0 0
0 0 0
0 0 0
0 0 0
0 0 0
0 0 0
0 0 0
0 0 0
0 0 0
0 0 0
0 0 0
0 0 0
0 0 0
0 0 0
0 0 0
0 0 0
0 0 0
0 0 0
0 0 0
0 0 0
0 0 0
0 0 0
0 0 0
0 0 0
0 0 0
0 0 0
0 0 0
0 0 0
0 0 0
0 0 0
0 0 0
0 0 0
0 0 0
0 0 0
0 0 0
0 0 0
0 0 0
0 0 0
0 0 0
0 0 0
0 0 0
0 0 0
0 0 0
0 0 0
0 0 0
0 0 0
0 0 0
0 0 0
0 0 0
0 0 0
0 0 0
0 0 0
0 0 0
0 0 0
0 0 0
0 0 0
0 0 0
0 0 0
0 0 0
-0.0459494 0.114204 -0.132645
-0.0622327 -0.119268 -0.0416123
0 0 0
-0.122491 -0.0969963 -0.0717348
-0.138263 0.0316238 0.0220205
0 0 0
0.182127 0.219255 0.0560282
0.0304027 -0.0444556 0.0546318
0.0381365 -0.0459246 -0.0893344
-0.0419727 0.0948266 0.0363763
0 0 0
0.0071818 0.0780291 -0.00347629
-0.0465366 -0.043056 0.029262
-0.00143147 0.00360759 0.00465232
-0.187444 0.149645 0.023918
0.100586 0.14268 0.0971779
0.12827 0.0575856 0.00263252
-0.13196 -0.101545 0.028075
0 0 0
-0.0596416 0.0628771 0.0574829
0.0516536 -0.126422 -0.111056
-0.0267709 0.054986 0.0215245
-0.0600697 -0.0445299 0.0292422
0.0694824 0.0418844 -0.0818884
-0.0553809 -0.0417125 0.104468
0.122158 0.0348301 0.0709704
0.00712312 -0.0805813 -0.0884513
-0.0338424 0.0748901 0.0765905
0.0928699 0.141276 0.00308201
-0.0780966 0.0648962 0.041928
-0.0969383 -0.0801659 -0.05083
0.0235013 0.38185 -0.00218544
-0.03745 -0.00185423 0.00826618
0.0340817 -0.116152 0.0280859
0 0 0
0.148405 0.10409 0.00836007
-0.0208622 -0.049737 -0.0249435
0 0 0
0.0689787 0.155143 0.00700109
0.0090903 0.00543798 0.00410611
0.0339208 -0.0179894 0.000872583
-0.0691197 -0.507142 -0.00558655
0 0 0
0 0 0
0.269715 -0.11302 -0.0778086
0 0 0
0.124751 0.0965879 -0.00828967
0.119536 0.0354976 0.0731373
0.0205547 0.00632224 -0.0663278
-0.202377 -0.00332953 0.119577
0 0 0
-0.0349702 -0.0566821 0.0134685
-0.143579 0.0315509 0.128424
-0.0208 0.0383975 0.000502788
0.485097 0.24956 0.00828309
-0.0829197 -0.0165226 0.036905
-0.0715617 0.0150762 0.0010231
0.0569055 -0.0523765 -0.0287593
0 0 0
-0.0444321 -0.00113049 -0.00478265
0.161114 0.021751 0.000968097
0 0 0
0.0820035 -0.0462392 0.00665277
-0.00459176 -0.0602369 -0.0766031
0 0 0
-0.0106378 -0.204908 0.0145253
-0.0295794 -0.170574 -0.144776
-0.140907 -0.0364514 0.201458
0 0 0
0.0146715 0.0415161 -0.00210185
0.154938 -0.144118 -0.248097
0 0 0
-0.0234451 -0.00372563 0.014205
-0.129877 -0.0535608 0.0440777
0 0 0
-0.0691994 -0.0330654 0.111557
0.0600201 0.18737 0.00252509
0 0 0
0.55714 0.121617 -0.0666438
0.207351 -0.0657316 -0.170594
-0.0244448 0.194598 -0.0339217
-0.157663 0.156045 -0.15922
0 0 0
-0.0164739 0.361476 0.0628785
-0.075577 0.0580878 0.0306327
0 0 0
-0.137104 -0.00747454 -0.043877
0.140978 0.142376 -0.00730663
0.0943745 -0.0682709 -0.0738168
0.238417 0.1777 -0.00138002
0.00848927 -0.011868 -0.102843
-0.483263 -0.379016 0.403798
0 0 0
-0.00240127 -0.049559 -0.0189051
-0.355614 0.11883 0.22803
0.104369 -0.0794061 0.399176
0 0 0
0.000910989 0.11521 0.0031536
0.377709 -0.252123 0.108146
0 0 0
0.185722 0.0385658 0.000720608
0 0 0
0.00678397 0.0092762 0.0523834
0.0254134 0.044136 0.0200366
0.0932149 0.423023 0.323339
0 0 0
-0.238383 -0.038795 0.0893402
-0.212876 0.150463 0.0909352
-0.18337 0.311955 -0.296536
-0.01466 0.0835907 0.00377962
-0.0121041 0.0155262 -0.0279878
0 0 0
-0.114758 0.259639 0.337254
-0.0612165 0.00048032 -0.0660349
0.00138579 0.322032 -0.159268
0.112581 0.112012 0.201345
0.0152282 -0.1303 0.0161491
-0.420988 0.249039 -0.319568
0 0 0
0.113052 -0.0212788 0.0502366
-0.0790496 0.18176 -0.123272
-0.0508929 0.0955208 0.0833575
-0.291926 0.15554 -0.0435413
0 0 0
0.0157353 -0.0105473 -0.0906202
-0.0293454 0.466546 0.132399
0 0 0
-0.197565 -0.406255 0.0169683
0 0 0
0 0 0
-0.258222 -0.17079 -0.00119039
0 0 0
0 0 0
-0.399156 -0.00961072 -0.0570907
-0.0544408 0.000470508 4.01503e-05
-0.0828277 -0.246187 0.0197587
0 0 0
0.0225649 0.109182 0.113305
0 0 0
-0.033836 -0.14247 -0.00125377
0 0 0
0.14921 0.0551409 -0.328673
0.443334 0.607644 0.0358419
0 0 0
0 0 0
0.0280018 0.0222993 0.0253443
0.0224342 -0.0984629 0.134436
0 0 0
0.0887706 -0.00586253 0.031155
0.127865 -0.305877 -0.0891645
0 0 0
0.117677 -0.639976 0.0799859
0 0 0
-0.0596403 0.179457 -0.0887477
-0.0057693 0.0372186 0.0162305
-0.0633945 -0.00509208 -0.00344512
-0.175299 0.00571665 0.00363685
-0.0773422 -0.268381 -0.308302
0.110758 0.0306381 0.0720157
-0.000570056 -0.207193 -0.147616
0.245492 -0.0431638 -0.348113
0.0273313 -0.19876 0.236255
0 0 0
-0.0309478 -0.144579 -0.000696771
0 0 0
-0.275883 0.0639897 -0.101235
0.0135637 -0.168165 0.220532
-0.0385916 -0.272471 0.344543
0 0 0
0.130367 0.187054 -0.00570077
-0.0441557 -0.0268059 0.0127574
-0.108959 -0.146126 -0.426188
0 0 0
0.00107652 0.0821307 0.0267262
0.00847873 -0.0879496 0.113414
0 0 0
0.0881794 0.0959535 -0.0380498
0.055565 0.0398201 -0.249289
0.000357868 -0.060087 0.030178
0.273158 -0.0388839 0.166084
0.170191 0.101315 0.229605
0.0185663 0.0128207 0.00106281
0 0 0
-0.101007 0.0790097 0.0561117
0 0 0
-0.000765903 0.0580481 -0.137645
-0.106211 0.0852321 0.123335
-0.185376 -0.00409113 0.0967733
0 0 0
-0.0148137 -0.129335 0.0614893
0.292575 0.23124 0.416532
-0.271641 -0.0608534 0.100739
0 0 0
0.075789 -0.545025 -0.268451
0 0 0
-0.00943716 -0.264076 0.191031
0 0 0
0.109018 0.0562666 0.0015962
0 0 0
0.0947355 0.0749049 0.0787852
0.0851006 0.0552432 -0.0507499
0.143463 -0.238285 -0.0851776
-0.000223448 -0.0636919 -0.0537492
0.086722 -0.00900411 -0.308098
-0.00726355 -0.00874167 1.49107e-05
0.0809019 -0.0730811 0.0367579
-0.0231462 0.0395738 -0.0503298
0.133964 0.0515178 0.0740973
0.272035 0.0192065 0.0718923
0 0 0
0 0 0
-0.0502358 0.0343784 -0.154853
-0.000367471 0.00349143 -0.00786114
0.13469 -0.241298 0.0149641
0 0 0
-0.235585 0.0811078 -0.131505
-0.193972 0.126577 -0.0927419
0 0 0
0.127355 -0.128131 0.0484633
0.122089 -0.24144 0.189511
0 0 0
0.016763 -0.180726 0.0822813
0 0 0
-0.247052 0.0488342 -0.00882052
-0.00455914 -0.154286 -0.0614371
0.300875 0.0154806 -0.00932197
0.402063 0.436998 0.142294
-0.00483058 0.000629366 -0.00790156
-0.014211 -0.0104349 0.00273344
-0.0618303 -0.0552404 0.0067255
-0.00108931 0.12467 -0.319486
-0.405457 0.15308 0.0439871
-0.179152 -0.0995742 0.0474305
-0.201334 0.0475738 -0.0611026
0 0 0
0.0385466 0.0484137 0.00284304
0 0 0
0 0 0
0 0 0
-0.114918 0.102583 0.262178
-0.00997454 0.364581 0.0198388
0.081006 0.197965 0.123921
-0.00459856 -0.0211086 -0.158514
0.243781 0.0353196 -0.229681
-0.0381163 0.0706747 0.251052
-0.032202 0.133329 0.144388
-0.051128 -0.0371859 -0.12181
-0.132233 -0.177612 -0.100395
-0.0139252 -0.0505523 -0.124108
-0.137401 0.095019 -0.000402232
0.0275043 -0.097911 -0.147809
0.0184888 -0.023633 0.0208781
0.166147 -0.524124 0.374023
0 0 0
-0.122506 -0.0841919 -0.00283049
-0.0252349 0.172738 -0.280988
-0.0991314 0.0805853 0.255878
-0.0474061 -0.00357427 0.0334933
-0.203265 -0.142988 -0.145548
-0.150308 0.122048 0.304405
0.0765725 0.0184824 -0.0747947
-0.0438584 0.0223101 -0.0316478
-0.00136519 0.0805554 -0.0747947
0.0361629 0.193143 -0.0331707
-0.00100506 0.0437937 0.0661519
-0.111498 -0.262361 0.0946447
0 0 0
-0.192764 -0.372839 -0.128611
-0.106649 0.0375667 0.127167
0.0341418 -0.0409307 -0.037952
-0.327167 -0.320107 0.192328
0.0104074 0.0335827 -0.000119153
-0.0374421 -0.0133288 -0.000747583
-0.0395008 0.0302616 0.0905764
-0.127357 -0.035841 -0.00392301
0 0 0
0.103117 0.27869 0.00120446
0 0 0
0.226314 -0.166138 -0.00204017
0.0469247 0.00748896 0.0949592
0 0 0
0.000229234 -0.225289 -0.000140656
0.10517 -0.226931 -0.0477285
-0.110612 -0.0235536 0.143183
-0.0437255 -0.079459 -0.219567
0 0 0
0.0281032 0.0218547 -0.207811
-0.117044 -0.0944808 0.102676
-0.082113 0.0116076 0.0616358
-0.0826244 0.0202556 0.12287
0.233781 0.110064 -0.059235
0.0797951 0.0238112 -0.116386
-0.165299 0.692504 -0.293895
0.0240129 0.0346737 0.1199
0.273576 0.120371 -0.12542
0.0972667 -0.0886823 -0.102426
0.13684 -0.19505 0.0994544
0.249788 0.0362169 -0.258995
0.189955 -0.116032 -0.0787015
0 0 0
0.166644 -0.22631 0.0397692
0.0845076 -0.122109 0.139149
-0.0556683 0.0901219 0.0941616
-0.224846 -0.0612279 -0.0280933
0.00039456 -0.0828147 0.00628283
0.0457716 -0.124538 -0.0681684
0.0700834 -0.0550613 -0.178723
0.0317061 0.0833966 -0.34906
-0.0685898 0.0690306 0.113305
-0.188982 -0.245796 -0.19944
0 0 0
-0.0987347 0.124208 -0.119352
0.0407134 0.0527162 0.0144371
0.0785733 0.0188623 -0.335331
-0.034779 0.00205064 0.00260882
0 0 0
0.0681399 0.0643502 0.181974
-0.0347053 -0.132838 -0.157335
-0.0234238 0.165851 0.0724385
-0.0117555 -0.320814 -0.244146
0 0 0
0 0 0
-0.20229 0.202814 0.0638507
0 0 0
-0.246555 0.825709 -0.396906
-0.165308 0.0808638 -0.0593292
-0.325749 -0.322458 0.320243
0 0 0
-0.0685589 -0.168073 0.178586
0 0 0
-0.0869226 0.113147 0.275453
0 0 0
0.185122 0.0418231 -0.132513
0.0588411 -0.0268489 -0.0175673
0.193963 -0.0352727 -0.0692882
0.108057 -0.0466456 0.0291923
0.0146182 0.00550772 0.0163575
-0.156303 -0.0940192 -0.155438
-0.148737 0.149495 0.126593
-0.0409543 -0.0117061 0.0271846
-0.139511 -0.750352 -0.331449
0 0 0
-0.217257 -0.0928742 -0.385309
0 0 0
0 0 0
-0.000454064 -0.0124735 0.00449523
0.0726196 -0.0667528 -0.142578
0.0172573 0.0656586 0.313672
0.166462 -0.366712 -0.129734
0 0 0
0 0 0
0 0 0
0.130981 0.00828446 0.0891147
-0.0131299 0.0188602 -0.0264179
0 0 0
0.00271311 0.0830815 0.0255284
-0.0290456 -0.25861 0.171205
0.20097 0.343771 0.0862448
0.0892085 -0.00216135 -0.0388006
0.144153 -0.0784274 0.186749
0.00280249 0.0569348 -0.0436232
-0.142323 0.187874 -0.211881
0.00608532 0.00901553 -0.11095
0.146445 -0.253218 -0.0793305
0.0385994 0.0503925 -0.0396423
0.267539 -0.11451 -0.180129
0 0 0
-0.0585008 0.0436487 0.1215
0 0 0
-0.0499212 -0.0150635 -0.158299
0 0 0
-0.307689 0.0937334 -0.528321
0 0 0
-0.286847 -0.0663051 -0.235088
0 0 0
0 0 0
0 0 0
-0.0236592 -0.0122239 -0.527092
-0.00272214 0.146562 -0.10292
0.00291436 -0.231976 -0.26539
0 0 0
0.0296854 0.00334459 0.00206918
0 0 0
-0.0155461 -0.053064 3.38787e-06
0 0 0
0.00213995 -0.0246042 0.0125192
0.313313 0.0196387 0.240065
-0.0227394 0.0390068 0.0203716
-0.0558216 0.207275 -0.0185999
0 0 0
-0.0568882 -0.00314159 0.000724125
0 0 0
0.00753857 0.103772 -0.0260662
0 0 0
0.000839238 -0.507001 -0.111442
-0.00373425 -0.164179 0.0685312
0.0815485 0.0128721 -0.0296488
0.0283061 0.0154013 0.0305655
-0.0670517 -0.0102869 -0.00715657
-0.0521857 0.0319746 -0.0492077
-0.0754199 0.164766 0.0491933
0.066148 -0.0292026 0.0587052
0.247994 0.282433 0.0185103
0.0286335 0.215622 0.152145
-0.197527 -0.0270285 0.198513
0.0424044 -0.0831281 0.072486
0 0 0
0.00761326 -0.0192397 -0.0907838
0 0 0
0 0 0
0.0138026 0.0262814 -0.206263
-0.00014983 -0.120024 -0.07732
0 0 0
0.10353 -0.22036 0.0155191
0.0575093 0.0947518 0.039751
0 0 0
0.189019 -0.0851977 0.112151
0.119553 -0.130489 -0.174122
-0.141788 -0.312808 0.0394172
-0.0159263 0.0396969 0.125627
0.054959 0.0216494 0.00149548
0.246113 0.0827607 -0.0145978
-0.165222 0.202816 -0.0658155
0 0 0
0.151157 0.05069 -0.00520225
0.177173 -0.00258749 0.00598853
0 0 0
0.163058 -0.105359 -0.199559
-0.238751 -0.00166529 -0.0834582
0 0 0
0.0280046 -0.000121516 -0.087503
0 0 0
0.0187212 0.0883398 -0.0345629
0.00155944 -0.245433 -0.217424
-0.00275722 -0.0144516 0.0770548
-0.0286953 0.0150115 0.0777501
-0.142414 -0.762404 0.137819
0 0 0
-0.351047 0.00152756 0.000241027
-0.135122 -0.0889969 -0.139975
-0.042417 0.0179059 -0.0300656
-0.135765 -0.218017 -0.0402135
0.00653488 -0.00031598 0.000590523
0.280885 0.198585 0.187325
0 0 0
0.240394 -0.453149 -0.107276
0.120958 -0.134736 0.0387112
0 0 0
0 0 0
-0.154767 -0.0165728 0.13526
-0.023687 -0.0482974 0.0683434
-0.167816 -0.178588 -0.00414814
0 0 0
-0.0774837 -0.592203 -0.264969
0 0 0
-0.0455486 -0.0413962 0.00239007
0 0 0
0 0 0
0.293038 0.124467 -0.0504096
0.00112639 -0.0399925 0.0489315
-0.0188816 0.0378886 -0.275806
0.197179 -0.0278409 -0.0911842
0.150411 -0.11765 -0.198208
-0.566381 -0.235171 -0.276322
-0.315007 -0.347008 -0.0813595
0 0 0
0 0 0
-0.0817804 0.103947 -0.0430789
0.0338581 -0.00103666 -0.499966
-0.20373 -0.224289 -0.283074
0 0 0
0.048033 0.0334433 -0.0291978
0.152529 0.105342 -0.11133
0.249625 0.0656941 -0.372906
-0.00039349 -0.407318 -0.100267
0.149827 0.200942 -0.103329
0 0 0
-0.183057 -0.137881 -0.144776
0.19898 -0.277804 -0.173129
0 0 0
0.184413 -0.0955836 -0.119988
0.0822777 0.06973 -0.102466
0.22072 -0.101049 -0.0338976
-0.0013725 -0.00918668 -0.000339373
-0.0913514 -0.0146889 0.164834
0.0599561 -0.0769014 0.284675
0 0 0
0.0499101 -0.0189145 -0.0259735
-0.0855827 0.0970042 -0.0231848
0 0 0
-0.153595 -0.0282604 0.00217468
0 0 0
-0.18632 -0.271075 0.0469238
0.0916397 -0.00267537 -0.113903
0.0832868 0.0472789 -0.0117
0.0356932 0.0409461 -0.0117915
-0.132422 -0.305722 -0.283853
-1.92891e-05 0.130519 -0.111272
0.020764 -0.0065627 -0.0510966
0 0 0
-0.411603 -0.0846229 -0.0509263
-0.0613056 -0.0324226 -0.0287557
0.0427318 0.0806398 0.197689
0.0798221 -0.0368654 0.0498298
0.204536 0.260461 -0.509838
0 0 0
-0.0572731 -0.0360212 -0.000246714
-0.0103526 0.0044402 -0.00166349
-0.120015 0.0433051 0.00177242
-0.294414 -0.0965938 0.205886
-0.165528 -0.0920548 -0.0113728
0.0551633 -0.0110371 -0.090485
-0.0354657 0.0379263 0.0962157
0 0 0
0.00293901 -0.0115028 -0.263522
0.057725 0.0501778 -0.0953643
0.0690172 -0.147842 0.0939527
0.0486049 -0.151114 0.0939962
0 0 0
0.258656 0.394281 -0.251653
0 0 0
0.193546 0.0849093 -0.094424
0 0 0
0.0679096 -0.0500474 -0.00310699
0.0488394 0.0932018 0.131854
0 0 0
-0.121429 -0.0567318 -0.0558003
-0.374787 -0.159459 -0.129775
-0.0341304 0.0700419 0.105208
-0.0994354 0.141991 0.0579179
0 0 0
-0.36197 -0.142324 0.310306
0 0 0
-0.00155806 0.173404 0.101015
0.107218 0.202325 0.147695
0 0 0
0.144418 -0.172457 0.00129846
0.270223 0.128486 -0.202289
0.300276 -0.101445 -0.00516853
0.0788754 0.152815 0.0771726
0.142237 0.0414755 0.0508326
0.21235 -0.419054 0.0407349
0 0 0
0.0334039 -0.0144408 -0.071128
-0.143144 0.104857 0.0636335
-0.0587465 -0.213998 -0.0884895
0 0 0
0.0295808 -0.257147 -0.292078
-0.0675131 -0.0614218 -0.0174075
-0.231445 -0.195741 0.082303
-0.00724162 0.134578 0.00571689
0.00390207 -0.0293348 -0.311524
0.00114373 0.000264038 -4.41107e-05
-0.00269167 0.0764897 0.22161
-0.084697 -0.33975 -0.273129
-0.115817 -0.172922 0.00136121
0.395488 -0.12856 0.102593
0.219293 0.467621 -0.249133
0.254913 0.0825103 -0.000461417
0.162486 -0.0575092 -0.17627
0.0507149 -0.0329065 -0.0554111
-0.00830117 0.0699169 0.0152112
0.104103 -0.00300605 0.138768
0.0502577 -0.0663408 0.0379297
0 0 0
0 0 0
0 0 0
-0.331802 0.190814 -0.214898
-0.19265 -0.104529 -0.0214667
0 0 0
0.0384388 -0.116921 -0.206678
0.0684888 0.0589417 0.155387
-0.00688402 0.0180555 0.0772121
0 0 0
0.000996363 -0.0175381 0.000626761
-0.0787177 0.149305 -0.156487
-0.128857 -0.190224 0.00224811
-0.0425819 -0.235842 0.445606
0.175477 -0.178597 0.142068
0.044571 0.0066587 -0.0787873
0 0 0
0.0498374 -0.355929 0.170353
-0.000992025 -0.0837482 -0.0744395
-0.192048 0.14768 0.221324
-0.0091106 -0.0234364 0.0330979
-0.0241988 0.0351824 -0.0179487
0.0121133 -0.0555906 0.158835
0 0 0
-0.0141019 0.00752831 0.000469195
0 0 0
-0.136888 -0.136033 -0.264631
0 0 0
0.00319463 -0.0608307 -0.00223507
-0.232251 0.0800628 0.601829
-0.0159587 0.226232 -0.0496245
0 0 0
0.135138 0.160446 -0.0499433
0 0 0
-0.0358602 0.0915847 -0.0113334
-0.0988188 -0.00360437 0.19694
0 0 0
-0.200813 0.617066 -0.218799
0 0 0
0.37793 0.243834 -0.259983
0 0 0
-0.0579959 0.0242359 0.0709834
-0.187697 0.158561 -0.272029
-0.249586 0.0499159 0.0507711
0.0203188 0.0567949 0.00884516
0.0832959 -0.378625 0.0281823
0 0 0
0 0 0
-0.163282 0.292663 -0.301277
0 0 0
-0.0333249 -0.0913726 -0.0560445
0 0 0
-0.0594486 -0.361718 -0.159584
0 0 0
-0.067002 -0.099675 0.0958517
-0.0923664 -0.0110133 0.170343
0 0 0
-0.00305107 0.00316874 -0.00242314
-0.526812 -0.376184 -0.289013
-0.00778523 0.00432312 -0.00830204
-0.0926955 0.0875637 -0.150177
-0.480459 0.0834716 0.238061
-0.389914 -0.122648 0.0506622
-0.035069 -0.327951 0.000962237
0 0 0
0 0 0
0.169687 0.0312568 0.174415
-0.279373 0.323444 0.0649419
0.148866 0.0902102 0.0214979
0.287146 -0.243703 -0.0438028
0.0362643 -0.060295 -0.278131
0.0870691 0.00702683 0.06916
-0.19372 -0.212855 -0.110529
0 0 0
-0.000244996 -0.0518521 -0.0461388
0.0371462 0.129297 0.161614
-0.0181226 -0.0890006 -0.00551417
-0.0440671 0.00728078 0.287115
-0.232712 -0.252311 0.218153
-0.0396035 -0.0594039 -0.108315
-0.00755987 0.00146105 0.0148376
0 0 0
-0.0286991 -0.421693 0.0521413
-0.0506246 -0.395807 0.0361103
0.384766 -0.285318 -0.0333363
0.129706 0.0530779 -0.0209413
0.0503453 -0.230289 0.267829
-0.00299361 0.381124 -0.0143523
0.0265171 0.00188366 0.195546
0 0 0
0.0182668 -0.0579565 0.102146
-0.24339 -0.09682 0.318704
-0.41231 0.216495 -0.168429
-0.0763505 -0.0985669 -0.189066
-0.00433793 -0.0103164 -0.0097829
0 0 0
0 0 0
-0.328166 -0.192952 -0.128458
-0.0393263 -0.099757 -0.0207487
-0.194043 -0.000616614 -0.102167
0 0 0
-0.287646 -0.0146758 -0.0237775
0 0 0
0 0 0
-0.00781953 -0.0314187 -0.0258553
-0.130442 0.0547977 -0.138263
0.000816078 -0.0486267 0.124627
0 0 0
0.00799396 0.055069 0.0358176
-0.0968656 0.0480663 -0.0320739
0 0 0
0.153914 -0.79639 0.207031
0 0 0
-0.0787922 0.0378213 -0.0110066
0.13283 -0.53092 -0.154794
0.113932 -0.0954292 0.0286319
0.192945 -0.362892 0.00823875
0 0 0
0.0879977 0.155367 0.301091
0.00345352 0.252776 0.0084217
0.142218 -0.00158798 -0.301594
-0.000769094 0.0444191 -0.0442187
-0.0367963 0.0143954 0.000374397
0.0613758 0.332301 -0.0235775
0.0850282 -0.00426875 -0.0553142
0.189448 -0.0498103 -0.147677
0.244869 0.0676542 0.218619
0 0 0
0.0520212 -0.0286016 0.192814
-0.0427168 -0.00657632 0.0406693
-0.242601 0.0884575 0.0263182
-0.0155508 0.0150415 -0.0190396
-0.00564379 0.199256 0.0600043
0.00156183 -0.110071 -0.0836518
0.0056641 -0.00700795 -0.0641164
0.158844 0.161247 0.274677
0.00770321 -0.0398541 -0.138111
-4.82562e-05 -0.0369291 0.0285078
0.103639 0.0434241 0.244267
-0.120602 -0.0285985 0.238867
0.0918347 0.117381 -0.0787296
0 0 0
0.0733183 0.0528106 -0.144401
0.16102 0.0203253 -0.0986906
0.0866572 -0.149072 -0.0219482
0.0389258 0.1258 -0.0949
0.0118287 -0.00189886 0.0178316
0.00331951 -0.0724489 -0.0456385
-0.0117752 0.0039898 0.185183
-0.0981453 0.0508674 0.000244631
0.249183 -0.0322711 -0.113283
0.0103552 0.0194294 -0.0432619
0.016305 -0.0968163 0.00709833
0.0045984 -0.0142619 -0.135423
-0.0452911 -0.0273661 -0.000571262
0 0 0
0.151368 -0.128122 -0.818897
0.0768925 0.00393695 -0.0464997
0.189582 0.0470685 0.253283
0 0 0
-0.0979377 0.0384773 0.510429
0 0 0
-0.0268313 0.120505 0.0532491
0 0 0
-0.167954 -0.0284569 -0.000970946
0.0237822 -0.19127 -0.108611
0.0950348 0.129168 0.029734
0.0316642 0.186406 -0.0011959
0 0 0
0 0 0
-0.073026 0.218545 -0.0174155
0.00101094 0.0997794 0.100679
0.0310474 0.211356 0.161237
0 0 0
0 0 0
-0.00942762 0.133385 -0.133715
0 0 0
0.00522388 0.130688 0.0876114
0 0 0
-0.0579049 -0.00311721 0.0420726
-0.106551 -0.259894 -0.0856128
-0.00157375 -0.133192 0.093613
0.0378008 -0.109022 0.0537203
0 0 0
-0.0851337 -0.0248648 -0.210814
0.00562987 -0.00015804 -0.0075904
-0.232294 0.0786238 -0.00160908
0.122662 0.0221586 0.120419
0 0 0
0.131982 -0.360726 -0.177753
3.3435e-05 -0.0267323 0.0080171
0 0 0
0.191732 -0.153923 -0.167289
-0.00220485 -0.0522905 -0.235934
0.0692337 0.21151 0.293921
-0.185558 -0.336237 -0.0797798
0.0014296 -0.0134215 0.0381419
0.00833717 -0.145616 -0.0120696
-0.0952841 -0.194081 0.00656458
0.139805 0.233645 -0.299895
-0.0981334 -0.297036 0.126175
0 0 0
0.0278379 0.0212447 0.0019611
0.106758 0.140909 0.0408595
0.0296936 0.0532877 -0.205483
-0.114308 0.0702508 0.0624259
-0.143353 -0.00868757 0.0963153
-0.0363565 -0.0932377 -0.11206
-0.0690253 0.104638 0.0666804
0.106549 -0.347917 0.134955
0.100283 0.167351 0.0632759
0.000475906 -0.0714525 0.0314467
0.0576144 -0.0789243 0.0172481
0 0 0
0.262273 0.343497 0.00053916
0 0 0
-0.179312 0.0482661 0.441538
0.000400264 0.0334329 -0.00515044
0 0 0
-0.169646 -0.327418 -0.206356
0.403026 0.182865 -0.0555296
0.0222944 -0.0484079 0.167799
0 0 0
-0.133315 0.0569095 0.0187502
0.43558 -0.0885694 0.101706
0.0890334 0.0710772 -0.103984
0.0194444 0.124456 -0.0925345
-0.0103901 -0.116354 -0.0538805
-0.0747089 -0.0282252 -0.00127385
-0.208125 0.0509834 0.219919
0.0209856 -0.20745 -0.0391534
-0.024438 -0.0304439 -0.00353754
0.192159 0.0211532 0.219653
-0.183654 -0.199891 0.000802388
-0.108101 -0.127396 -0.184432
-0.374586 0.053504 0.00086413
0.021379 0.284499 -0.409834
-0.00197234 -0.0917654 0.104625
-0.0289384 -0.0827124 0.0719189
0 0 0
0.00450702 0.0255551 -0.0509513
0.0129328 -0.0250223 -0.027297
-0.0562912 -0.0223353 -0.040987
0 0 0
0 0 0
-0.00248258 0.294282 -0.0398224
-0.148623 -0.0946727 -0.0542338
0 0 0
0 0 0
-0.0971686 0.0220567 0.288324
0 0 0
0.0595979 -0.0686428 -0.432792
0 0 0
0.131488 0.0157409 -0.306623
0.166906 -0.0260787 0.0037262
0.448431 -0.239585 0.091614
0.132885 0.0268796 -0.0611141
0.313231 -0.0563767 -0.0393581
0.231172 0.110145 -0.29447
0.031748 -0.400477 0.0882609
0.0928844 -0.419839 -0.0705734
0.00960119 -0.00406189 -0.0048811
0.0905086 -0.240108 0.378037
0 0 0
0 0 0
0 0 0
0.0334007 0.136747 -0.000400334
0 0 0
0.048099 -0.0376716 -0.0011115
0.0360434 0.0469628 0.00101544
-0.0312499 -0.0273104 -0.0208953
0.0257399 -0.308238 -0.002289
0 0 0
-0.0702234 -0.0641916 -0.132284
0 0 0
-0.0153607 0.0826821 0.00041653
0.00598482 0.0227257 -0.00107458
0 0 0
0.0767326 0.446356 0.153041
0 0 0
0 0 0
-0.0451437 -0.119308 -0.0488115
-0.0681324 -0.0673961 -0.0161335
0.0274918 0.108667 0.00168298
0.0304335 -0.102237 -0.0746725
0.17103 -0.230567 0.0022525
0.176317 0.0927902 -0.0253265
0.17416 -0.0552171 -0.123912
0.3215 -0.406203 0.124002
-0.0468709 0.162458 0.14088
0.142638 0.0313575 -0.128516
0.0606452 0.0236312 0.042774
-0.148116 -0.316648 0.449521
0.00358284 0.0102686 -0.0717279
-0.296466 -0.0102693 -0.226601
-0.0131121 0.0189915 0.0125082
0.13412 0.165416 0.000543028
0.0356647 0.0216197 -0.110177
-0.00225163 0.0130126 2.02975e-05
0 0 0
0.141687 -0.369238 0.116582
0.119694 0.123376 -0.0455541
0 0 0
-0.134055 0.341417 0.103024
0 0 0
-0.168006 -0.0523195 0.137265
0.000535883 0.096179 0.035993
-0.0222025 -0.0628173 -0.558398
0 0 0
0.00812708 -0.000350082 5.19264e-05
-0.0995382 0.14377 0.0220042
0.168166 -0.315268 0.000139538
-0.0146206 -0.257235 0.0658802
0.017623 0.030462 0.0103953
-0.0593117 -0.201514 0.332282
0.0529238 0.0359379 0.218558
0.201194 0.0160076 -0.0042307
0 0 0
0.288179 -0.465152 -0.017559
0.084972 -0.0162984 0.0732464
-0.0817205 0.019574 -0.134195
0 0 0
0 0 0
0.0244704 -0.0184031 0.140141
0.0397887 -0.175059 0.205194
0 0 0
0.222937 -0.0336507 -0.265099
0 0 0
-0.0223307 -0.160497 0.291906
-0.270524 0.115128 -0.144687
-0.157962 0.0839608 -0.0636483
0.100202 -0.0987447 -0.0607808
0.0488723 0.213409 0.0387825
0.0529676 -0.130484 0.162738
0 0 0
0.256917 0.369482 0.34796
-0.00835664 0.0310609 -0.0825311
-0.0278728 -0.0982078 0.121839
0.0297471 -0.0175733 0.0014444
-0.0204565 -0.0869629 -0.00252989
0 0 0
0.0466625 -0.0130354 -0.0176304
0 0 0
0.346353 -0.121447 -0.238597
-0.0539544 0.0790873 0.179489
0.426399 0.306253 -0.0632181
0.0564824 -0.0925168 -0.00382773
0 0 0
0.234717 -0.0035979 -0.175218
0.0428965 -0.202664 0.14907
0.0935254 -0.0595449 -0.0292282
0 0 0
0.217578 -0.124128 -0.0668964
-0.0671953 0.0216256 0.0223467
0 0 0
0 0 0
0 0 0
0 0 0
0 0 0
-0.111883 -0.00182407 0.159037
-0.00415507 0.039555 0.0753938
-0.0511308 0.167496 0.0572698
0.15214 -0.109964 0.0634021
0.338701 -0.212529 0.259473
0.024358 -0.0192424 0.0346844
0.169637 -0.0289988 -0.151577
-0.104079 0.261942 -0.10592
0.190059 0.112355 -0.479141
-0.0044388 -0.00259246 -0.0255465
0.0357695 0.0190706 0.00137852
0 0 0
0.0679746 -0.0247405 0.00135615
0 0 0
0 0 0
-0.186693 -0.248971 0.0288025
0 0 0
-0.184858 0.103281 -0.158224
0 0 0
0.0165596 -0.00319784 0.254144
-0.0586233 0.315438 0.355565
0.0426112 -0.250338 -0.079195
0.00362016 0.207301 0.378542
-5.56669e-06 -0.293607 0.00951312
0.0145248 -0.0936212 0.179179
0.000312433 -0.059465 -0.121775
0.104052 0.130509 0.0434971
0.0303913 0.123826 0.0177336
0.167942 0.128851 -0.0971959
0.00712637 -0.00926825 -0.0333355
-0.174419 -0.145565 0.0423649
0.000264852 -0.0674534 0.1324
-0.206459 -0.0355532 0.169399
0 0 0
0.00392472 -0.133302 0.204639
0 0 0
0.0497773 -0.0111575 0.0681647
0 0 0
0 0 0
0 0 0
0 0 0
0 0 0
0 0 0
0 0 0
0 0 0
0 0 0
0 0 0
0 0 0
0 0 0
0 0 0
0 0 0
0 0 0
0 0 0
0 0 0
0 0 0
0 0 0
0 0 0
0 0 0
0 0 0
0 0 0
0 0 0
0 0 0
0 0 0
0 0 0
0 0 0
0 0 0
0 0 0
0 0 0
0 0 0
0 0 0
0 0 0
0 0 0
0 0 0
0 0 0
0 0 0
0 0 0
0 0 0
0 0 0
0 0 0
0 0 0
0 0 0
0 0 0
0 0 0
0 0 0
0 0 0
0 0 0
0 0 0
0 0 0
0 0 0
0 0 0
0 0 0
0 0 0
0 0 0
0 0 0
0 0 0
0 0 0
0 0 0
0 0 0
0 0 0
0 0 0
0 0 0
0.0827781 0.206998 -0.053132
-0.00402423 -0.0040964 0.0153875
0 0 0
0.0167215 -0.0686783 0.0863916
-0.0597913 0.00117781 0.0286365
0 0 0
0.287331 -0.0369681 -0.260791
-0.0302809 0.211778 -0.058751
0.0064922 -0.0944083 0.0422136
0.128748 0.0490658 -0.193314
0.00367352 0.082295 -0.0586453
-0.114858 0.034878 -0.145794
0.16604 -0.0645167 0.0830522
0 0 0
-0.0388955 -0.0563641 0.0835203
0.00209473 0.124311 -0.102775
-0.00204294 0.0084027 0.118614
0.00478503 0.117542 -0.0814439
-0.00859336 -0.0856587 0.00444383
0.0433721 0.211155 0.0534434
0.0273249 0.0369483 -0.0810605
0 0 0
0.141812 -0.0846416 0.0544081
-0.00366231 -0.0152792 -0.0556639
0.00642248 0.00453408 0.175672
-0.120243 -0.0341563 0.265419
0 0 0
-0.0188255 -0.0153176 0.100005
0.156853 -0.0516283 0.00371732
0 0 0
-0.106694 0.0953576 0.101567
0.00947795 -0.132617 0.0235392
-0.0259509 0.0353117 -0.0567963
-0.0689758 0.18967 -0.0904133
0 0 0
0.00911518 -0.0206279 0.00199303
0.0894087 0.13098 0.059919
0.0284213 0.0783171 0.00967445
-0.300506 -0.0190832 0.110671
0.00022127 -0.0413058 0.0106993
0.0142026 0.0195254 0.0276068
-0.0812938 0.000206383 0.227888
0 0 0
0.00493079 0.0341784 -0.0300601
-0.130768 0.000233964 -0.0147359
0 0 0
-0.0263142 0.0625913 0.0546435
-0.0358714 0.0854669 -0.011731
0 0 0
-0.0927317 -0.033329 -0.0943524
0 0 0
-0.0515773 0.0598176 0.0259154
-0.0930016 0.0926281 0.0567921
0 0 0
-0.174666 0.000277072 -0.222701
0.00939923 -0.201616 0.0133156
0.0326682 0.21267 -0.0794071
0.13981 -0.0338067 -0.225402
0 0 0
0.011957 0.11493 0.0133231
-0.0980536 -0.118089 0.0485052
0 0 0
0.0514112 -0.0213453 -0.00310434
-0.00997703 0.00100321 0.0558494
0.0513231 0.00554699 0.200286
-0.349906 -0.0214162 0.0127845
0.00574039 0.0471264 0.0360516
0.223182 -0.257589 0.0826944
-0.0370733 0.390716 -0.0162736
-0.0171389 0.127691 -0.312883
-0.191931 0.121379 -0.0121987
-0.254688 0.0443485 0.195801
0 0 0
-0.0259083 -0.115147 -0.0222982
0 0 0
0.0362739 0.0114587 -0.039952
0.550043 -0.313268 -0.0417929
0.402715 0.0894082 -0.0741157
0.218173 0.106605 -0.220356
0.234426 0.0660464 0.143395
0 0 0
-0.171128 0.379504 -0.0361648
-0.131872 0.0883866 0.387715
-0.0153584 -0.0165644 -0.283404
0.0954844 -0.0442623 -0.118372
0.066188 -0.0296236 -0.0278385
0.017129 0.0790924 0.150829
0 0 0
0 0 0
0.00730954 0.361533 0.0672356
-0.000157511 -0.190637 -0.190149
0.00748045 0.0128482 0.0380625
-0.0491262 0.273525 0.111031
-0.167355 0.0705145 -0.109845
-0.359493 0.0283605 0.309535
-0.219801 0.0239031 -0.0591896
-0.00264149 -0.0694461 -0.077766
-0.0119088 0.221091 -0.228329
0.0454946 0.0188983 0.0113849
0.121374 0.0761983 0.117479
-0.0110771 0.10657 -0.015292
0.0173915 -0.0592428 -0.0306585
0.00394083 -0.230699 0.134985
-0.0767907 0.048488 0.0957857
0 0 0
-0.0533979 -0.00999206 0.00196502
-0.296682 0.0662187 0.133553
-0.0211678 -0.22994 0.00202614
-0.330259 0.115981 -0.0757172
0 0 0
-0.435648 0.38693 -0.218131
0 0 0
0 0 0
0 0 0
-0.0524018 0.0236459 0.00653026
-0.0149486 0.0285728 -0.00742187
0.084251 -0.0615525 0.258424
-0.0212174 0.025372 0.0285944
-0.0441547 -0.0513052 0.192863
-0.127826 0.0408068 -0.00397441
-0.33192 -0.281969 -0.115063
-0.0711927 0.191126 0.136131
0 0 0
-0.197807 0.61884 0.296762
-0.0158857 -0.0159643 -0.0181916
-0.278317 0.516984 -0.042931
-0.0882195 -0.0419832 0.0299763
-0.0456256 -0.106597 0.0263354
-0.474883 0.30407 0.392193
-0.158837 0.246587 0.0077272
-0.0188505 -0.117305 -0.0110767
-0.170065 0.144892 -0.144652
0 0 0
-0.0087049 -0.00757527 -0.0171505
-0.246971 -0.0385448 -0.0182334
-0.237876 -0.0803449 0.473079
0 0 0
-0.153176 0.297826 0.0670367
0.00978497 -0.00220455 -0.020928
-0.103074 0.0694337 -0.237857
-0.0574014 0.136899 -0.0649828
-0.123193 -0.00777282 -0.00231677
-0.00145474 -0.000441442 0.00297584
0.0882872 0.0163995 0.0666317
0.17921 0.275652 -0.0384949
0.0753015 0.0406725 0.0507829
0 0 0
0.287394 0.0774454 -0.0263698
0 0 0
0.01876 0.0535699 0.0608304
0.00291902 0.00515323 -0.314761
0 0 0
0 0 0
-0.217952 -0.013416 -0.0821142
-0.0464436 -0.0273039 -0.0736255
0.191307 -0.196884 0.0514183
0.180979 -0.628368 -0.271899
0 0 0
-0.0622274 -0.164169 -0.000661557
0 0 0
-0.127171 0.0826362 0.0559856
-0.0315722 0.0194324 -0.0532826
-0.0187385 -0.312666 0.0438949
0 0 0
-0.179949 0.0324659 0.18423
-0.172658 0.0652229 0.0993356
-0.131562 -0.0970425 0.0199033
0.000239531 0.181028 0.0730466
-0.126323 0.00359274 0.10711
-0.339061 0.100166 0.172574