<?xml version="1.0"?>
<VTKFile type="RectilinearGrid">
<RectilinearGrid WholeExtent="0 32 0 32 0 32" Origin="0 0 0" Spacing="1 1 1">
<Piece Extent="0 32 0 32 0 32">
<PointData>
</PointData>
<Coordinates>
<DataArray type="Float32" format="ascii">
0 0.524874 1.04975 1.57462 2.0995 2.62437 3.14924 3.67412 4.19899 4.72386 5.24874 5.77361 6.29849 6.82336 7.34823 7.87311 8.39798 8.92285 9.44773 9.9726 10.4975 11.0224 11.5472 12.0721 12.597 13.1218 13.6467 14.1716 14.6965 15.2213 15.7462 16.2711 16.796 
</DataArray>
<DataArray type="Float32" format="ascii">
-5.03879 -3.62163 -2.20447 -0.787311 0.629849 2.04701 3.46417 4.88133 6.29849 7.71565 9.1328 10.55 11.9671 13.3843 14.8014 16.2186 17.6358 19.0529 20.4701 21.8872 23.3044 24.7216 26.1387 27.5559 28.973 30.3902 31.8074 33.2245 34.6417 36.0588 37.476 38.8931 40.3103 
</DataArray>
<DataArray type="Float32" format="ascii">
0 0.524874 1.04975 1.57462 2.0995 2.62437 3.14924 3.67412 4.19899 4.72386 5.24874 5.77361 6.29849 6.82336 7.34823 7.87311 8.39798 8.92285 9.44773 9.9726 10.4975 11.0224 11.5472 12.0721 12.597 13.1218 13.6467 14.1716 14.6965 15.2213 15.7462 16.2711 16.796 
</DataArray>
</Coordinates>
<CellData>
<DataArray type="Float32" Name="Vector" NumberOfComponents="3" format="ascii">
0 0 0
0 0 0
0 0 0
0 0 0
0 0 0
0 0 0
0 0 0
0 0 0
0 0 0
0 0 0
0 0 0
0 0 0
0 0 0
0 0 0
0 0 0
0 0 0
0 0 0
0 0 0
0 0 0
0 0 0
0 0 0
0 0 0
0 0 0
0 0 0
0 0 0
0 0 0
0 0 0
0 0 0
0 0 0
0 0 0
0 0 0
0 0 0
0 0 0
0 0 0
0 0 0
0 0 0
0 0 0
0 0 0
0 0 0
0 0 0
0 0 0
0 0 0
0 0 0
0 0 0
0 0 0
0 0 0
0 0 0
0 0 0
0 0 0
0 0 0
0 0 0
0 0 0
0 0 0
0 0 0
0 0 0
0 0 0
0 0 0
0 0 0
0 0 0
0 0 0
0 0 0
0 0 0
0 0 0
0 0 0
0.0139332 -0.00700679 0.0220326
-0.0710459 0.111901 0.0158501
0 0 0
-0.013398 -0.272909 0.000422371
0.0363802 0.178832 0.029295
0 0 0
0.303154 -0.116786 0.00270225
0.0577087 -0.109376 -0.00945435
0.00361453 -0.0234315 0.00572239
-0.0574166 -0.0150588 0.0620985
0 0 0
0.0413491 0.0372696 -0.010418
0.1308 -0.00426541 -0.0016917
0 0 0
-0.121981 -0.109521 0.00508819
-0.215202 0.149611 -0.153363
-0.144943 -0.279613 0.10517
0.213263 -0.0802184 0.0196305
0 0 0
-0.0458616 0.0223735 -0.0970276
0.101005 0.0820979 0.0541645
0 0 0
-0.149286 -0.121205 -0.0486548
-0.0591767 0.148555 -0.0300226
-0.0385943 -0.017417 0.0256059
0.131397 0.0436625 -0.0687869
0 0 0
0.0348673 -0.0640813 -0.0485998
-0.0101063 0.101659 -0.0796533
0 0 0
0.165001 0.0463626 0.113313
0.0149021 -0.0663422 -0.0210121
-0.0017139 0.0819043 -0.119248
0 0 0
0 0 0
-0.113599 0.00999002 -0.0217228
0.0087291 -0.00961385 -0.0762723
0 0 0
0.353464 0.0161787 -0.0596392
0.0318321 0.0188093 -0.00302348
0.00997983 -0.00358509 0.00415813
0.145468 -0.316144 -0.0034351
0 0 0
-0.00667084 -0.000472047 0.0243223
-0.10121 -0.108439 0.0513548
0 0 0
-0.0406376 -0.22153 0.0733623
0.307357 0.0210745 0.0964753
0.237873 0.0608876 -0.0995207
-0.0945296 0.00148069 -0.0633916
0.0241829 0.0286755 0.0258302
0.371158 -0.0685973 -0.00922497
0.00898018 0.00246987 -0.0111815
0 0 0
-0.0597309 -0.0366756 -0.00199181
0 0 0
0 0 0
-0.27025 0.185574 -0.0232531
0 0 0
-0.0490286 -0.0144259 0.0755672
0.078297 -0.315264 0.0581112
0 0 0
-0.176399 0.0297839 0.10005
0.0624711 -0.00567415 0.104463
0 0 0
-0.0640058 0.247626 0.431563
0.0717641 0.112186 -0.134553
0.096619 0.0910921 0.0457107
-0.0798437 -0.184508 -0.28296
0 0 0
0.170177 0.227463 -0.00344508
-0.00428776 -0.117653 0.016402
-0.183092 -0.117589 0.0926422
-0.30919 0.129881 -0.000707837
0.000587889 -0.0117194 0.0624021
-0.221372 -0.0049787 -0.184518
0.000135556 -0.227591 -0.0231624
0.170821 -0.250844 -0.457035
0.100571 -0.0309346 0.0309308
-0.0851868 0.0187637 -0.0145429
-0.0924026 0.151967 0.0147998
0.0649916 -0.0677831 0.0694842
-0.000112296 0.0162081 0.0678188
0 0 0
0.0362485 -0.021463 0.0377605
0.202202 -0.319195 -0.113534
0.120643 -0.0843489 -0.0915358
-0.00137199 0.0131731 0.262862
-0.47805 0.114745 0.19673
-0.252574 0.113948 -0.0998962
-0.0916394 -0.0429006 0.0785423
-0.21713 -0.0885637 -0.00145444
-0.265137 -0.145721 -0.08747
-0.0611467 -0.0487831 0.0315439
-0.205339 0.260691 0.0457762
0.0155338 0.116758 0.312716
0 0 0
0 0 0
-0.138163 -0.0410623 -0.0744425
-0.238801 -0.255127 0.166117
-0.101176 0.0369556 0.0199629
-0.242512 0.141955 0.00531679
0.0788219 -0.056346 -0.0891772
0.0491659 0.224814 0.0911265
0 0 0
0.397454 0.0429118 -0.0971357
-0.0224107 0.0605848 0.126815
0.0404729 0.449991 -0.235238
0 0 0
0.274583 -0.441043 -0.0918208
-0.155502 0.0122356 -0.0390504
0.37953 -0.393817 0.211939
-0.0109398 0.0207308 0.136864
0 0 0
0 0 0
0.18679 -0.0421598 0.201646
0.115531 -0.185039 0.188977
0.0985641 -0.0862419 0.0727387
0 0 0
-0.00637934 -0.0523544 0.00745431
0 0 0
-0.0108391 -0.0717376 0.0842936
0 0 0
-0.14135 -0.326316 0.0273719
-0.367674 -0.0464681 -0.186284
-0.155089 -0.0954087 -0.0993571
0 0 0
-0.0523615 0.264223 -0.269954
-0.0259316 0.0379261 -0.0205783
0.0641964 -0.107683 -0.31169
-0.00391118 -0.199356 -0.285653
-0.344942 0.304874 0.000598943
-0.185827 0.0649079 0.0732304
-0.104863 -0.169818 -0.055025
-0.0215693 -0.00479454 0.0345657
-0.369389 0.0554551 0.0575667
-0.128681 -0.0471761 -0.0813495
-0.340243 -0.206386 -0.403684
0.0672364 0.0585875 0.0586676
0.191146 -0.103518 -0.0594744
0 0 0
-0.279781 -0.117221 -0.0495769
-0.0521814 0.0564079 -0.130949
0 0 0
-0.0276851 -0.0157808 -0.0883525
-0.0828552 -0.0052815 0.200592
0.130957 -0.170092 -0.227437
-0.0442485 0.00204247 0.0061427
-0.224591 -0.304104 0.0603155
0 0 0
-0.087748 0.139882 -0.00186943
-0.379099 -0.0691663 -0.236692
0 0 0
-0.220792 -0.162008 -0.308821
0 0 0
0 0 0
-0.132932 0.0222498 -0.14411
-0.00193085 0.0980416 0.00964902
0.126866 0.115852 0.241706
0.00272975 -0.0409871 0.0532254
0 0 0
0.357145 0.212048 -0.0384525
-0.13273 -0.040973 0.339427
0 0 0
-0.31709 0.0607247 0.0188971
-0.378008 -0.065704 0.0896838
0 0 0
-0.0328262 0.309405 0.280999
-0.522031 0.540198 -0.198631
-0.345956 0.122673 0.10968
0.0635899 0.100803 -0.19203
-0.212843 -0.0361249 0.0729372
-0.134413 -0.396344 0.316124
-0.161778 -0.133697 0.00642089
-0.112497 -0.0206335 0.0274308
-0.278881 0.104755 0.133675
0 0 0
-0.109336 -0.637826 -0.0908924
0 0 0
-0.088434 -0.319694 -0.1542
-0.413907 0.114235 0.237304
-0.00266683 -0.0594703 0.0234169
-0.246488 0.161546 -0.0419537
0 0 0
0.0118894 -0.00419196 -0.0566446
0.0105151 -0.107739 -0.133632
0.148826 -0.0294312 0.122548
0.355991 0.00855997 0.144026
-0.171614 0.0446625 0.0539074
0.0367352 -0.0569326 0.0773735
0.00186628 -0.125859 0.331424
0 0 0
0.294023 -0.0859531 -0.195387
0.0082207 8.51328e-05 -0.00382519
-0.125527 -0.0250406 0.0345444
0 0 0
-0.0713099 0.303198 -0.0867537
-0.0720982 -0.100712 -0.0634144
-0.194354 -0.238489 0.0277094
-0.158214 -0.0741522 0.267574
-0.000581241 -0.326796 0.428328
-0.28826 0.0196959 -0.0876077
0.151381 0.25317 0.0918584
0.000541853 -0.13124 -0.105382
-0.152784 -0.0977604 -0.268238
-0.26982 0.0328659 0.0284797
0.0666541 0.161844 -0.0939675
0 0 0
0.0273896 -0.169847 0.220284
0.000683242 0.0545681 -0.000990291
-0.0405985 -0.690301 0.00492874
-0.25666 -0.453734 0.137497
0 0 0
-0.326026 -0.140239 0.148678
-0.343628 0.131127 -0.132286
0 0 0
0 0 0
0.0323281 -0.0172302 -0.000257917
-0.000383996 -0.0190143 0.0239969
0.0313678 0.175532 -0.0384075
0.201169 0.0192044 0.168443
0 0 0
0.0680224 -0.0228245 0.329068
0 0 0
0 0 0
0.157514 -0.306071 -0.0446581
0 0 0
0 0 0
-0.186063 -0.0160862 0.000318531
-0.0057364 0.00116717 0.0070794
-0.123886 -0.293937 0.138555
0.0368569 0.0342138 0.00362668
0 0 0
-0.0940887 0.169229 0.0944374
0 0 0
0.0901565 0.195122 -0.193732
0 0 0
-0.299912 0.202216 0.122204
-0.123583 0.0534848 0.0646666
-0.000481904 0.0242804 0.0892182
-0.000360099 0.356234 0.101276
-0.310951 -0.203128 -0.0697083
0 0 0
0.280344 -0.311005 0.190625
0 0 0
0 0 0
0 0 0
0.11913 -0.0354173 0.0296954
-0.117077 -0.126922 -0.195272
0 0 0
-0.192598 0.150082 -0.0517328
7.21156e-06 0.0638854 0.148387
0.0644149 -0.119931 -0.16836
0.0351488 -0.0428501 0.00817926
-0.195845 0.0350186 -0.218687
-0.357916 0.199654 0.0340492
0.138789 -0.112244 0.416542
0.0910124 -0.0486491 -0.0870397
-0.044083 0.0724388 0.23544
-0.166934 -0.365164 -0.150957
0.0381022 0.0417134 0.0285476
0 0 0
-0.127144 -0.00949326 0.00439853
-0.0260795 -0.251796 -0.0204589
-0.0613776 0.0369366 0.175734
-0.022949 0.135122 -0.0132663
0 0 0
-0.0472055 0.350604 0.0679665
-0.089345 0.0702826 0.041943
0.0598499 -0.255969 -0.106823
0 0 0
0 0 0
0.0865319 -0.0656833 -0.0519508
-0.132607 0.0440448 0.00143252
0.0162323 0.0223793 0.0729839
-0.27408 -0.205341 0.117299
-0.261073 -0.0139097 0.147913
-0.275458 0.231544 -0.0945536
-0.0719331 0.0596642 -0.0286284
0.17749 -0.518631 0.240974
0 0 0
-0.176438 -0.294848 -0.419955
0 0 0
-0.0125526 0.0121871 0.00235634
0 0 0
-0.0960298 0.0651355 0.000786836
0 0 0
0.14006 -0.12554 0.00172617
0 0 0
-0.121554 -0.0151159 -0.261942
-0.0453578 -0.131545 0.279555
0.000486612 0.100821 -0.148073
-0.111843 0.0392575 -0.0303554
0 0 0
0.0649351 0.196942 0.338766
0.180301 -0.0834796 -0.0131786
-0.0915763 0.0896332 -0.06615
0.0384914 0.0432275 -0.0564144
0.0973513 -0.106993 -0.2004
0 0 0
0 0 0
0.0684452 -0.458632 0.0367062
-0.0327789 -0.169778 -0.294963
-0.0189922 0.0842476 -0.347488
-0.0670966 0.11287 0.146389
2.27511e-05 -0.0250513 0.0321981
-0.346691 -0.00457879 -0.0289388
-0.0763611 0.017999 0.0115872
0 0 0
-0.209879 0.0103863 -0.339272
0 0 0
0 0 0
0 0 0
0.114402 -0.0372706 -0.0644595
0.358415 0.288506 -0.229244
0.122113 -0.0395533 0.0304454
0.326273 0.0895742 -0.0892694
-0.220977 0.107759 0.301605
-0.110299 -0.146021 -0.100423
0.00151824 0.00241533 0.0387867
0.00158773 -0.112481 -0.0927829
0.152341 0.0543231 -0.185211
0 0 0
0.00927923 0.044384 0.164638
0 0 0
0 0 0
0 0 0
0.474439 0.258502 0.144191
0 0 0
0.0929096 0.114979 -0.087673
0.0736983 -0.0140883 -0.0092903
0.0497658 -0.00602457 -0.0412723
0.389315 -0.132926 0.0412838
0 0 0
-0.187334 -0.3546 0.0941874
0.0471601 -0.0515734 -0.0547767
0 0 0
0.139855 0.0408247 -0.0858543
0 0 0
0.159345 -0.0339526 -0.195277
0 0 0
0.0289342 -0.110946 -0.0347913
0.0905366 -0.123267 -0.191762
0 0 0
0.00230106 0.0197421 0.0019335
-0.0782894 -0.0169551 -0.0319654
-0.0328463 -0.435467 -0.360229
-0.0170631 0.226684 0.0358026
0 0 0
0.0305404 -0.0411003 -0.00203023
-0.00953605 0.0020943 0.119151
0 0 0
0 0 0
0.189167 0.110024 -0.47929
-0.00369563 0.0176985 -0.0346155
0.252692 0.0106485 -0.323187
0.13659 -0.0678637 -0.303335
0.0206322 -0.00185849 -0.0519418
-0.28003 -0.35093 -0.159047
-0.0543646 0.0230564 -0.00236797
-0.102514 -0.10692 0.109891
0.146069 0.0640574 0.115193
0 0 0
0.0195266 0.0706708 0.0468264
-0.111305 -0.0379716 -0.0481182
-0.341991 -0.135508 -0.238296
0 0 0
-0.052637 0.215499 -0.338777
0.0277914 0.0744225 -0.012492
0 0 0
-0.0835659 -0.332728 -0.191111
0 0 0
0.00635444 0.175949 -0.410961
0 0 0
-0.0358705 0.0829124 0.000468537
0.0219015 0.0627976 -0.120992
-0.191683 0.0147174 -0.0457701
-0.400257 0.322746 0.183483
0 0 0
0.118278 0.0339049 0.0440867
0.245346 0.178247 -0.328826
0.283012 -0.0954335 -0.144301
0.0550027 0.0268632 0.0529322
-0.234733 0.219146 0.10655
0.498026 -0.0166267 0.13175
0.000506331 0.16014 0.181467
-0.000736349 0.0922145 0.19479
0 0 0
0.0816276 -0.0186671 -0.193355
-0.168373 0.0272515 0.198657
0 0 0
-0.0130167 0.0194092 -0.00345248
0.00473722 0.000917734 0.0416692
-0.041772 -0.232734 0.138156
-0.0238007 0.0326401 -0.0162155
-0.000893488 0.0255196 0.0195159
0.060768 0.0328447 -0.0553888
0.323206 -0.189001 -0.00293436
0 0 0
0.023108 0.269751 -0.0478882
0 0 0
0 0 0
-0.183247 -0.493759 0.164677
0 0 0
0 0 0
-0.0421048 0.0217156 0.00101162
0 0 0
0.115699 0.0902951 0.131192
0 0 0
0 0 0
-0.0469745 -0.00946697 -0.114296
-0.157291 0.0995158 0.192107
0.283238 0.0693367 -0.190125
0.0866755 0.130902 -0.299598
-0.028384 0.375764 0.348643
0.001574 0.120784 0.0346775
-0.0036235 0.138381 0.018905
0.0182343 0.286127 -0.0909461
0.16238 0.530719 -0.156296
0.216705 0.038506 0.207282
0 0 0
0 0 0
0.0704083 -0.231158 -0.274844
0.0155685 -0.0181376 0.0127349
0.517262 -0.115865 -0.15749
0.259321 0.134948 0.0833729
-0.000991414 -0.0398305 0.0557799
-0.0213722 -0.154193 -0.135851
0.00830664 -0.0165796 -0.0129759
-0.0274868 -0.199266 0.235041
0.0394481 -0.00330315 -0.127247
0.0136059 0.100957 -0.406969
-0.059867 -0.0906625 0.204452
-0.00157629 0.176676 -0.218534
0 0 0
0.0951991 0.335052 0.238963
0 0 0
-0.340231 0.19393 0.272289
-0.205446 0.106624 -0.0274781
0.0795491 -0.0151506 -0.0488457
0 0 0
-0.0855372 0.375835 -0.103792
0 0 0
-0.0994454 -0.000717436 0.0918173
-0.244969 -0.0727483 0.130319
-0.0306357 0.031781 -0.0240686
-0.113003 0.189421 0.123201
-0.287843 0.122308 0.111986
0.18531 0.057319 0.0035894
0 0 0
0 0 0
0.230465 -0.0199574 0.387581
0.0155552 0.0315338 -0.227989
0.138273 -0.0339956 0.0983244
0 0 0
0.00222723 -0.0746578 -0.000699774
-0.229746 -0.140046 -0.242721
0 0 0
-0.284851 0.0716719 -0.300047
0 0 0
-0.347277 -0.421773 0.38362
0.0158703 -0.278328 0.187403
-0.210488 -0.243374 -0.310737
0 0 0
0.0940855 0.35593 -0.242819
0.065837 -0.0241641 -0.000767379
-0.105757 0.07946 0.048723
-0.105677 0.0657031 0.154888
-0.327119 0.146991 -0.134225
0 0 0
0.102364 -0.0197844 -0.017421
0.0274911 -0.0174999 0.00342161
-0.0174339 0.266502 0.154509
0 0 0
-0.0498308 -0.0338517 -0.0661138
-0.340546 -0.226343 0.043632
-0.0331932 -0.00983635 -0.0511336
0.00517053 0.260823 -0.234809
0.182405 -0.0381738 0.0204826
0.0399976 0.0431242 -0.0940492
0.119138 0.225057 -0.306755
-0.0166392 0.384523 -0.404453
0.00899444 0.0821037 0.000725232
0 0 0
0 0 0
0 0 0
0.0749768 -0.00651746 -0.143603
0.265188 0.166342 -0.0406693
0.197018 -0.104627 -0.0386516
0 0 0
0.171269 0.341062 0.28316
0 0 0
0 0 0
0 0 0
0 0 0
0 0 0
-0.00274696 0.0907058 -0.0860354
-0.247365 -0.0216448 0.495485
-0.094878 0.0321629 -0.0590718
-0.00775626 0.015202 -0.19208
0.000623553 0.0617725 0.000643441
0.0010312 0.121228 -0.0402818
0.176641 0.191631 -0.081978
0 0 0
0.247171 -0.00172548 -0.00307452
0.204221 0.0593048 0.202182
-0.383148 0.169554 -0.126514
-0.122541 -0.0165662 -0.120081
-0.0930294 -0.0473584 -0.260905
0 0 0
0.0219161 -0.191869 0.105149
0 0 0
-0.106564 -0.0588514 -0.0868219
-0.0533796 0.0965394 -0.0104785
0.0478988 -0.111124 0.0134273
0 0 0
-0.0484396 -0.163887 -0.257851
0.000876589 0.0689124 -0.0539219
0.00359696 -0.224486 0.144172
0.129761 0.423543 -0.209111
0 0 0
0.0064798 -0.174535 -0.000422003
0 0 0
0.0754047 0.00431386 -0.210472
0 0 0
-0.115847 -0.176529 0.278037
0.0483035 -0.0776595 -0.0371287
0.0835678 -0.084543 -0.0216439
-0.0684209 -0.100964 0.233902
-0.0184829 0.00199507 0.0153219
0 0 0
-0.00289081 -0.0130199 0.0104475
0.0655017 0.0191019 -0.0186839
-0.0763897 -0.102816 0.10659
-0.176439 -0.0762048 0.140778
-0.0119741 0.00230808 0.0595039
-0.0282035 0.0964067 -0.455008
0 0 0
0.069273 -0.0208935 -0.294414
0.0101204 0.153951 -0.04339
-0.430584 -0.0985819 -0.205429
-0.0330164 -0.0260134 -0.0772935
0 0 0
-0.122969 -0.0608187 0.0437816
0.24121 -0.164705 0.16821
0.151964 0.154366 -0.132111
0 0 0
-0.0479102 -0.230322 -0.291821
-0.208901 0.101271 0.244794
-0.270486 -0.0473676 -0.284821
0.000204381 -0.0110232 -0.0532378
-0.0973232 0.365888 0.137816
0.00273957 -0.04382 -0.226229
-0.00815028 0.225842 0.125428
-0.113883 -0.244484 0.453129
0.334413 -0.0709851 -0.261464
0.183463 -0.0953146 -0.0783998
-0.0233679 0.0316627 -0.0266568
0 0 0
0.150257 -0.201326 0.164709
0 0 0
-0.170125 0.0693211 0.00370719
-0.0493123 -0.0551944 3.16856e-05
0 0 0
-0.00852154 -0.521497 0.0246892
0.0361987 -0.0273824 -0.000584768
0 0 0
0 0 0
-0.0281813 -0.0722041 0.0126398
0.0163475 -0.00449835 -0.0284083
-0.0932936 0.316507 -0.314015
-0.00312774 0.0669649 -0.0972581
-0.0573812 0.0209835 -0.134365
0.186893 -0.0473409 -0.251225
0.0360485 0.0148019 -0.0508506
0.313515 -0.198628 -0.340746
0 0 0
0.188854 0.0203037 0.191708
-0.154232 -0.12443 -0.0425338
-0.0114623 -0.272082 0.0760622
0 0 0
0.0575399 -0.221898 -0.112324
0 0 0
-0.0116957 0.0662945 0.171235
-0.0306396 0.00223068 -0.058903
-0.0327489 -0.0129044 -0.0722009
0.223835 0.218471 -0.0955017
0.407883 -0.352108 0.0283832
0.0234466 -0.0131319 -0.0239036
0 0 0
0 0 0
-0.00112521 -0.00317286 -0.00293254
-0.101594 -0.117831 -0.29959
-0.0580792 -0.269219 0.348503
0.0881312 0.0418502 -0.123437
-0.0103723 -0.191496 -0.0791441
0.0008704 -0.0628451 -0.0249203
-0.0392226 -0.0128889 0.263514
-0.000349449 0.011643 -0.172142
-0.0598123 -0.228136 0.36904
0 0 0
-0.0899534 -0.231121 0.448646
0 0 0
0.0381309 -0.0716155 0.00924123
0 0 0
0 0 0
0.168101 -0.16163 -0.0673754
0.109959 -0.131847 -0.0806835
0 0 0
0.0216391 0.0250576 -0.0273494
0 0 0
0.159199 -0.23858 0.0597723
0.00192472 -0.00286939 -0.02806
-0.0196773 -0.0988125 -0.1085
-0.0296794 -0.00905717 -0.0657199
-0.174884 0.082347 -0.302749
0 0 0
-0.00714771 -0.216413 -0.171142
0 0 0
0.0994745 -0.550342 -0.0160694
-0.0600244 0.128983 -0.0312601
0.0765769 0.124332 -0.22531
0.0693211 0.27886 -0.0826743
0 0 0
-0.0104904 -0.0787269 0.0215467
-0.00553332 0.0126124 -0.0512275
-0.0606728 -0.0431473 -0.136095
-0.0568642 -0.0942246 -0.0219491
0 0 0
0 0 0
0.0641106 -0.0132868 0.000191208
0.109587 -0.300908 -0.139927
0.000257082 -0.0490693 -0.00336332
-0.072439 -0.136787 0.0719421
0 0 0
-0.20637 0.248768 0.120029
-0.0159702 -0.0254444 -0.225507
-0.1578 -0.0624171 -0.0894132
0 0 0
-0.195312 0.373785 0.0142926
0.192617 0.134835 -0.0709589
-0.119954 0.106023 -0.00814654
-0.470127 0.021617 0.0678306
0.0726328 0.113913 0.0699274
0 0 0
-0.0285698 -0.315287 -0.377498
0 0 0
-0.03649 -0.0980222 -0.00111501
0 0 0
0.294905 -0.104642 -0.249657
0 0 0
-0.00273382 -0.0898897 0.145796
-0.0357385 0.0148925 0.0399009
0 0 0
0 0 0
-0.133255 -0.109298 -0.0576512
-0.137951 -0.0166815 -0.00252198
0 0 0
0 0 0
0.011896 -0.0814984 -0.021395
-0.219073 0.2125 0.0623989
-0.125064 0.166542 -0.283778
-0.119499 -0.255517 0.0711109
-0.0802997 -0.224306 0.259546
0 0 0
-0.00410793 -0.205195 -0.0390361
-0.0833139 -0.303835 0.0746228
0 0 0
-0.057182 -0.0912896 -0.0368512
-0.197483 -0.311947 -0.0555113
0 0 0
0.0131367 -0.207537 0.076095
-0.0138081 -0.0174728 -0.0033723
0 0 0
-0.0346192 -0.16378 -0.30294
-0.0027154 -0.0779024 0.160689
-0.0774916 -0.0542086 0.141263
-0.118199 -0.0384164 -0.0769598
-0.0809047 -0.225709 0.224066
0 0 0
-0.0687336 0.113605 -0.098881
0 0 0
0.0434473 0.0931915 0.309841
0 0 0
0.00162764 0.133017 0.0316901
-0.262332 0.136 0.109051
0 0 0
0.199324 -0.267571 -0.293915
0.0900444 -0.0859083 0.00268272
-0.0345645 -0.0894304 0.48356
0 0 0
-0.0930052 -0.188869 0.00694849
-0.0804035 0.0406895 -0.0508522
0.00319958 0.0966718 0.0385021
-0.0709617 0.00861865 -0.139525
0.160961 -0.159022 -0.00779508
-0.123109 -0.0099027 0.0642198
-0.16225 -0.104806 0.0664734
-0.246656 -0.13427 0.18566
-0.0835941 0.0598618 0.0339809
-0.373794 -0.133234 0.0724032
0 0 0
-0.499206 -0.0988091 -0.323626
-0.0879789 -0.17372 0.0556905
-0.027657 -0.54868 0.0653711
0 0 0
0 0 0
0.104478 0.0353167 0.00240332
0 0 0
-0.000177662 0.091195 -0.0986671
0 0 0
0 0 0
-0.0268322 0.19227 -0.197453
0 0 0
0 0 0
0 0 0
0 0 0
0.1055 0.103549 0.154101
-0.0137402 -0.0344493 0.00866253
-0.00617447 0.195919 -0.100048
0 0 0
0.0494643 -0.238351 0.0831451
0.117072 -0.0499027 -0.27905
0 0 0
0 0 0
0.223847 0.158247 -0.0587738
0 0 0
0.123611 0.00149159 0.287116
-0.0172205 0.0575028 0.00997612
-0.174511 -0.514707 -0.117361
0 0 0
0.0721873 -0.0386132 0.102569
0 0 0
0.00382914 0.0761716 0.400088
-0.157006 0.349102 -0.023025
0 0 0
-0.160281 -0.282338 0.00639583
-0.0071823 -0.00318018 0.00779222
0.198356 0.351229 -0.157509
0.0055786 0.0102738 -0.00532598
0.288971 -0.0302175 -0.25498
-0.000689997 -0.0629491 0.115628
0.142479 -0.212386 -0.0457057
0.0690089 -0.0155519 0.0363374
0 0 0
-0.1124 -0.0535727 -0.238299
0 0 0
-0.039095 0.218429 0.438618
0 0 0
0 0 0
-0.0289654 -0.0549497 -0.0135692
-0.0836476 0.0963004 -0.0126063
-0.137048 -0.113035 -0.0315939
0.0796001 -0.588268 0.31847
0 0 0
-0.00518207 -0.196631 -0.0313305
-0.0156686 -0.0195126 -0.00244289
0 0 0
0.134865 -0.496743 7.03041e-05
0 0 0
0.253658 0.32825 0.0142752
0.306906 0.359517 0.321688
0.030669 -0.174865 -0.102168
0 0 0
0.0729869 0.0350931 -0.242126
0 0 0
-0.217823 0.56501 0.141311
0 0 0
0.114104 -0.130656 0.0290948
0.256854 0.505601 -0.234392
0.180294 0.0802391 -0.15543
0.535801 0.164678 -0.0646042
0.100083 -0.0795511 0.00238919
-0.0337263 0.0795007 0.0854095
-0.126726 -0.0913055 0.412173
0.0834853 -0.182269 0.101831
-0.0455366 0.0122159 -0.000149842
-0.138102 -0.063491 0.103558
-0.178451 0.0629778 -0.0899893
-0.0723981 -0.119705 0.0168882
-0.299417 -0.122628 0.188455
-0.207947 0.147639 0.0128623
-0.24917 -0.796936 -0.497964
0 0 0
-0.346149 -0.421712 0.0518362
-0.530988 -0.021576 -0.418518
-0.0471909 -0.0245133 -0.0336543
-0.054256 -0.159774 -0.111813
-0.110475 0.0509066 -0.0314081
0.33027 -0.273371 -0.0163719
0.0105529 0.0042483 0.00597079
0 0 0
-0.0391384 0.0858976 0.0768814
0.217278 0.290708 0.0352007
0.143419 0.042562 -0.377415
0.062379 0.012476 0.153957
0.0228281 0.0210349 0.00536061
0.0514143 0.0124196 -0.0692422
0.09002 0.152277 -0.0238256
0.180367 0.226761 -0.232829
0 0 0
0 0 0
0 0 0
-0.00632439 0.0406104 -0.069022
-0.176685 -0.220111 -0.466044
0 0 0
0.0397498 0.170869 0.209913
0.0136975 0.219764 0.00998719
0 0 0
-0.140258 -0.0461535 -0.0264731
-0.230783 -0.26313 0.0805231
-0.107453 -0.193566 0.32451
0 0 0
-0.228223 -0.0867946 -0.105934
0.0443326 -0.0477959 -0.121146
0 0 0
0.0298806 -0.00415168 0.00063763
0.00990507 0.0109864 -0.00810329
0.0839893 0.00612851 -0.0793745
0.0469449 0.220642 -0.518685
-0.0231464 0.0350769 -0.00054998
-0.16995 0.0823054 -0.0843848
0 0 0
-0.0139104 -0.152723 -0.00514075
-0.00490086 -0.130938 -0.0970297
0.10502 0.0692172 0.00591804
0 0 0
-0.0210844 0.0685355 -0.19259
0 0 0
-0.121459 0.177622 0.168026
-0.0772253 0.119071 0.0411853
-0.093758 0.0473528 0.169645
0 0 0
0.263135 0.0248312 0.32899
-0.0433354 0.142061 -0.0330097
0.015972 -0.00271545 0.00192692
0 0 0
-0.345865 0.00786531 0.132126
0.251487 -0.114446 -0.0713782
0.0854088 0.0583267 0.011746
0 0 0
-0.160878 -0.0880654 -0.0726721
0 0 0
-0.194282 0.00951197 -0.236733
-0.0716829 -0.00249731 0.140094
-0.0392687 -0.000181444 -0.0710667
0 0 0
-0.0277181 -0.0156539 0.0999376
0 0 0
-0.0296638 0.0370138 3.70549e-06
-0.0524054 -0.00348626 -0.158891
-0.526535 -0.377789 0.185672
-0.0345448 -0.0416395 0.103032
-0.00747328 0.0923583 -0.0100465
0.00750997 -0.0627726 0.0566047
0.175016 0.0292527 0.0136553
0 0 0
0 0 0
0.211757 -0.00780549 0.247313
-0.0160649 0.0323965 0.0537866
-0.247326 -0.259263 0.293957
-0.0605503 0.313372 0.0886704
-0.17232 0.461076 -0.273993
0 0 0
0.0108123 0.134545 0.01505
0.0908957 0.0880386 -0.0701357
-0.00088456 -0.0258752 -0.00891115
0.015326 0.257315 -0.00242404
-0.0209383 -0.0624574 0.159573
-0.107113 0.0742928 0.026791
0 0 0
0.127047 -0.0849221 -0.104009
0.00454597 0.00385357 -0.00100357
-0.156253 -0.469137 -0.0404603
-0.0747528 0.0149209 -0.110699
0.344488 -0.149375 0.32052
0.0347023 -0.00987369 0.0878608
-0.115818 -0.215062 0.068552
0.0137404 0.0562124 0.00722143
0 0 0
0 0 0
-0.00174968 -0.00331524 -0.00955446
0 0 0
-0.226038 -0.146439 0.0232671
0.0282825 0.0201872 0.0376204
0.0871582 -0.0699253 0.00490075
0 0 0
0 0 0
0.0620611 -0.146826 -0.336648
0 0 0
-0.129215 -0.224647 0.157525
0 0 0
-0.196658 -0.367123 -0.166986
0 0 0
0.322896 0.276645 -0.0851312
0 0 0
0.0980278 0.279104 0.0285385
0.239508 -0.188601 -0.402457
0 0 0
-0.176833 -0.391122 -0.138677
0.299786 0.195464 0.164359
0.0034246 -0.13473 0.0732716
0.0948846 0.0700684 -0.302767
0.298178 0.00415812 -0.0288281
0.364673 0.00159054 -0.134875
0.126307 0.0859492 -0.182979
0 0 0
0.00920852 -0.0143794 0.0046407
0.294205 -0.036811 0.0308655
0.146859 -0.345485 0.0733896
0.0263423 0.00485588 -0.047146
0 0 0
0.00952961 0.00288725 0.00109296
-0.00767989 0.0463005 0.058135
0.207937 -0.00588781 -0.322391
0.0546301 -0.14456 -0.370745
0 0 0
-0.170569 0.293813 -0.00947245
0 0 0
-0.0450168 -0.264403 0.23793
0 0 0
0 0 0
-0.100984 -0.225134 0.117832
-0.00317694 -0.000413889 0.0019516
-0.121336 -0.247691 -0.119983
0 0 0
0.0165127 -0.0310705 0.0376151
-0.000495278 0.0182658 0.00211796
-0.0309283 0.0428836 0.15617
-0.078733 -0.128272 0.13646
0.0473878 -0.100698 0.237036
-0.000609192 -0.125913 -0.21625
-0.0968774 -0.0397555 -0.0239719
0.155389 0.0117309 -0.0981577
0.100427 0.0648615 -0.0286796
0.141442 -0.110065 -0.0460694
0.0456941 0.0502491 0.0722479
0.2841 -0.0897166 0.00708963
0 0 0
0.219413 -0.101144 0.00484373
-0.000580912 -0.0127305 -0.0187235
-0.0783317 0.232811 -0.0856475
-0.0142942 -0.0151002 0.159857
0.00410166 -0.122757 -0.000777026
0.16251 -0.0895012 -0.00258554
0.195883 -0.241837 0.0961665
0 0 0
0.115968 -0.00667927 -0.388128
0 0 0
0.0829394 0.399689 -0.188814
0 0 0
0.14319 -0.135973 0.384393
0.386606 0.0876179 0.0191295
0.139237 -0.0513765 0.00960483
0.207557 0.0782612 -0.276809
-0.00356486 0.0166989 0.228422
0.0327898 -0.0105532 -0.136638
-0.1774 -0.0766942 -0.0567075
0.0649768 -0.126869 -0.0356849
0 0 0
0 0 0
0 0 0
0 0 0
0 0 0
0 0 0
0 0 0
0 0 0
0 0 0
0 0 0
0 0 0
0 0 0
0 0 0
0 0 0
0 0 0
0 0 0
0 0 0
0 0 0
0 0 0
0 0 0
0 0 0
0 0 0
0 0 0
0 0 0
0 0 0
0 0 0
0 0 0
0 0 0
0 0 0
0 0 0
0 0 0
0 0 0
0 0 0
0 0 0
0 0 0
0 0 0
0 0 0
0 0 0
0 0 0
0 0 0
0 0 0
0 0 0
0 0 0
0 0 0
0 0 0
0 0 0
0 0 0
0 0 0
0 0 0
0 0 0
0 0 0
0 0 0
0 0 0
0 0 0
0 0 0
0 0 0
0 0 0
0 0 0
0 0 0
0 0 0
0 0 0
0 0 0
0 0 0
0 0 0
0 0 0
-0.0472088 -0.0967582 -0.222962
0.0976324 -0.0392185 0.0277048
0.0210979 -0.0512014 0.00178013
0.0267903 0.174274 -0.150844
-0.0469861 -0.199019 -0.0724592
0 0 0
-0.0755191 -0.0114292 0.0650839
0.00635231 0.0175328 -0.0280811
-0.0272505 0.0029635 0.0385664
0.108496 0.0730764 -0.101429
0 0 0
-0.0694633 -0.054063 -0.0116451
-0.0556246 0.0303996 0.145576
0.00390925 0.0215678 -0.116443
-0.074288 -0.098875 0.0847512
0.0902337 -0.15575 -0.0115504
0.146357 0.120962 -0.0575376
0.056945 0.0134188 0.0273529
0 0 0
0.050218 0.0605363 0.0633153
-0.0761623 -0.258398 0.0827855
0.00124839 0.0254556 0.0406049
-0.129904 0.0677934 0.0781161
0.106821 0.020503 0.0156896
0.0447508 -0.0339773 -0.109128
0.0318227 -0.0609645 -0.0277387
0 0 0
0.0316855 0.0427706 -0.164668
0.0354642 -0.0356106 -0.00735458
0 0 0
0.0482502 0.0725536 0.0410012
0.109518 0.145325 0.193778
0.125458 -0.235033 -0.0837807
0.0489829 -0.0562185 0.0295473
-0.0319697 -0.0410805 -0.0137418
-0.0763557 0.0403276 -0.054787
-0.0138204 0.0574334 -0.0214274
0 0 0
0.167112 -0.00409669 -0.124479
-0.0114506 -0.131081 0.229502
-0.0322293 0.143902 -0.229159
-0.068705 -0.00847112 0.0953101
0 0 0
0.0244399 -0.0537318 -0.000965465
0 0 0
0 0 0
0.00124516 -0.0729533 0.157937
-0.042839 -0.0124062 0.0390947
-0.0124659 0.0147283 0.0133629
0.0128689 0.0455409 -0.03103
0 0 0
-0.00735079 0.00486428 -0.0368064
0.0385631 -0.00915709 -0.0181333
0 0 0
0.0611383 -0.00401037 -0.0237145
-0.0289383 -0.236194 0.421
-0.0354157 0.237096 -0.371252
-0.0855409 0.00393642 0.0747754
-0.000405486 -0.0167803 0.000905703
0.0128233 -0.124542 -0.0161256
-0.0177941 0.00179546 0.00883978
0 0 0
-0.0617856 -0.0546678 -0.0844028
-0.0230657 0.120349 0.0603948
-0.0838367 -0.0675839 0.0750047
-0.160648 0.138067 -0.150549
0.0033672 0.00723343 0.158119
0.153903 -0.17014 0.184891
0.213193 -0.179193 0.00172138
0 0 0
0.13506 0.0230841 -0.128567
0.000259393 0.334884 -0.0259425
0.0413741 -0.55601 0.0403777
0.365636 -0.121655 -0.135879
-0.0838294 0.0750117 -0.0296809
-0.28905 -0.131929 -0.004677
0.00181908 0.219616 -0.0271629
-0.136302 -0.269043 -0.016044
-0.0204855 -0.192649 -0.147314
-0.0165008 0.196023 0.0932731
-0.171728 -0.248746 -0.209924
-0.279155 -0.258171 0.124433
-0.0158937 0.172723 0.17311
-0.445608 -0.588515 -0.452836
0.0869756 0.0362986 -0.0252033
0 0 0
-0.0622292 0.101018 0.0957473
0 0 0
0.0176478 -0.0332958 -0.0471475
-0.134687 0.234087 -0.189726
-0.143876 -0.427274 0.183702
0 0 0
0 0 0
0 0 0
-0.201205 0.304574 0.00234864
0.0347193 0.00977056 0.136511
-0.51727 0.209638 0.146518
-0.510288 -0.0449122 -0.000538863
-0.0203392 -0.180992 -0.000999723
0 0 0
0.0809508 -0.197966 0.256451
-0.0594376 -0.11958 -0.176374
-0.151321 -0.171279 0.135348
0 0 0
0.05298 -0.0815123 -0.241307
0 0 0
0.00735612 -0.00878326 0.0301327
0.516151 -0.343317 0.26213
0.00301934 0.0135565 0.097099
0.0388248 0.0129931 -0.300182
0 0 0
-0.0968101 -0.219169 0.320959
-0.161952 -0.382948 0.158345
0 0 0
-0.184706 -0.228878 0.177819
-0.0279075 -0.0320043 -0.0383593
-0.0510249 -0.105262 0.0354607
0.123436 -0.537296 0.00361138
0 0 0
-0.187993 0.426004 0.00948493
-0.0988496 -0.0131232 0.0570344
-0.0198809 0.121153 -0.170851
0 0 0
-0.0911134 0.0735441 -0.157534
0 0 0
-0.184776 0.147607 0.000345025
-0.0718839 0.122365 -0.368057
-0.000694396 -0.0104891 0.000790494
-0.0857596 -0.120992 -0.028554
-0.232069 -0.240807 -0.196897
0 0 0
0 0 0
-0.393655 -0.260073 -0.300816
-0.00808098 -0.0238162 -0.0105097
0.284435 -0.470846 -0.139511
0.0006541 0.0992652 0.000945654
0 0 0
0.0527121 -0.276898 -0.526222
0 0 0
-0.186104 -0.11147 -0.04926
-0.280249 -0.128967 0.225337
0.00431174 -0.0935013 -0.333202
-0.142348 0.106118 -0.193732
-0.158296 0.0196334 0.206773
0.000445995 -0.0467476 -0.138046
0 0 0
0.225923 0.363132 -0.0562904
0 0 0
-0.0471401 0.146113 0.000998167
-0.0197267 -0.299688 0.280478
0 0 0
0.080189 -0.00440908 -0.136563
-9.01912e-05 0.0716318 -0.0821933
0.0291509 0.269318 0.117927
0.00181837 0.12922 0.0590828
-0.0635277 -0.00612087 -0.1419
0.0302898 0.0254329 -0.03596
-0.274589 0.0446269 0.0120405
0.0563524 0.00923522 0.0780539
0.037126 0.125275 0.0572722
0.0161931 0.0317359 -0.0573578
-0.0168203 -0.0956089 0.122207
-0.0965437 -0.211976 0.211735
-0.00132361 -0.136806 0.239844
0 0 0
-0.0216726 -0.0855572 -0.0476495
-0.470547 -0.075288 0.145431
-0.411137 -0.130231 0.187469
0 0 0
-0.455228 0.146352 -0.235927
-0.531315 -0.232629 -0.0285846
-0.234838 0.0248869 0.00292844
0 0 0
-0.0378324 0.167903 -0.181394
0 0 0
0.0187271 -0.0147329 -0.0171593
0.20545 -0.0726471 0.0927941
0 0 0
0.319447 -0.182305 0.120844
0 0 0
0 0 0
0 0 0
-0.147117 0.188251 -0.131548
-0.000173464 0.0211716 -0.0102974
-0.188242 0.149903 -0.145809
0.193981 -0.132571 -0.316047
0.436055 0.158851 0.0974748
0.139121 0.380674 0.119423
0.0593677 0.167017 0.0761752
-0.053703 0.0810014 0.0360273
0 0 0
0.447969 0.516239 0.0683725
0 0 0
-0.0347155 -0.28956 0.0388932
-0.0447154 0.189475 0.481861
0.268814 0.154495 -0.000829506
0.271762 0.00406668 0.162224