<?xml version="1.0"?>
<VTKFile type="RectilinearGrid">
<RectilinearGrid WholeExtent="0 32 0 32 0 32" Origin="0 0 0" Spacing="1 1 1">
<Piece Extent="0 32 0 32 0 32">
<PointData>
</PointData>
<Coordinates>
<DataArray type="Float32" format="ascii">
0 0.524874 1.04975 1.57462 2.0995 2.62437 3.14924 3.67412 4.19899 4.72386 5.24874 5.77361 6.29849 6.82336 7.34823 7.87311 8.39798 8.92285 9.44773 9.9726 10.4975 11.0224 11.5472 12.0721 12.597 13.1218 13.6467 14.1716 14.6965 15.2213 15.7462 16.2711 16.796 
</DataArray>
<DataArray type="Float32" format="ascii">
-5.03879 -3.62163 -2.20447 -0.787311 0.629849 2.04701 3.46417 4.88133 6.29849 7.71565 9.1328 10.55 11.9671 13.3843 14.8014 16.2186 17.6358 19.0529 20.4701 21.8872 23.3044 24.7216 26.1387 27.5559 28.973 30.3902 31.8074 33.2245 34.6417 36.0588 37.476 38.8931 40.3103 
</DataArray>
<DataArray type="Float32" format="ascii">
0 0.524874 1.04975 1.57462 2.0995 2.62437 3.14924 3.67412 4.19899 4.72386 5.24874 5.77361 6.29849 6.82336 7.34823 7.87311 8.39798 8.92285 9.44773 9.9726 10.4975 11.0224 11.5472 12.0721 12.597 13.1218 13.6467 14.1716 14.6965 15.2213 15.7462 16.2711 16.796 
</DataArray>
</Coordinates>
<CellData>
<DataArray type="Float32" Name="Vector" NumberOfComponents="3" format="ascii">
0 0 0
0 0 0
0 0 0
0 0 0
0 0 0
0 0 0
0 0 0
0 0 0
0 0 0
0 0 0
0 0 0
0 0 0
0 0 0
0 0 0
0 0 0
0 0 0
0 0 0
0 0 0
0 0 0
0 0 0
0 0 0
0 0 0
0 0 0
0 0 0
0 0 0
0 0 0
0 0 0
0 0 0
0 0 0
0 0 0
0 0 0
0 0 0
0 0 0
0 0 0
0 0 0
0 0 0
0 0 0
0 0 0
0 0 0
0 0 0
0 0 0
0 0 0
0 0 0
0 0 0
0 0 0
0 0 0
0 0 0
0 0 0
0 0 0
0 0 0
0 0 0
0 0 0
0 0 0
0 0 0
0 0 0
0 0 0
0 0 0
0 0 0
0 0 0
0 0 0
0 0 0
0 0 0
0 0 0
0 0 0
-0.00289561 0.0483246 -0.00708318
0.194026 -0.27904 -0.0176127
0 0 0
-0.0139385 0.124475 0.00321155
0.0408958 -0.0391089 0.0664561
0 0 0
-0.0829516 -0.0319637 -0.0482889
0.0370965 -0.133425 0.0430681
-0.00507563 -0.0520294 -0.10322
0.0864915 0.203596 0.0308393
0 0 0
-0.125401 0.0556712 -0.0101104
0.218153 -0.0017263 -0.0338955
0 0 0
-0.0564688 0.000340808 0.038069
-0.0671054 -0.198206 -0.0881035
-0.12812 0.104963 0.0501975
0.0769031 0.0565903 0.0482474
0 0 0
0.0398549 -0.161377 0.0783898
-0.0288776 -0.0977794 -0.0327643
0 0 0
-0.0787461 -0.233841 -0.0272002
-0.146082 0.107292 -0.0796856
-0.144867 -0.114761 0.0647913
-0.152211 0.0289849 -0.147749
0 0 0
-0.106263 -0.10765 -0.00205143
0.115247 0.214288 0.0367517
0 0 0
0.29293 0.227382 -0.079631
0.0448132 -0.11291 -0.00625045
-0.0199071 -0.0108929 0.0920559
0.0146622 -0.0419806 0.0200135
0 0 0
-0.073764 -0.352469 -0.0305794
-0.115799 0.00223383 -0.132174
0 0 0
-0.25042 -0.164971 -0.0487365
0.0540065 -0.023551 -0.0244639
0.0488559 -0.0172725 0.0639773
0.0558036 -0.100612 -0.0403314
0 0 0
-0.0515895 -0.0250519 0.0720436
-0.188928 0.0867327 -0.00806562
0 0 0
-0.0419361 -0.0264915 -0.0475535
0.051226 0.0792963 -0.00966814
0.0515396 -0.0157216 -0.0320199
-0.0695391 0.0127398 -0.0461329
0 0 0
-0.252005 0.117527 0.00477457
0.0535116 -0.0411633 0.0297136
0 0 0
0.350638 0.14101 0.000546672
0.0255744 0.0204269 0.0196481
0 0 0
0.139223 0.268462 0.00228816
0 0 0
0 0 0
-0.12525 0.675132 -0.00333358
0 0 0
0.00543983 0.00619077 0.0162683
-0.0317719 0.0579562 -0.0236452
0 0 0
0.28922 -0.418988 -0.0855307
-0.2504 0.211953 -0.230023
-0.352932 0.0262073 0.234491
-0.193727 -0.17045 0.0176587
-0.00058308 0.126653 -0.037126
-0.138423 0.134512 0.156644
-0.142003 -0.127713 -0.0745891
-0.272351 -0.215357 -0.0315213
-0.00272686 -0.296328 0.140548
0.208566 -0.0938786 -0.00244648
0.278053 -0.215084 0.143717
-0.0615639 0.0348235 0.00177772
0 0 0
0.150249 -0.463855 0.0109926
0 0 0
0 0 0
0 0 0
0.108975 0.365231 -0.308491
0 0 0
-0.16813 -0.0421147 0.145106
0 0 0
-0.17432 -0.345588 0.226582
-0.0136244 -0.268507 0.134455
0 0 0
0.126422 0.151309 0.151722
0.101854 -0.157104 -0.105719
0.0701773 -0.0665871 -0.0907426
-0.195772 0.12783 -0.0698641
-0.0124067 -0.0729012 0.0690237
-0.122998 0.167647 -0.14098
-0.19483 -0.0277066 0.00563023
0 0 0
-0.522668 -0.266723 -0.166958
-0.335991 -0.0651857 0.199764
-0.406673 -0.133219 -0.156162
-0.0972626 -0.622802 -0.0848689
-0.524123 -0.203257 -0.0543471
-0.0303824 0.149332 0.0400192
0 0 0
0 0 0
0.0222667 -0.0214154 0.0570151
-0.000822539 -0.0664283 -0.00444152
-0.00473525 -0.00735842 0.013724
-0.0893919 0.046926 0.158777
-0.317305 -0.18842 0.124697
-0.308041 -0.31744 -0.118474
-0.13904 0.479426 0.138451
-0.224165 0.0328236 -0.1388
-0.00172021 -0.0497668 0.186556
0 0 0
-0.283343 -0.00351799 0.128144
-0.0398842 0.0564255 -0.0225007
-0.104505 -0.021929 0.0242261
0 0 0
-0.135617 0.0490706 -0.00440575
0 0 0
-0.259789 0.161777 -0.19195
-0.00154192 0.0771431 0.0460327
0 0 0
0.128631 -0.0393753 0.238824
0.178533 -0.224733 -0.134497
0 0 0
-0.18492 -0.104645 0.226455
-0.137758 0.0862235 0.360787
0.00500941 0.00315428 0.0879928
-0.275155 0.0555498 -0.258552
0 0 0
-0.0991599 0.0822119 0.52532
0.0876537 -0.0142244 -0.0728204
-0.219556 -0.142003 -0.155816
-0.197277 -0.364125 -0.257
-0.0190468 -0.199191 -0.164355
0.112266 -0.0434135 -0.104603
0 0 0
-0.245197 0.360025 0.000883717
-0.0780399 -0.0620482 0.0355355
0.0440601 -0.0838217 -0.00156758
0 0 0
-0.199369 0.11783 0.410142
-0.00378604 -0.0337549 -0.0110916
0.0211048 1.04988 0.523008
0 0 0
0 0 0
0.138332 0.113224 0.17714
0.210205 -0.134858 0.165996
-0.328182 -0.0610084 -0.305992
-0.0869103 -0.00380374 0.0623747
-0.138233 0.178724 0.0546127
-0.091238 0.114749 0.126301
0.0216227 0.0244574 0.0214773
0.208115 -0.0230068 0.195998
0.0774724 0.0776042 -0.049133
0 0 0
-0.0254927 0.106737 0.234613
0.0624377 0.0928314 -0.142522
0.22768 -0.27576 0.102872
0 0 0
0.0590067 0.0734675 0.0182153
0 0 0
-0.0137747 -0.208556 -0.136625
-0.105591 -0.22068 0.128053
0 0 0
-0.0230506 -0.170671 0.162273
0.0289778 -0.0726637 0.0348274
0 0 0
-0.0115045 0.107842 0.181096
0 0 0
0.0989524 -0.350601 -0.222816
0 0 0
-0.107087 0.0976518 -0.0748017
0 0 0
0 0 0
0.0472432 0.169057 -0.202173
0 0 0
-0.0869303 -0.0844781 -0.203364
-0.0010247 -0.032481 -0.0960844
-0.328196 -0.0476978 0.226588
-0.0116262 0.0930142 -0.0352432
0.0141729 -0.00413424 -0.0185107
0.048382 -0.017885 -0.504376
-0.248668 0.456402 -0.522196
0 0 0
-0.0426276 0.0300154 0.00371917
0.00222115 0.250212 0.0253842
0.143641 0.0346277 0.0149684
-0.275498 -0.0579485 0.123559
-0.065886 -0.0589969 0.00927167
-0.00214804 0.0482823 -0.080527
-0.0106016 -0.0345906 0.00186821
-0.137072 0.137067 0.0439574
-0.0208401 -0.0999173 -0.0584122
-0.0160766 0.068177 -0.00143674
0 0 0
0.0549769 -0.123094 -0.199472
0.0861102 -0.163541 -0.211517
-0.000820426 -0.0523202 0.0346362
0.198581 0.106322 -0.502313
0 0 0
-0.164659 -0.0285083 -0.113328
0 0 0
0.0189314 -0.111531 -0.431551
0.00795437 -0.0492166 0.0435778
0 0 0
-0.0498167 -0.0312085 -0.0505011
0.0722801 -0.170262 0.060424
0.0229674 -0.0471941 -0.0224953
-0.158908 0.0777254 -0.00368771
0.00098973 -0.0102974 0.0921931
-0.251218 0.0461173 0.165128
-0.119996 0.296386 -0.150488
0.0882819 -0.0489909 -0.0282383
0.137943 0.0666163 0.0323427
-0.076078 -0.159173 0.363673
-0.128787 -0.0654054 -0.136622
0.188953 0.14117 -0.189284
0.0669621 0.0691532 0.00158333
-0.10274 0.0317028 -0.221937
0.0710408 0.220736 -0.276958
0.0595821 -0.0588985 -0.0873044
0.187104 0.069829 -0.45098
0 0 0
0.367297 0.368061 -0.148462
0 0 0
0.401889 -0.0694904 0.202312
0 0 0
0 0 0
-0.25404 0.0868612 -0.0130131
-0.0412434 -0.146725 0.226041
0 0 0
-0.342559 0.206523 -0.302527
-0.024735 0.0099589 -0.0166466
0.0610214 0.118521 0.136861
0.0329266 -0.00401578 -0.0332933
0.0602054 -0.367708 -0.0452852
-0.0896115 -0.0816848 0.00159741
-0.139035 -0.0864719 -0.188491
0.00747183 -0.035289 -0.00817403
0.0695465 0.000852185 -0.0797055
0 0 0
0 0 0
0.331091 -0.320774 -0.0870297
-0.0633775 -0.0169922 -0.0572674
0.0125318 -0.137713 -0.120962
0.0112739 0.287678 0.0211523
0 0 0
0.264276 -0.128421 0.121301
0.189398 -0.232047 0.108678
0.504915 0.165794 -0.130688
-0.0039094 0.283181 0.371543
-0.0467861 -0.102275 -0.238002
0 0 0
0.11403 0.224666 0.17799
0.000272715 0.0525893 0.0276038
0 0 0
-0.0189248 -0.0024541 -0.00606103
-0.0543746 0.223727 -0.0981566
-0.055816 -0.0234855 -0.207093
0.126327 -0.288457 0.204345
-9.25361e-05 -0.0195152 0.176065
-0.0460441 0.0956396 0.159071
0.0143057 0.125603 0.174991
0 0 0
0.0840733 0.202254 0.157069
0.268869 0.155838 0.0408956
0.0419691 0.404431 -0.336973
0.0420798 0.0455498 0.402059
0 0 0
0.304583 -0.192734 -0.0156852
-0.00722782 -0.0341236 -0.0275019
-0.0225892 -0.0527092 -0.065959
0.000205531 -0.0283729 -0.139775
0.231706 0.0687149 0.323042
-0.000852772 -0.0270843 0.0113367
0.154695 -0.222589 0.0740309
0.135772 -0.172903 0.200421
0 0 0
0.113115 0.00181257 -0.0542815
-0.00424457 -0.029446 0.0635253
-0.212028 0.177951 0.16247
0 0 0
-0.0149175 0.0581717 0.143758
-0.342344 -0.045185 -0.213484
-0.27704 -0.0213972 -0.297613
-0.428152 -0.0920392 0.0064977
0 0 0
0.134121 0.258849 -0.0567053
0.104314 -0.0455512 -0.052527
-0.112238 -0.185741 0.0525545
0.00558195 -0.00614237 0.00180812
-0.150893 -0.127739 0.314046
-0.195767 0.0557492 0.115183
-0.235622 0.144499 -0.029161
-0.0493613 -0.167498 0.0831304
-0.250457 0.181637 -0.079604
0 0 0
-0.029881 -0.0612787 0.0224292
-0.0805052 0.172372 -0.0369479
0 0 0
0.151559 0.126133 0.0539262
0.0455577 -0.118904 0.0822551
-0.189532 0.226174 -0.155922
0.0129145 0.000384365 -0.101992
0.0731365 -0.0191616 -0.0120438
-0.0317624 0.161101 0.179156
-0.0206859 0.0150756 -0.122778
0 0 0
0.111235 -0.585658 -0.348696
0.0272487 -0.109197 -0.0772008
0.0871726 -0.153784 0.0465729
0 0 0
-0.0129223 0.195201 -0.16848
0.0408968 0.0109915 0.0323338
-0.0504857 -0.0345599 0.16142
0.00688118 0.0879612 -0.0606594
-0.0167771 0.00842503 0.00254547
0.142306 -0.161082 0.111756
-0.0440654 -0.091104 -0.00312144
0 0 0
0.159688 -0.101134 -0.253965
0 0 0
-0.00164426 -0.0122696 0.044076
-0.0218167 -0.273677 -0.00276788
0.0542336 0.00252826 -0.113645
-0.0836669 0.0703973 -0.0848117
-0.140353 0.243237 -0.180829
0 0 0
0 0 0
-0.245438 -0.114835 -0.446248
0 0 0
0 0 0
0.14076 -0.230828 -0.202773
0.036605 -0.309327 0.155907
0 0 0
-0.303687 0.133243 0.129507
-0.082348 0.13474 0.0024741
-0.159522 -0.0039188 0.0130556
-0.172329 -0.0221907 0.15889
0.00303816 -0.00415901 -0.124648
0.0185556 -0.0203819 0.0112791
-0.0341586 -0.475975 0.0121447
-0.095561 -0.200421 0.164735
-0.482071 0.0738647 0.112869
-0.151819 -0.188082 -0.170174
-0.413785 -0.00774032 0.00825255
0 0 0
0 0 0
-0.00214311 0.110677 -0.103352
-0.00570643 -0.181457 -0.0557975
0.122564 -0.213461 -0.108673
0.0971701 -0.072903 0.0472813
0.240198 0.00205573 -0.0704068
0 0 0
0.124152 -0.147524 0.06958
0 0 0
-0.0163031 0.0764385 -0.107495
-0.243084 0.254703 0.0639021
0 0 0
-0.0708482 0.171881 0.0538122
0 0 0
-0.204367 0.303546 0.0800122
0.0370166 -0.0531802 -0.0246747
0.263253 -0.00596668 -0.216277
-0.124405 0.150929 -0.133809
-0.0846051 0.0596656 -0.00193704
0.0551101 0.0377894 -0.27514
0 0 0
0.00776951 0.557484 -0.152241
0 0 0
-0.0116639 0.224028 -0.374771
-0.552954 -0.0674943 -0.0757114
-0.318508 0.227465 0.175448
0 0 0
-0.271548 -0.0269993 0.156057
0 0 0
0.0546441 0.372076 -0.0580994
0 0 0
-0.357998 -0.333936 0.132656
-0.0318657 -0.115306 -0.0796722
0.284589 0.01308 -0.069287
-0.0097946 -0.20525 0.0518509
-0.0504164 -0.291411 -0.237331
-0.283398 0.182244 -0.0766133
-0.124213 0.0357477 -0.252087
-0.189257 -0.0927022 0.0145915
0 0 0
0.000557546 0.127846 -0.152766
0 0 0
0 0 0
-0.173298 0.236405 0.0470703
-0.100677 -0.00096761 -0.142923
0 0 0
0.0132874 -0.0154024 -0.0148628
-0.03501 -0.120606 -0.220352
-0.250908 0.0505419 0.039172
-0.38232 0.628486 0.386411
-0.0151663 -0.0339658 0.127348
0 0 0
0.0760574 0.0743053 -0.000572392
-0.121857 0.194878 0.0366274
-0.33309 0.399291 -0.333337
-0.0193134 0.043146 0.0418436
-0.223023 0.173006 -0.0521305
-0.0761315 -0.0527673 -0.0367796
-0.45904 -0.118394 0.0314748
0 0 0
0.0998319 0.0663097 0.439633
0.194574 -0.170509 0.0926474
0.0069632 -0.0331948 0.0289195
0.090567 0.145072 0.125119
3.90047e-05 -0.0465022 -0.00770902
-0.102228 -0.216915 0.019773
-0.0421893 -0.000369845 0.10919
-0.0801804 0.145692 0.00300013
0 0 0
0 0 0
-0.226913 0.0852856 -0.16406
-0.260119 0.555023 -0.0407866
0 0 0
0.132051 0.0538439 -0.311215
-0.025246 0.0364778 -0.214126
-0.0726171 0.232828 -0.00412231
0.216632 0.124497 -0.178288
0.059654 -0.176194 0.0263474
-0.0405506 0.139745 -0.0297231
0 0 0
-0.164144 0.435095 0.325472
0.0161965 0.0163273 0.00323287
-0.0202349 -0.0432972 0.0399794
0.0298553 -0.214924 0.124165
0.171925 -0.0434396 0.0268963
-0.0208963 -0.000172397 0.0165312
0.052792 0.00340901 -0.220065
-0.0028257 -0.096674 -0.121001
-0.218536 0.274398 0.220045
-0.000305238 -0.162949 0.0422361
-0.0186173 -0.00825895 0.167415
0 0 0
-0.17588 -0.173295 0.00634248
0 0 0
0.054661 -0.131883 0.131345
-0.0134669 -0.0531902 0.0171708
0.00140229 0.0122569 -0.0735856
-0.409901 0.0680571 -0.00933741
0 0 0
0 0 0
0 0 0
-0.122038 -0.20441 0.306904
0 0 0
-0.167472 -0.116132 0.0204993
-0.255091 0.441021 -0.286507
-0.0288658 -0.044781 -0.0245192
0 0 0
0.00364062 -0.0424269 0.0782842
0.0290014 -0.0121352 -0.000543342
-0.160902 0.37184 0.0351291
-0.00907928 0.110096 -0.0020174
0 0 0
0.122261 -0.0540838 0.109862
0.233904 -0.0115014 -0.0234629
0.193906 -0.028864 0.271952
0.0336441 0.00244903 0.00805228
0 0 0
0 0 0
-0.104265 0.110013 0.169424
0.0134386 0.14774 -0.293678
0.156917 -0.076639 0.217666
0 0 0
-0.0117954 -0.0816031 0.000492698
-0.221725 0.248711 -0.0244991
0.000318679 -0.0414483 -0.0179002
-0.0215107 -0.385227 -0.170258
0 0 0
-0.115115 -0.240465 0.58617
-0.483751 -0.30648 0.0862046
-0.113648 0.480351 0.290291
0 0 0
0.263501 0.422549 0.109004
0 0 0
0.0490941 -0.124694 0.0851737
-0.0562449 0.0745704 0.100066
-0.0110121 0.0454966 0.497109
0 0 0
-0.0101634 -0.432177 0.266265
0 0 0
0.00240882 0.0366536 -0.0333186
-0.226045 -0.129651 0.0818935
-0.0950963 0.097332 -0.232961
-0.241114 0.135482 -0.09203
0.14613 0.0612045 -0.00437075
0.029749 -0.0877438 0.1609
-0.159913 0.00358319 -0.0183065
0 0 0
-0.376847 0.202462 0.00264786
-0.219168 0.0670297 -0.211531
0.144625 0.190515 0.00595847
0 0 0
0.0136404 -0.250483 -0.00215084
0.00900719 -0.136837 -0.161807
0.0884195 0.199658 0.0221126
-0.0669946 -0.305547 -0.365357
0 0 0
0.124452 -0.176071 -0.0215086
0 0 0
-0.259163 0.502551 0.139396
0.000912778 0.03594 -0.0653904
-0.0030752 -0.0230331 0.0670836
-0.227541 0.0327919 -0.103054
0 0 0
0 0 0
0 0 0
-0.0790387 -0.130292 -0.000764247
0.0298362 -0.0572325 0.0802651
-0.0330112 -0.0594272 -0.0332588
-0.0713147 -0.353396 -0.167452
-0.00771517 0.0046494 0.00608078
0.0189581 -0.0033505 4.44756e-05
0 0 0
0.285014 -0.139546 -0.363045
0.0593307 0.174428 0.177584
0 0 0
0.0277913 -0.0335478 0.19564
-0.146205 -0.0768193 0.0949594
-0.284861 -0.0119691 0.397334
-0.0152104 -0.149708 -0.309088
-0.0406255 0.0135948 -0.0106146
0.0462561 0.0919893 -0.112927
0.0792018 0.135552 -0.131629
0.00193534 -0.126988 0.031757
-0.278725 -0.0734938 -0.153715
0 0 0
-0.161791 -0.0747396 -0.113825
0.0632951 -0.0921013 -4.88341e-05
0.0864293 -0.00642731 -0.0696607
0.0352588 -0.0296647 0.00544465
0.338896 0.301186 -0.355523
0.0451424 -0.0387632 0.0924556
0.0147616 -0.103333 -0.00225064
0.0946671 -0.106104 0.467925
-0.045517 0.00241441 -0.048306
0.0962027 0.122622 -0.00213823
0.0399011 -0.109733 -0.223352
-0.0445787 0.000125912 0.122712
0.00442089 0.186712 -0.463125
-0.0491821 -0.0160666 0.0188833
-0.529141 -0.157741 -0.194598
-0.377226 0.556285 0.230869
-0.149298 0.0777946 0.0953264
0.08406 0.558215 0.00552581
0 0 0
0.0385184 -0.210778 0.0073985
0 0 0
0.00545816 0.0135098 0.00138857
0 0 0
0 0 0
0.0250601 0.048178 -0.142176
0 0 0
-0.167199 -0.000257175 -0.238011
-0.290358 0.0580252 -0.132958
0.0280615 0.215482 0.0511949
0 0 0
0.10316 0.308425 -0.308352
0 0 0
0 0 0
0 0 0
0.0298295 -0.140484 0.321075
0 0 0
-0.0530484 0.136654 0.342318
0 0 0
0 0 0
-0.0696645 -0.518144 -0.356904
0.339727 -0.156367 0.119784
0.072402 0.424932 0.0519861
0 0 0
0.121055 0.0393868 0.0259279
-0.0942606 0.461158 0.328818
-0.079739 -0.0799951 0.0273179
-0.096535 0.228179 0.416121
0 0 0
-0.056746 -0.148377 0.193686
0 0 0
-0.263435 0.0687908 0.25599
0.00180736 -0.0165658 0.00389749
0.0422272 -0.0340698 0.0185402
0 0 0
-0.0565557 0.00223709 0.000458916
0.153399 0.394424 -0.146438
-0.0465816 -0.0700834 0.00484266
0 0 0
0 0 0
0.0577407 0.332484 -0.130654
0.251518 -0.135761 -0.113943
0 0 0
-0.131771 0.309251 -0.120411
-0.179311 -0.0523196 0.000410827
-0.21117 -0.000543866 -0.236353
0 0 0
0.00887844 0.0169954 -0.237644
0 0 0
0.0863487 -0.0600107 0.140343
-0.238061 -0.32667 0.0588029
-0.0040396 -0.058955 0.0452569
0.087909 -0.00340506 0.0580297
0 0 0
-0.212237 0.19511 0.0486265
0.133482 0.126565 0.051274
0.226358 -0.0517677 -0.083958
0 0 0
0.165234 0.182159 0.308076
0.0819839 0.322673 -0.158827
0.00889665 0.0402285 -0.239452
-0.0296883 0.125099 -0.27838
-0.173563 0.13509 0.0762157
-0.369367 0.0844858 0.192892
-0.0583365 0.0651467 0.322725
0 0 0
-0.158444 -0.182106 -0.0882898
-0.278518 0.163977 0.0130843
0.075373 0.112428 0.125657
0 0 0
-0.000307097 0.00462596 1.61943e-05
0 0 0
-0.144681 0.530417 -0.137441
0 0 0
-0.1198 0.475115 -0.091069
-0.0619072 -0.0688954 0.0147021
-0.343707 -0.152669 -0.0049886
-0.0566092 0.0493207 0.226407
0 0 0
-0.310404 -0.118629 0.0697931
-0.0741863 -0.177241 -0.0174114
-0.0809465 0.00390416 -0.0382559
0.0294495 -0.134338 0.120408
0 0 0
0.0207156 0.096237 -0.0552204
-0.287764 0.225554 0.295435
-0.300791 -0.214981 -0.0893749
-0.0054657 0.0832649 0.0320821
-0.0735557 0.207653 0.00138821
-0.0180791 -0.0161611 0.00905429
-0.190985 -0.0200236 -0.136486
-0.140109 0.0292515 0.0431557
-0.258938 0.0950346 -0.0188615
0 0 0
0 0 0
-0.261538 -0.0847624 -0.0483991
-0.14791 -0.0872953 -0.0826194
-0.00877585 0.11954 0.221356
0 0 0
-0.0397441 0.0482006 0.0213598
-0.163971 -0.0132946 0.0744669
0 0 0
-0.364277 -0.0541203 -0.290647
-0.0571232 -0.0109143 0.0746857
-0.452047 0.551741 0.0346032
-0.0631673 0.253337 -0.0872636
-0.303593 0.329609 -0.0238691
0 0 0
0.0486478 -0.117766 -0.0519079
0 0 0
-0.00360935 0.000690263 -0.0281085
-0.172159 -0.0439995 -0.00449487
0 0 0
0.0153037 0.0874052 0.260553
0 0 0
-0.172256 0.0447068 -0.304416
0.0367882 0.487366 0.394256
-0.00048484 9.14681e-05 0.0438917
0.0912094 0.0560318 0.228832
0.174783 -0.370083 -0.0859105
0.0197245 0.210065 0.470573
0 0 0
0 0 0
-0.0344429 -0.0165955 0.134023
0 0 0
-0.364099 0.375677 0.0942193
-0.139008 -0.0496609 -0.217168
-0.202637 -0.163937 0.302039
-0.2604 -0.0567398 -0.0662151
0 0 0
0 0 0
0 0 0
0.164321 -0.0017817 0.183071
0 0 0
0.127392 -0.274698 0.195106
0.0541491 0.131926 0.0343711
0.113298 -0.0618122 -0.36065
0.0364317 0.121292 0.0496354
0.045683 -0.0338216 0.0709999
-0.0128742 -0.0247491 -0.0312289
-0.121843 0.214474 0.0216468
0.0750084 0.0473367 -0.0138446
0.254382 -0.0388127 0.0689355
-0.187767 -0.057129 -0.0965063
-0.0102158 0.00870274 -0.0204711
0 0 0
0 0 0
-0.00198346 0.129487 -0.0976632
-0.0307295 0.85037 0.149603
0.163408 -0.123475 0.00218339
-0.0155032 -0.0940849 -0.100199
0.133897 -0.0364618 -0.0111934
0.330354 0.141006 0.159389
0.000233938 0.00892552 0.0167078
-0.00188215 0.00873142 0.0173333
-0.0711416 -0.0534173 -0.0674091
0 0 0
0.00713967 0.0847135 -0.165786
0.0873613 0.00125208 -0.0382875
0 0 0
-0.0157598 -0.0839469 0.00161922
0 0 0
0 0 0
0.000977661 0.0851474 -0.000231122
0 0 0
-0.115907 0.0471443 0.0512467
0 0 0
-0.0258001 -0.0351496 -0.0352109
0 0 0
-0.0791324 0.241301 0.227954
0.0201953 0.0907714 -0.0862376
0.0205228 -0.00706989 -0.00603052
-0.0998029 -0.0300671 0.000754735
0.0126991 0.115706 0.093634
-0.126026 -0.12009 -0.0076194
-0.115903 -0.128539 -0.0111916
-0.120449 0.016419 0.0674749
-0.201097 -0.199728 -0.0675083
0 0 0
0 0 0
0.238697 0.0304803 0.0135689
0.108574 0.0246433 -0.0434501
0 0 0
0.146952 0.109665 -0.0364307
0 0 0
0.303408 0.19943 0.525333
0 0 0
-0.115187 -0.0239218 -0.00116164
0 0 0
-0.0233275 0.0080251 -0.00721746
-0.0225484 -0.00362608 -0.0457457
-0.312674 0.151584 -0.101388
-0.0262561 0.0528733 0.0569017
-0.296362 -0.0722982 -0.00767149
0 0 0
-0.485807 0.0386062 -0.200047
0.0329333 0.224043 -0.366059
0.134125 0.065495 -0.175616
-0.0291744 -0.0805319 -0.054224
0.000847177 -0.0730419 -0.0593398
-0.0795526 0.00122763 -0.00447625
-0.0152244 0.295651 0.26948
-0.122392 0.0703365 0.0134359
-0.0130517 -0.138065 -0.0272579
0.0222799 0.0498613 0.49897
-0.0397384 -0.359048 0.0882158
0.0521867 0.146393 -0.000248911
0 0 0
0 0 0
0.0565035 -0.0799178 0.0549994
0 0 0
-0.0759051 -0.0967119 0.227905
0.000868205 0.00110184 -0.00328336
0 0 0
0.291737 -0.0627354 0.000298832
0.350678 0.0635126 -0.224099
0 0 0
-0.0812718 -0.328169 0.168342
-0.0021413 -0.0452609 -0.0103873
0 0 0
-0.0419245 0.0810457 0.309385
0 0 0
-0.0961351 -0.00545177 -0.0656247
0 0 0
0.0522866 -0.0386025 -0.0313288
-0.230283 -0.169122 0.101621
0 0 0
0.0222036 0.261415 -0.0032494
-0.0484491 0.000329805 0.0237108
0 0 0
0.0294885 -0.00028029 -0.114113
0.0309157 -0.299683 -0.223792
0.0058952 -0.030502 0.00957095
-0.317061 0.657284 -0.0836098
-0.038588 -0.0580636 -0.0653992
8.80918e-05 -0.158811 -0.00307657
-0.0589979 0.263222 0.114683
-0.00457504 -0.0438329 -0.0220093
0 0 0
0 0 0
0.0715209 0.238486 0.34978
0 0 0
0.0950208 0.0100672 0.195722
0 0 0
0 0 0
0.178336 -0.21076 0.00632224
-0.0338673 0.164958 -0.0691181
0 0 0
0 0 0
0 0 0
0.131079 0.0317884 0.193686
-0.0028871 -0.00185496 0.00258862
-0.106282 -0.00353369 0.0213112
0.160473 -0.0379968 -0.0885595
-0.0272342 -0.0505123 0.292317
-0.0404095 -0.181816 -0.205546
-0.00538865 -0.0779516 0.359678
-0.0575173 -0.00761389 -0.0941466
0.0328289 0.0093864 -0.266615
0.123952 0.0339842 0.279095
0.163326 0.211404 -0.412257
0.0406759 -0.0398734 0.00200831
0.185043 -0.102546 -0.136435
0.0506649 -0.0621232 -0.0804285
0 0 0
0.0872104 -0.233914 -0.0698229
0 0 0
0.224593 -0.0489114 0.182018
0.130533 -0.0194932 -0.0806224
0.05651 -0.118809 -0.0015246
-0.39513 -0.118835 -0.0429732
-0.0474519 -0.00938573 0.0428576
0.276851 -0.171224 0.0760788
0.0511603 0.109182 -0.0198508
-0.00205261 -0.00181957 3.22362e-05
0 0 0
0 0 0
-0.0987595 0.0443867 0.0673228
-0.0139625 0.0033255 0.00667161
-0.123682 -0.0222746 -0.182815
-0.133153 -0.0907829 -0.178182
0.023036 -0.0303001 -0.0118735
0.0185912 0.0729863 0.184214
-0.00101595 -0.0249619 0.0938206
-0.252707 0.162342 0.0966029
0 0 0
0 0 0
0 0 0
0.0229391 0.349125 -0.0105237
0 0 0
0 0 0
0 0 0
0.16204 0.0998052 -0.0593917
0 0 0
0.212716 -0.0670656 -0.0780133
0.0308929 0.00024025 -0.222866
0 0 0
0.152502 -0.140356 -0.150491
0.0451283 -0.324369 0.0790739
0.0363046 -0.0373636 0.100684
0 0 0
-0.221691 0.0209302 0.125646
-0.056702 -0.0796729 0.0260914
-0.305205 -0.0546815 -0.00307111
0 0 0
0 0 0
0 0 0
0 0 0
0 0 0
0 0 0
0 0 0
-0.182911 -0.148646 -0.359918
0.0347257 -0.032677 -0.0191513
0.0378399 0.498269 -0.201127
0 0 0
0.0622211 0.331537 0.040647
0 0 0
0.232428 0.320121 0.127051
-0.00826606 -0.04516 -0.0796717
0.330712 -0.117699 0.221372
0.0141737 0.0051607 -0.056045
0.281209 -0.131992 0.0246238
-0.0887689 -0.0818211 0.15175
0.230076 0.126575 -0.183588
0.139872 0.0863213 -0.0501346
0.00122471 0.0852443 0.00581733
-0.0207013 0.192415 0.0159545
-0.0232796 0.0118215 -0.199879
0.000278948 -0.130447 0.089298
0.0506409 0.0441035 -0.377957
-0.003285 -0.0619734 -0.0488664
0.0444399 -0.121778 -0.0357859
0.07958 0.054964 -0.0580048
0.412499 0.114419 -0.130737
0 0 0
0.0734308 -0.152686 -0.0149555
0 0 0
-0.0674819 -0.0844572 0.171662
0.106305 0.0138609 -0.118946
0 0 0
0.0850151 -0.0616973 -0.000275624
-0.0100769 -0.000345183 0.0336067
0 0 0
0.0952713 -0.0990142 -0.208378
-0.0485033 0.0358868 -0.0951488
-0.0776018 0.289374 -0.00189358
0 0 0
0 0 0
-0.225269 -0.244177 -0.435771
0 0 0
-0.163183 0.184511 0.241751
-0.0467312 -0.138116 -0.000306705
-0.0424489 0.119715 0.178299
0 0 0
-0.0712407 0.188357 -0.026712
0.0132526 -0.152504 0.25661
0 0 0
-0.0378683 0.307621 0.0465535
0.028291 0.261053 -0.15868
0.167139 0.186072 0.511365
0 0 0
0 0 0
0 0 0
-0.143928 0.331882 0.396783
0 0 0
0.0366823 0.0360146 0.0452438
0.0245474 0.00879553 -0.0438356
-0.275562 -0.126514 -0.29488
0.0262406 -0.0199555 0.0341452
0 0 0
-0.105301 -0.221885 0.0326474
-0.314139 0.114432 -0.216072
0.0181374 -0.0161858 0.0163904
-0.317647 0.00122777 -0.0943072
-0.108414 0.0722 -0.126713
-0.00124544 -0.000916367 -0.00519943
0.100617 0.0179078 0.0785705
0 0 0
0.0512729 -0.268983 0.0893294
0.000256983 -0.0203641 -0.0187997
-0.0587003 0.0472211 -0.0969311
0 0 0
0.193185 0.0441426 -0.148719
0 0 0
0 0 0
-0.0969415 -0.0307799 0.111128
0.117244 0.120195 -0.239722
0.0197053 -0.0121319 0.0332032
0 0 0
0 0 0
0.0581587 0.0872989 -0.202372
0 0 0
-0.114291 0.056049 0.238743
0.414204 -0.00468012 -0.128893
-0.101365 0.0291703 0.000641933
0.101806 0.00122754 0.241415
0.0956247 0.162719 -0.00950708
0 0 0
-0.00117709 -0.132906 0.174386
-0.0366158 -0.0819412 -0.0363457
-0.0757431 -0.169417 -0.0614407
-0.152061 -0.243378 -0.0125084
-0.269845 0.0815327 0.162345
0.0342383 0.032372 -0.0450716
0 0 0
-0.114402 0.0616652 -0.0748762
0 0 0
0 0 0
0 0 0
0 0 0
0 0 0
0 0 0
0 0 0
0 0 0
0 0 0
0 0 0
0 0 0
0 0 0
0 0 0
0 0 0
0 0 0
0 0 0
0 0 0
0 0 0
0 0 0
0 0 0
0 0 0
0 0 0
0 0 0
0 0 0
0 0 0
0 0 0
0 0 0
0 0 0
0 0 0
0 0 0
0 0 0
0 0 0
0 0 0
0 0 0
0 0 0
0 0 0
0 0 0
0 0 0
0 0 0
0 0 0
0 0 0
0 0 0
0 0 0
0 0 0
0 0 0
0 0 0
0 0 0
0 0 0
0 0 0
0 0 0
0 0 0
0 0 0
0 0 0
0 0 0
0 0 0
0 0 0
0 0 0
0 0 0
0 0 0
0 0 0
0 0 0
0 0 0
0 0 0
0 0 0
0.00819178 0.0526086 -0.167408
-0.0684729 0.0113273 -0.0744965
0.00555593 -0.0230196 0.027192
-0.0485882 -0.0415501 0.0170226
-0.0496211 -0.0577042 0.208082
0 0 0
0.310212 0.0582073 -0.292506
0.00724204 -0.0353959 0.126875
0.0265775 0.121127 -0.104283
0.0123715 0.112869 0.0590828
0.0011486 0.0268658 0.052489
0.0492317 -0.0508779 -0.00242112
-0.0799673 0.0681827 0.014506
0 0 0
-0.0202738 0.0218922 0.0186747
-0.0207693 0.0492618 -0.0135004
0.0032922 -0.0659158 -0.103222
0.199945 0.00251198 -0.0339264
0 0 0
-0.023174 -0.107528 -0.087564
-0.0404225 -0.058371 0.0563006
0 0 0
-0.153737 -0.0560914 0.0462898
0.0143466 -0.129362 -0.192204
0.0123164 0.0606404 0.0494793
-0.101635 -0.00911962 -0.108101
0 0 0
-0.0718696 0.0863949 -0.0227304
0.0313426 -0.0006131 0.0364027
-0.00335011 0.0797424 -0.0454405
-0.026487 0.103221 -0.0294512
-0.0124502 0.111313 0.282519
-0.0118725 -0.000892568 0.00539286
-0.0334834 -0.0276368 -0.0556799
0 0 0
0.027369 -0.000196728 -0.0076494
-0.0617159 0.0467438 -0.0446436
0 0 0
-0.219528 2.91748e-05 0.151933
0.00164384 -0.0846013 -0.127115
0.0422994 0.0718684 0.172845
0.0757812 0.00236235 -0.097037
0.000782547 -0.000761029 0.00997999
0.0527787 0.0239598 0.0852893
0.0456603 0.035961 0.188455
0 0 0
0.00896654 0.082691 0.0156262
-0.0109041 0.0451929 -0.0127235
-0.0545758 0.000254711 -0.214503
-0.0886002 0.0636024 0.0238905
0 0 0
0.0630227 -0.0437191 0.112648
0.0881925 -0.0153239 0.20808
0 0 0
0.132951 -0.00282391 -0.0637098
-0.112422 0.207096 -0.286062
-0.00974044 -0.250382 0.18623
0.0271392 -0.0370398 -0.0181016
0.000605029 -0.00783117 0.0264197
0.00647391 0.0858302 -0.0954618
-0.10158 0.0115294 0.0127939
0 0 0
-0.016476 -0.0749418 0.0183859
-0.108325 -0.00567961 -0.0976614
-0.00357409 0.0569724 0.0910052
-0.046091 -0.108037 0.0851047
-0.0958662 0.0697967 -0.270596
-0.0404921 -0.15129 0.181287
-0.210325 -0.00414391 0.0640556
-0.0171838 0.150948 -0.0937465
0.00161675 0.00143027 -0.0331118
0.0199198 -0.0737525 0.00821722
0.00242051 -0.0842604 -0.239269
-0.00456467 -0.244428 -0.253544
-0.14878 0.0192957 0.171533
-0.0379403 0.173133 0.40083
-0.210152 -0.0700452 -0.213951
-0.0137456 0.116711 0.0289985
0.0298586 0.0921542 0.205463
0.0717499 0.103674 -0.0395085
0.179099 0.0483543 0.152628
0 0 0
-0.0229814 0.0489607 -0.0796249
-0.000679747 -0.0749567 -0.0582566
-0.183908 0.403789 -0.00209718
0 0 0
-0.346012 -0.10479 0.297866
-0.0736424 0.0291375 0.0350444
0.0429561 -0.224191 0.0892409
-0.0936672 -0.182157 0.118215
0 0 0
0.246362 0.0204608 -0.0948743
0.108018 -0.247282 0.0658822
0.208773 0.27894 -0.0778237
0.0164835 0.031206 -0.000853567
0.0594065 0.222179 -0.109374
0 0 0
-0.18617 0.0133396 -0.0397818
-0.0877348 0.0931895 -0.152234
0 0 0
0 0 0
0 0 0
-0.112 -0.039149 0.000752848
-0.0258536 0.000601312 -0.0615282
-0.148398 -0.37732 -0.191925
0 0 0
-0.113204 -0.183685 0.118642
-0.0233232 0.258117 0.120451
-0.392823 0.135642 0.146966
0 0 0
-0.0795121 0.0469738 -0.0787295
0.056154 -0.0640262 0.133401
-0.0321471 0.0230908 -0.0390231
0 0 0
0.10385 0.0662836 0.230218
0.207996 0.149582 0.0448283
-0.0057226 0.00186495 0.00202958
-0.147492 -0.43519 0.0858569
0 0 0
0.00678309 -0.154777 0.00054446
0 0 0
-0.187301 0.045973 -0.000313999
-0.212166 -0.13581 -0.158786
-0.347944 -0.139586 -0.16483
-0.105606 0.00892182 0.119653
-0.171422 -0.016144 -0.121909
-0.00295522 0.0160906 0.220016
0.0967334 0.0316701 0.134201
-0.0562938 -0.119963 0.0456468
0.0493417 -0.0369706 -0.242806
0.0169841 -0.0808226 0.127874
0 0 0
-0.0174524 0.0161841 0.258214
0.0454499 0.051633 0.0881538
-0.00800728 -0.125441 -0.0404569
0 0 0
-0.0139747 -0.292307 -0.0716547
-0.0956568 0.0196307 -0.0116461
-0.0767987 0.0393238 -0.0317298
0.0415689 0.191277 -0.0260051
-9.31656e-05 0.00701181 0.0677563
0.00219222 -0.0353735 -0.0201957
-0.0821871 -0.083965 0.143323
-0.322783 -0.0676294 0.315425
0 0 0
0.222064 -0.010736 0.194502
-0.327361 0.0411898 0.0308846
-0.0214066 0.21548 -0.23042
0.110432 0.0510619 -0.0372446
0.0698744 -0.0909006 0.0666393
0 0 0
0 0 0
-0.213663 0.0175842 0.134783
0.139076 0.182742 -0.161809
-0.0191231 -0.0250202 -0.000110334
0 0 0
0 0 0
-0.0872005 -0.159823 -0.0489231
-0.127635 -0.0951104 0.222831
-0.0739314 -0.0301492 -0.0461186
-0.448414 0.298308 -0.139477
0 0 0
0.222077 0.215599 -0.0759267
0.0237375 0.0310114 0.0707691
-0.14382 0.0299091 0.14973
-0.298619 -0.229279 0.0852042
0 0 0
-0.112538 -0.321607 0.24162
0.00399073 -0.0542831 -0.017856
0.0956668 -0.517559 0.0365323
0.0290168 -0.148827 0.00161328
0.077245 -0.647914 -0.146533
0 0 0
0 0 0
0.0080791 0.182896 -0.19013
-0.354851 0.268621 0.0638732
-0.144665 -0.0114381 -0.191469
0 0 0
0.0378361 -0.14213 -0.130597
0 0 0
0 0 0
0.000719265 -0.0653836 -0.155059
0.322225 -0.0638053 -0.173872
0.0261869 -0.0804226 -0.167435
0.0242499 0.0147482 -0.0300058
0.00445206 0.0975467 -0.115202
0 0 0
-0.0543436 0.260762 -0.495183
0 0 0
0.353925 0.197002 -0.00181206
0.0722586 0.025216 -0.000731539
0 0 0