<?xml version="1.0"?>
<VTKFile type="RectilinearGrid">
<RectilinearGrid WholeExtent="0 32 0 32 0 32" Origin="0 0 0" Spacing="1 1 1">
<Piece Extent="0 32 0 32 0 32">
<PointData>
</PointData>
<Coordinates>
<DataArray type="Float32" format="ascii">
0 0.524874 1.04975 1.57462 2.0995 2.62437 3.14924 3.67412 4.19899 4.72386 5.24874 5.77361 6.29849 6.82336 7.34823 7.87311 8.39798 8.92285 9.44773 9.9726 10.4975 11.0224 11.5472 12.0721 12.597 13.1218 13.6467 14.1716 14.6965 15.2213 15.7462 16.2711 16.796 
</DataArray>
<DataArray type="Float32" format="ascii">
-5.03879 -3.62163 -2.20447 -0.787311 0.629849 2.04701 3.46417 4.88133 6.29849 7.71565 9.1328 10.55 11.9671 13.3843 14.8014 16.2186 17.6358 19.0529 20.4701 21.8872 23.3044 24.7216 26.1387 27.5559 28.973 30.3902 31.8074 33.2245 34.6417 36.0588 37.476 38.8931 40.3103 
</DataArray>
<DataArray type="Float32" format="ascii">
0 0.524874 1.04975 1.57462 2.0995 2.62437 3.14924 3.67412 4.19899 4.72386 5.24874 5.77361 6.29849 6.82336 7.34823 7.87311 8.39798 8.92285 9.44773 9.9726 10.4975 11.0224 11.5472 12.0721 12.597 13.1218 13.6467 14.1716 14.6965 15.2213 15.7462 16.2711 16.796 
</DataArray>
</Coordinates>
<CellData>
<DataArray type="Float32" Name="Vector" NumberOfComponents="3" format="ascii">
0 0 0
0 0 0
0 0 0
0 0 0
0 0 0
0 0 0
0 0 0
0 0 0
0 0 0
0 0 0
0 0 0
0 0 0
0 0 0
0 0 0
0 0 0
0 0 0
0 0 0
0 0 0
0 0 0
0 0 0
0 0 0
0 0 0
0 0 0
0 0 0
0 0 0
0 0 0
0 0 0
0 0 0
0 0 0
0 0 0
0 0 0
0 0 0
0 0 0
0 0 0
0 0 0
0 0 0
0 0 0
0 0 0
0 0 0
0 0 0
0 0 0
0 0 0
0 0 0
0 0 0
0 0 0
0 0 0
0 0 0
0 0 0
0 0 0
0 0 0
0 0 0
0 0 0
0 0 0
0 0 0
0 0 0
0 0 0
0 0 0
0 0 0
0 0 0
0 0 0
0 0 0
0 0 0
0 0 0
0 0 0
0.0816076 -0.138601 -0.0224403
-0.0703212 -5.38359e-05 -0.220082
0 0 0
-0.0896598 -0.0719465 0.0710527
-0.059822 -0.140482 -0.0626366
0 0 0
-0.0284522 0.156751 0.00758903
0.0161367 -0.153896 0.078759
0.106173 -0.0530786 -0.0410434
-0.0136794 0.136285 0.0558133
0 0 0
-0.0476226 0.229056 0.0505461
0.176366 0.0353184 -0.114758
0.0200373 -0.0112043 -0.0503127
0.0333353 -0.303559 -0.0720394
0.0432944 0.0356886 0.0652203
0.0750045 -0.0275649 -0.0423691
-0.0506379 -0.192057 -0.0098015
-0.00209413 0.0105838 -0.0305243
-0.140043 0.0140343 -0.0179479
-0.109877 0.0270042 -0.00868255
0 0 0
-0.0727871 0.29786 0.00510354
0.0788314 0.00380952 0.202045
0.175034 0.105256 0.0183802
-0.0278383 0.135933 -0.0749039
0.000169628 -0.015381 0.0352176
0.0113416 0.153162 0.0146768
-0.207835 0.326119 -0.0124525
-0.0231546 -0.0348101 0.0109212
-0.184745 -0.0582617 -0.061102
-0.000787996 -0.0450745 0.0260102
-0.0104615 0.257441 0.0249485
0.158506 -0.0631171 0.0784725
0 0 0
-0.143295 -0.173398 0.0128345
-0.0454138 0.0128696 -0.0280221
-0.0311148 0.0403529 0.0761016
0.306997 -0.164576 0.0208767
0 0 0
0 0 0
0.0627938 0.131613 -0.000324316
0 0 0
0.00500832 0.0338035 -0.0509282
0.324784 -0.33502 -0.0267147
0 0 0
0.207887 -0.118137 0.0841538
-0.0665199 -0.135512 -0.101776
-0.0188678 0.0221936 0.050185
-0.0943477 -0.0112451 -0.0173798
0 0 0
0.0167043 -0.282781 0.0364805
-0.0045483 0.0410781 -0.0143635
0 0 0
0.00155792 0.0160868 0.00172621
0 0 0
0.0762612 0.0396711 -0.0973776
-0.145043 -0.0816886 0.00582537
0 0 0
0.128027 0.0472595 -0.047173
0.319635 -0.0218336 0.00218374
0 0 0
-0.0116446 0.00100917 0.0572192
-0.0918971 0.0571828 -0.0257937
0.0289702 0.0427491 -0.017705
-0.14643 -0.321872 0.025217
0 0 0
0 0 0
-0.316979 0.275349 -0.100465
-0.0236956 0.0656916 0.0240237
0 0 0
-0.0558348 0.0391068 0.00168426
-0.225914 0.14129 0.275967
0.0718661 -0.078258 0.0651982
0.109504 0.0942453 0.113111
0 0 0
-0.0724573 0.00186775 -0.00222108
-0.000913262 0.0720704 0.00239941
0.0939768 -0.101488 0.109177
0 0 0
-0.0904217 -0.352673 0.0283839
0.188356 0.000410715 -0.0273045
0.0158098 0.037963 0.0736168
-0.0126553 0.0313041 -0.0284782
-0.066021 0.0044342 -0.0483323
0 0 0
-0.087526 -0.0509936 -0.00115697
0 0 0
-0.000593058 -0.00770589 -0.147887
-0.202085 -0.145193 -0.33991
-0.28431 0.0852529 -0.132599
0.00153057 -0.00487346 -0.00287846
-0.242822 0.281613 -0.0409579
-0.228973 -0.489431 0.0585126
-0.355915 0.0420674 0.0583063
0.00340376 0.0926061 0.028078
0.340182 0.0165954 0.000409768
-0.0344689 0.0166198 0.0763992
-0.0228531 -0.0314925 0.00201729
-0.018889 -0.299715 0.0810193
3.00497e-05 -0.0847293 0.0928264
0 0 0
0.108006 -0.0422515 0.292356
0.088765 -0.0107815 0.0495256
0 0 0
-0.117342 0.0975681 -0.000666389
0 0 0
0 0 0
0.167165 0.0959813 0.122511
0.0874156 -0.0694632 0.109735
0 0 0
0.0842201 -0.202971 0.0175692
0.00711136 0.0092292 0.0143559
0 0 0
0 0 0
-0.0669103 -0.0275941 0.0432873
-0.0629289 -0.0201336 -0.0505685
0.145223 0.0287964 0.00152644
0 0 0
0.0304516 0.0689546 -0.0292239
0 0 0
-0.0269336 -0.30062 -0.00201442
0 0 0
-0.165673 0.0699319 0.106631
-0.00158026 -0.070058 -0.0792101
0 0 0
0 0 0
0.134179 -0.0455362 -0.18673
0 0 0
0.0615749 -0.0795066 -0.221778
0.152412 0.0287783 -0.170514
-0.200236 -0.223086 -0.088985
0 0 0
0.23618 0.112672 0.250242
-0.00112006 0.0739048 -0.0526535
0 0 0
0 0 0
0 0 0
0.0670715 -0.308662 0.257151
-0.0649805 -0.256343 0.0260124
-0.0126221 0.247229 -0.121066
0.180732 -0.138148 0.0563246
0.0304196 -0.0322757 0.0737201
0 0 0
0.402469 -0.12152 0.155273
0.342163 0.210124 -0.0426807
0.0221935 0.0063569 -0.280026
-0.117177 -0.147228 -0.24129
-0.203735 -0.206217 -0.0869567
0 0 0
-0.0430663 -0.0294271 0.0584766
-0.0922954 0.113442 0.233185
0 0 0
0.250337 -0.482257 -0.318097
0.102671 -0.101761 0.101214
0.42963 -0.35024 0.349588
0 0 0
0 0 0
0.0336956 -0.0440834 -0.0597095
0.00388714 -0.0263745 0.00702836
0 0 0
0.0280454 -0.0480127 -0.0467427
0.206562 -0.146935 0.0679507
0 0 0
-0.108108 -0.0662306 0.0994652
-0.184434 0.0287407 0.0007218
0 0 0
-0.0863188 0.296447 -0.00382043
-0.04048 -0.00649848 -0.054798
-0.100048 -0.130174 -0.0105656
-0.133237 0.00765598 -0.0300321
-0.0893557 -0.195291 -0.0237994
-0.0217918 -0.0346396 0.143896
0 0 0
0.0233063 0.171785 0.0813903
0 0 0
-0.0752362 0.188389 0.268323
0 0 0
0.200989 0.327283 -0.236176
-0.0538301 0.0166674 -0.0252552
-0.0824527 -0.11698 -0.0619388
-0.445565 -0.0526551 0.165879
-0.0137777 -0.152585 -0.108091
-0.292537 0.145966 -0.0178841
0 0 0
0.283052 0.00976452 -0.278421
0.0459512 -0.0666651 -0.100523
-0.131243 -0.127113 -0.0757438
0 0 0
0.0397206 0.0120033 -0.000794737
0 0 0
0.230797 -0.0967203 -0.413717
0 0 0
0.196025 0.226998 0.215164
0 0 0
0.174863 0.234386 -0.0545101
0 0 0
0.425025 -0.638376 0.276536
0 0 0
0.0624073 -0.265737 0.16282
0 0 0
0.239201 0.0837763 -0.252115
0 0 0
0 0 0
0.247046 -0.212267 -0.0753388
-0.0145982 0.102205 -0.214478
0.0264392 -0.1045 0.0934996
-0.00404889 -0.0320729 0.20905
0 0 0
0 0 0
0.000320047 -0.0452133 0.042477
0.194429 0.0443072 -0.165046
-0.0326755 0.0154587 -0.015399
-0.0304499 0.0892328 -0.0915538
-0.0912339 0.0312306 -0.0864825
-0.000897011 0.0801322 -0.0177583
-0.187817 -0.266588 0.313486
0 0 0
0.258151 0.39459 -0.20504
0 0 0
0 0 0
0.503738 0.387814 -0.125796
-0.0297773 0.0874936 0.161175
0.205606 0.105001 0.0287963
0.121077 0.307332 -0.218954
-0.118323 0.154995 -0.0464964
0.0128101 0.0444498 0.0236367
0.101292 -0.181888 0.102039
0.0200344 -0.0687727 -0.034908
-0.182287 -0.125865 -0.276457
-0.28384 -0.0358239 -0.0503508
-0.049459 -0.0152622 0.108311
-0.175614 0.035713 -0.0335073
-0.0530129 0.281549 0.052104
-0.0262739 0.0767976 -0.0181581
-0.0926626 0.0825482 -0.0530863
0.0803695 -0.134812 0.144895
0.174319 0.109192 -0.0883677
0 0 0
0.011628 0.000189535 0.0402867
-0.291614 0.113962 0.0314425
0 0 0
-0.101836 -0.0461077 0.137663
-0.278277 0.0872165 -0.437752
0.0150879 0.0572211 0.211923
0 0 0
0.257197 -0.232064 -0.0610373
0 0 0
0.0739032 -0.0139137 0.0131302
-0.00766703 -0.00342521 -0.0038184
0 0 0
-0.0159917 0.25227 -0.00189606
-0.271636 -0.133034 -0.0408258
-0.18419 -0.148458 0.222927
-0.126511 0.0105656 -0.142292
-0.169179 0.0469208 0.0871333
0 0 0
-0.0363493 0.367665 0.107866
0 0 0
-0.0303235 0.0473875 0.00166225
-0.0416449 0.0438376 -0.0453729
-0.0696338 -0.0315787 0.0474889
-0.287227 -0.117322 -0.0400933
-0.0275029 0.0728197 0.434299
-0.215412 0.0529802 -0.00385659
0 0 0
-0.226109 0.16035 0.0101591
-0.382184 -0.131526 0.0433573
-0.00392237 0.00885946 -0.0327499
0.0718838 0.763697 0.0937561
0 0 0
-0.0732275 0.0552179 0.104887
0 0 0
-0.0842936 -0.0461936 0.306664
0 0 0
0.00120296 0.0915539 -0.0527059
-0.0284941 0.128557 -0.191874
0.0376916 -0.458623 0.000767328
0.0793482 -0.285892 -0.338218
0 0 0
0.0306103 0.0615883 -0.0915409
-7.4774e-05 0.011661 -0.228664
-0.00305095 0.0417662 -0.0144604
-0.034056 0.479363 0.0655636
-0.00926471 -0.0122895 -0.0966153
-0.258949 0.119734 -0.272609
-0.186327 0.293053 0.00658717
-0.220824 -0.115189 0.089257
-0.177204 0.351085 -0.195404
0.0783824 1.01376 0.164676
0 0 0
-0.122204 0.244737 0.000198106
0 0 0
-0.301104 -0.767441 0.334104
0 0 0
-0.448872 0.249748 0.0947208
-0.0907076 -0.249365 0.203029
-0.182302 0.018472 -0.23342
0.0858778 0.0604963 -0.0929104
-0.10933 0.188248 -0.484213
0 0 0
-0.0697571 0.429995 0.00228353
0.21042 0.189464 0.0210467
0 0 0
-0.0244396 0.0898318 0.0896753
-0.0611238 -0.199725 -0.055513
0 0 0
0.0123364 0.0175081 -0.00103017
0.241598 -0.313765 0.0247897
-0.110999 0.00684126 -0.14048
-0.0366226 0.0856429 -0.0420632
-0.266686 0.0802767 -0.27665
0 0 0
-0.34966 -0.142485 0.00360634
0 0 0
0 0 0
0 0 0
-0.243661 0.090561 -0.267675
-0.302307 0.330678 -0.192956
-0.0867631 0.106772 -0.14539
-0.00101407 0.023034 0.078813
-0.0268855 0.0378412 -0.0445212
-0.42757 -0.169044 0.112837
-0.267156 0.391646 0.100732
0 0 0
0.0344062 -0.0511804 0.00259534
-0.250896 0.0966381 -0.327757
0 0 0
-0.00146863 -0.159558 0.335576
-0.0202598 0.0213951 0.0198595
0.321779 -0.400491 -0.126686
0.0346612 -0.0630095 0.0377242
0.000927261 -0.034161 -0.0195029
0.162553 -0.254232 -0.0807238
0 0 0
0.125305 0.255452 -0.0652951
-0.0286478 -0.094501 -0.0620283
0 0 0
0.210259 0.118139 0.0665651
0.0548077 0.0184256 0.0426482
-0.0118884 0.0546683 0.0183972
0 0 0
-0.0657477 -0.243572 0.0147873
0 0 0
-0.119665 -0.258013 -0.194573
0 0 0
-0.0769235 -0.0667238 -0.00978887
-0.26982 0.148881 -0.268596
-0.165607 -0.00391709 0.0468344
-0.158374 0.0896004 -0.103136
-0.00346682 0.00498527 -0.00327727
-0.00108375 0.384675 -0.0561962
-0.222917 0.326318 -0.207119
-0.0259649 0.0215433 -0.0219252
-0.033747 -0.0266489 -0.148267
0 0 0
-0.006916 -0.0669445 -0.148732
0 0 0
0.103393 -0.176554 -0.000712128
-0.189899 0.257078 0.0736125
-0.0772692 0.0912435 0.00755236
0 0 0
0.297772 -0.11887 0.0829409
-0.0931429 0.0956307 0.052175
-0.134772 0.256674 0.00331339
0.0242773 -0.194802 0.218324
-0.0908017 0.26589 -0.239457
-0.0693745 0.145449 -0.0893967
-0.443265 0.297153 0.0931944
-0.111168 -0.117443 0.0534664
-0.0924707 -0.354162 0.151656
-0.335443 -0.11139 0.145963
-0.0103395 0.0124343 0.00646979
-0.0635709 0.0670753 -0.0731057
0 0 0
-0.140721 0.170787 -0.0829167
0 0 0
0.180824 -0.0813138 -0.00378315
-0.000583296 -0.0838865 -0.103974
-0.109402 -0.117797 0.047576
-0.18008 0.265569 0.158301
0 0 0
-0.0260456 0.150016 0.102855
0 0 0
-0.143362 -0.171019 -0.0154178
-0.0504833 0.122505 -0.0892835
0.244711 -0.191647 -0.244905
0.0198478 0.043226 -0.0454092
0.231352 0.0231428 -0.25914
0 0 0
-0.117745 -0.0430369 -0.248813
-0.00255727 0.00613392 0.00469685
-0.355062 0.313208 0.186384
0 0 0
-0.103252 0.14835 -0.43249
-0.0329034 0.0507391 -0.0039837
0 0 0
-0.0224596 -0.00314806 -0.0274885
-0.047283 0.0679391 0.0192524
0.170336 -0.0966334 -0.0246428
0.0794076 -0.245144 -0.00102802
-0.356886 0.0766616 0.307244
-0.320911 0.116977 0.11913
0 0 0
-0.111817 0.0830552 0.0572643
0 0 0
-0.142812 0.0988347 -0.352087
0.00106004 0.00747429 0.00901931
-0.0548462 0.227141 -0.111641
-0.00190764 -0.0869445 -0.119151
0.0214652 0.0432493 -0.155433
-0.00392207 0.210442 0.262696
0 0 0
0.10014 -0.142637 0.195357
0 0 0
-0.168628 0.109525 0.0986683
0.0585986 0.121864 -0.00384569
0.049941 -0.361568 -0.175832
-0.122785 0.15327 0.0274427
0 0 0
0.0983901 -0.088151 0.272372
-0.0603991 -0.0614554 -0.00576731
-0.0844177 0.26259 -0.0978771
0 0 0
-0.0062121 -0.00297957 -0.0329713
0.0105051 -0.169176 -0.0699657
-0.165951 -0.0038742 0.00107421
-0.0993368 -0.18716 -0.423737
0.132596 0.00292369 -0.0549882
0.296207 0.0119483 -0.0276085
-0.0609581 0.00558459 0.0472156
0.0318762 -0.104402 -0.0558431
-0.0207413 0.00786618 0.190229
-0.15646 0.219068 -0.149124
0 0 0
-0.0431584 0.547369 0.0480915
0.0993918 0.112374 0.13558
0.129587 0.00117218 0.0498179
-0.00965357 0.175186 0.0077785
0.0365032 -0.0689229 0.00270578
0.0677061 0.0807671 -0.074114
0.0352803 0.0838733 0.0344126
-0.028147 0.130164 0.00352863
-0.138222 -0.00456116 0.000247344
0.216126 0.0304452 -0.17546
0.114073 0.443776 0.100075
0.173623 0.183123 -0.0985455
0 0 0
0.203289 -0.20023 -0.00267447
0 0 0
0.303171 -0.545577 -0.305327
0 0 0
-0.000713755 -0.0854332 -0.188122
0 0 0
0.00265504 0.0301119 0.0369824
0 0 0
-0.219606 -0.21291 0.0213488
-0.0977058 -0.0399526 0.0770246
-0.0150727 0.0268426 0.0489887
-0.0940107 0.00334986 0.0979611
-0.012851 -0.00730732 -0.00920146
0 0 0
-0.0552081 -0.274671 0.273478
-0.20644 -0.188558 -0.087136
-0.143737 -0.0826607 0.000564427
-0.1016 0.0276024 0.191326
-0.119611 -0.00885274 0.000320746
0.0148249 0.0380244 0.0333588
0.287223 0.0464881 0.00105678
-0.0390617 0.00204868 -0.0959478
0.174891 0.187396 -0.0661009
0 0 0
0.000902824 0.0832705 -0.234607
-0.203854 -0.170568 -0.0565411
0 0 0
0 0 0
0.0740801 -0.251249 -0.026857
0 0 0
-0.0340145 0.529961 -0.239328
0 0 0
0.0715635 -0.0113592 -0.236858
-0.0770275 -0.0525107 0.0456627
-0.0884148 0.0802336 0.114558
0 0 0
0.368199 -0.140193 0.0418462
0.389933 -0.0476913 0.168242
-0.0435565 0.126284 0.0122514
0 0 0
-0.0703631 -0.214627 -0.261533
0.261102 -0.149832 0.0838821
0 0 0
0.0858304 -0.50524 -0.365834
0.102247 0.0267109 -0.0154956
0.0153938 -0.0823704 0.0652037
-0.118456 -0.153901 -0.109989
-0.0341835 -0.194069 0.0533971
0.0205389 -0.0182745 0.0100922
0.102371 -0.206616 0.0352025
0 0 0
-0.0188128 -0.186392 0.0995951
0.031044 0.0134343 -0.00981699
-0.0172186 0.105036 0.0464095
0.100475 -0.000561315 -0.105274
0.326453 0.188008 0.111688
0 0 0
-0.247489 0.261906 0.0661794
0 0 0
-0.345029 -0.253771 -0.139315
0.0347943 -0.0459659 -0.0625654
0 0 0
0.143235 -0.14599 -0.0170114
0.00475222 0.0792432 -0.133208
0.0356244 -0.0197277 -0.186947
0.108862 -0.0287652 0.046889
0 0 0
0.151821 -0.189447 0.222852
0.0618231 -0.0503216 -0.0621279
0 0 0
0.0389517 -0.127174 0.186873
-0.163112 0.0158276 0.0366778
-0.270278 -0.266338 0.104237
-0.0989803 -0.0627906 0.0986608
0.122396 -0.0115758 0.0184572
-0.0045899 -0.403766 -0.152969
0.00764841 0.0181008 -0.0815349
-0.080277 -0.218364 0.0185596
-0.0117191 -0.141785 -0.0355121
0.0439387 0.00135567 -0.00558694
0.24686 -0.131054 0.0879818
0.1832 0.0233899 0.156772
0.0245679 -0.00478701 -0.00011967
0.118499 -0.0962296 -0.342063
-0.0515211 0.160201 -0.0238464
-0.249782 0.0911786 0.0218665
0 0 0
0.117995 0.24942 -0.181425
0 0 0
-0.133587 0.25487 0.0612914
-0.0765916 0.0956499 0.08154
-0.216075 0.117214 0.465743
0 0 0
0 0 0
-0.0345159 -0.0430432 0.0705152
0.0456916 -0.285997 -0.386282
-0.087916 0.129195 0.34153
0 0 0
-0.130565 0.137737 0.223987
0.170843 0.000511158 -0.0713807
-0.336582 0.22246 0.31918
-0.0270647 0.00657753 0.000652008
-0.131429 -0.109685 0.0922721
0.387589 -0.0694102 -0.170878
0.218072 -0.085014 -0.0247614
0.0304292 -0.126236 0.212667
-0.045704 0.0390402 -0.00163053
-0.0596643 -0.100115 -0.122959
-0.083472 -0.130368 -0.0319994
-0.0481681 0.0498174 -0.144759
0 0 0
0 0 0
-0.101509 -0.0980319 -0.126004
-0.302273 -0.0297766 -0.15051
0.0312894 0.0276268 -0.00156778
0 0 0
-0.117854 0.391189 -0.254458
0.14344 0.188681 0.123866
-0.060484 0.0615361 0.000125257
-0.273844 -0.0519967 -0.114656
-0.334636 0.151625 -0.211904
-0.118682 0.222563 0.175273
-0.231876 -0.0810728 0.240728
-0.0160842 0.000163805 -0.0245381
0 0 0
0.166065 0.0447431 -0.107778
0.243442 0.0229886 -0.00037884
-0.0077148 0.00063896 0.0126314
-0.12299 0.0841683 0.0890983
0 0 0
0 0 0
-0.0975898 0.103256 0.133541
0.27685 0.0408592 0.160219
-0.135348 0.180304 0.0924378
-0.126484 0.31487 0.254207
-0.130502 0.0549187 0.0125041
0.257559 0.224809 0.281665
0 0 0
0.171987 0.162244 0.0881765
0 0 0
-0.065784 -0.0461735 -0.000585284
0.0583741 0.0362477 -0.00124812
-0.162349 0.151839 0.226703
0 0 0
0.0218229 -0.0954063 -0.137896
-0.370866 -0.244989 -0.094849
0 0 0
0.0789465 0.141456 -0.0112555
0.121712 -0.0956508 0.0520167
-0.0535251 -0.0937597 0.0263142
0 0 0
0.0257039 -0.0248879 -0.0901743
-0.011995 -0.0240491 0.0411753
-0.189569 0.104977 0.240359
-0.0937729 -0.0775752 0.0639103
-0.117526 -0.0791309 -0.0857565
-0.0580736 -0.201184 0.370481
0 0 0
-0.102889 0.228113 -0.046991
-0.0513928 -0.0354089 -0.0898832
0.15051 -0.0483761 -0.137921
0.102405 0.0248192 -0.0887298
0.0747237 0.240182 -0.223554
0.0722025 0.0319765 0.0755764
0 0 0
0.00416392 0.00471906 -0.172361
0 0 0
-0.0581927 -0.0847079 0.0514492
0 0 0
0 0 0
-0.150201 0.00306835 0.195043
-0.0275574 0.205261 0.221908
0 0 0
0.0074454 0.0155314 0.0363118
-0.151235 0.017626 0.00221844
0.0016881 -0.0409962 -0.0535709
-0.127528 -0.0926372 -0.155343
0.0657539 -0.326497 0.0671545
0.0292364 -0.0408193 -0.067431
0.352536 0.0105099 -0.24119
0 0 0
-0.300683 -0.286538 0.0479452
-0.335302 -0.157649 0.377752
-0.287969 -0.0791692 -0.123884
-0.309517 -0.126922 0.0958121
0 0 0
0.186665 -0.00243016 -0.0505203
-0.0898091 0.0337748 -0.121287
0.0453078 -0.0382367 0.23152
0.0232916 0.0332225 0.0442896
-0.0181806 0.345481 -0.171926
0 0 0
0 0 0
0.265071 0.1348 0.648724
0 0 0
-0.0048877 0.0196762 -0.142906
0 0 0
-0.0109393 0.0252358 -0.0269859
-0.420391 -0.0499174 -0.00302877
-0.196974 0.139437 -0.106384
0.00179239 0.0293585 -0.0105115
0.0569944 0.0590451 -0.0951053
0.0133898 0.00391268 -0.0443258
-0.129009 -0.0122133 -0.117234
-0.00705976 -0.10282 -0.343487
-0.187603 -0.112954 -0.237359
-0.19882 0.130855 0.0338576
0.0578294 -0.159118 8.28216e-05
0 0 0
0.0154438 -0.320067 -0.0852196
0.265676 -0.0294451 -0.0317106
-0.077592 0.037477 0.0083722
-0.264976 0.345206 0.522288
0 0 0
-0.159567 -0.163312 0.502624
-0.112472 -0.0643534 0.0654151
-0.0801851 -0.109138 -0.0876821
-0.102304 0.0131106 0.185418
0.0035549 0.0742529 -0.147663
0.0191121 0.0325988 0.0267615
0.134076 -0.0309257 -0.0662352
0.00859388 -0.0201811 -0.000930815
0.0142767 -0.0552622 -0.0741179
0.0164934 -0.0192998 0.0165872
0 0 0
0.0219217 0.318977 -0.146909
0.209256 0.0568928 -0.158184
0 0 0
0.266557 0.0229973 0.0534532
0.0121244 0.0883284 -0.0538892
-0.107827 0.323473 0.0243168
-0.0409051 -0.049492 -0.0331391
-0.0316963 0.0734895 -0.203446
-0.108269 -0.0176806 -0.192461
-0.216496 0.0821023 0.0971967
0.176008 0.166766 0.0240598
0.00451223 0.00230491 -0.00172055
-0.121185 0.113929 0.145544
-0.0926875 -0.000257499 0.0364143
-0.348477 0.0614895 0.185036
0 0 0
0.00329242 0.13005 -0.0882572
-0.00850977 0.115076 -0.0881854
-0.0633426 0.652977 -0.356884
0.151064 0.0602856 -0.135197
0.056295 -0.0225012 -0.361817
0.063844 -0.062844 0.0607306
0.000640431 -0.330983 -0.163179
-0.18021 -0.124897 0.0594146
-0.125606 -0.0636477 -0.299114
0 0 0
-0.0108898 0.0189771 0.00281227
0 0 0
0.00300333 -0.0960993 -0.0477288
0.287807 -0.114497 -0.0559145
0.130082 -0.165706 -0.103857
0.0743594 -0.257422 -0.107091
0.0010788 0.136964 -0.314918
0.0247733 -0.160309 -0.217869
0.0418377 0.24839 -0.203327
0 0 0
0.0337185 0.172679 0.144365
0.107838 0.173805 0.00162384
0.32201 0.144698 -0.0878567
0.0153492 0.118884 -0.267637
0.126739 0.0141366 -0.0127071
0.174562 -0.106066 0.418796
0.0459177 -0.277783 -0.10317
0 0 0
-0.271881 0.306975 -0.23794
0 0 0
-0.00829918 -0.0190989 0.00733444
-0.0772164 0.0710356 -0.140313
-0.121993 -0.260899 -0.131795
0 0 0
-0.0828742 -0.0500808 0.0392021
0 0 0
0.215615 0.271104 0.155958
0.0127359 0.00462175 0.00921969
0 0 0
-0.514932 -0.127414 0.411913
-0.00119303 0.00311708 0.0441332
-0.470697 -0.334198 0.245194
-0.00409934 0.00907758 -0.00490936
-0.00434536 0.00292188 -0.00537913
0.124497 -0.163641 -0.0553038
-0.0020885 -0.177389 -0.360871
0.164297 0.138201 -0.396808
0 0 0
0.220735 -0.0935162 0.120786
0.550915 -0.318563 -0.0317029
0.0665384 -0.000652074 -0.0153636
0 0 0
0.184867 -0.129667 0.309931
0.0523523 -0.0646923 0.109448
-0.209712 0.0563151 0.157793
-0.0196381 -0.0989231 0.114454
0 0 0
0 0 0
-0.0121392 0.132507 -0.137236
0.15462 0.495455 0.277386
0 0 0
-0.00299262 0.0353502 0.00942231
-0.181136 0.309808 -0.297046
0 0 0
0 0 0
-0.150188 0.102826 -0.301696
0.0220049 -0.00507582 0.0352859
0 0 0
0 0 0
-0.00404733 0.0238118 0.000222236
0.262754 -0.0534173 -0.219756
0.0309158 0.0379862 0.315552
0 0 0
0 0 0
-0.0586068 0.146657 -0.219769
0 0 0
0.00770624 -0.286466 -0.341259
0 0 0
-0.141535 -0.749195 0.0169251
0 0 0
0.219949 -0.588006 0.186512
0 0 0
0.0643472 0.281783 0.0500714
0.0861847 -0.0511395 -0.141323
-0.164202 0.0298612 0.0423429
0.0800061 -0.231668 0.40538
-0.059973 0.0837361 -0.0500096
0.0509535 -0.0141036 0.119747
-0.0184195 0.0724915 -0.121513
0 0 0
0.047775 0.290151 0.271819
-0.116289 0.315522 -0.411558
0.0508216 0.0426023 -0.240402
0.155424 0.546445 0.101133
0 0 0
0.0208161 0.320312 -0.0769206
0 0 0
0.498777 0.193732 0.0333
0.366705 0.159655 -0.375052
0 0 0
0.158656 -0.110086 -0.191238
0 0 0
0.152538 0.0395542 0.081708
0.000710497 0.00120328 -0.00231055
0.181245 0.387116 0.202636
0.0804249 0.152375 -0.174598
0 0 0
0.212234 0.00112628 -0.0844183
0 0 0
0.283578 -0.0949074 -0.0282324
0.0324662 -0.0602475 0.113558
-0.14548 -0.0441686 0.134647
0.00137862 -0.16003 -0.0143661
-0.0228643 0.0278992 -0.26153
0.0059235 0.275917 -0.11722
0 0 0
-0.0210311 0.08097 -0.275067
-0.198575 0.156181 0.436726
-0.00817755 -0.155635 -0.0608886
-0.0794138 0.21504 0.282901
0.025811 -0.000148129 -0.0224902
0 0 0
-0.0278374 0.288502 -0.0998084
-0.0728042 -0.048824 0.053197
-0.110878 0.43881 0.216738
-0.162723 -0.00658014 -0.0998507
0 0 0
0.30591 0.0977949 -0.0614855
0.138324 0.0576531 0.13478
0.060779 -0.363495 0.200036
0.122687 0.0133119 -0.0499584
-0.0901951 -0.150646 -0.405518
0 0 0
-0.00816487 0.0642915 -0.169689
0 0 0
-0.40538 -0.119249 -0.145165
-0.224445 -0.195082 0.433852
0 0 0
-0.0178648 0.0791113 -0.166374
0.192292 -0.136237 0.00134466
-0.0270677 -0.0842997 -0.0462663
0 0 0
-0.00230619 -0.00525595 0.0393814
0 0 0
0.139235 -0.112525 -0.417534
0 0 0
-0.155964 0.185953 -0.155707
0 0 0
-0.117756 0.0649353 0.287137
0 0 0
0.110543 -0.100613 -0.525605
-0.0180322 -0.0293536 0.0137642
-0.000290741 -0.0151492 -0.0155263
-0.144026 0.387879 0.109477
-0.0253829 0.0213478 0.0334915
-0.0670009 0.255615 0.149023
-0.0114459 0.0582218 0.0154107
0.324707 0.092743 -0.043839
0.105581 -0.106662 0.0756206
0.19391 0.2428 -0.24447
0.043155 -0.203309 -0.0925533
-0.0480892 -0.0517731 0.0338675
0.148827 0.0492932 0.163829
0.0696937 0.0896096 -0.122805
0 0 0
-0.153675 0.290641 -0.22501
-0.0406754 -0.0816283 0.00124925
-0.0270476 -0.00560558 -0.0498683
-5.59672e-05 -0.158679 0.0626732
0.122777 -0.0765494 -0.00656758
-0.420173 0.162262 0.226161
-0.125784 -0.0439981 -0.081708
0.0550664 -0.122014 -0.232314
-0.075538 0.174236 0.00905075
0 0 0
0 0 0
-0.0381517 0.00683845 -0.287769
-0.107893 0.148967 0.106053
0 0 0
-0.0209419 -0.220787 -0.164772
0.0617749 -0.0249747 0.209446
-0.0577289 0.369759 -0.149259
0 0 0
-0.138336 -0.220821 0.111744
-0.0121363 0.00640398 0.0632684
-0.240954 -0.444941 -0.205874
0.173399 0.396586 0.164022
0.125791 -0.0324734 -0.00609926
0.0777984 0.0850167 0.0795261
0.0349492 0.159937 -0.391613
0.0578976 -0.350928 0.0142205
0.137342 -0.0884848 -0.255783
-0.0324539 0.0884344 -0.0322282
0 0 0
0 0 0
0.128636 0.2322 0.260816
-0.00139606 -0.120978 -0.074696
-0.000462648 0.0591882 -0.290041
-0.0622176 0.393773 -0.006313
0.0157325 0.0204 0.00506681
-0.124698 0.00593669 0.232139
-0.0516784 0.0571563 0.143153
0 0 0
0 0 0
0 0 0
-0.0113743 0.728309 0.0405754
0 0 0
0 0 0
0.177617 0.195044 0.215579
0 0 0
0.194232 -0.236306 0.118013
0.021276 0.116601 0.00127701
0 0 0
-0.393555 0.299524 0.100236
0.00223463 0.0277331 0.0878211
0.00365544 -0.00401237 -0.192412
-0.14024 -0.231455 0.216142
0 0 0
-0.0182947 -0.161526 -0.125736
0.0382607 -0.200147 0.253945
0.00109943 -0.160939 -0.1504
0.208997 -0.0853414 -0.0800376
0 0 0
-0.0948524 0.0598599 0.313481
0 0 0
-0.320206 -0.129554 -0.422517
-0.136285 -0.0235652 -0.102755
-0.173409 -0.0286347 0.030291
-0.207513 0.018986 0.0212406
-0.000748613 -0.00252454 -0.131123
-0.341507 0.585748 0.470663
0.08316 0.0733513 -0.0234256
0 0 0
0.186177 -0.0639521 -0.00178079
0 0 0
0.257976 0.201822 0.176067
-0.000927888 -0.00844285 0.00230618
0 0 0
0.0822456 0.117291 -0.430452
0.609729 -0.0202163 0.241518
0.079395 -0.00441232 -0.0678826
0.302987 -0.655675 0.0205241
0.0426829 0.0426269 0.204715
-0.140506 -0.06779 0.29839
0 0 0
-0.02261 -0.0360894 0.000899967
0 0 0
0.20308 -0.190857 -0.203162
0.0889573 -0.011197 0.000987359
-0.0477217 -0.0253585 0.0355477
0 0 0
0.321083 -0.225823 0.284633
0.0135889 0.0118377 -0.00111934
-0.00286617 -0.0610391 0.300025
0.0161908 0.217239 -0.00502975
-0.2763 0.177614 0.0247525
-0.0471986 0.234995 0.00540587
0 0 0
-0.00720362 -0.0112857 0.0157971
-0.194587 -0.0287396 0.178392
-0.0302812 -0.124509 -0.00513672
0.10073 0.055654 -0.0571437
-0.00674717 0.0732403 -0.104909
0.132885 -0.248559 -0.12167
0.324374 0.350374 0.0429183
0 0 0
0 0 0
0.110555 0.0591839 0.335578
0.133914 -0.117653 0.163441
0.494246 -0.136337 0.0353447
0.0500642 -0.424829 0.165379
0 0 0
0 0 0
0 0 0
0 0 0
0 0 0
0 0 0
0 0 0
0 0 0
0 0 0
0 0 0
0 0 0
0 0 0
0 0 0
0 0 0
0 0 0
0 0 0
0 0 0
0 0 0
0 0 0
0 0 0
0 0 0
0 0 0
0 0 0
0 0 0
0 0 0
0 0 0
0 0 0
0 0 0
0 0 0
0 0 0
0 0 0
0 0 0
0 0 0
0 0 0
0 0 0
0 0 0
0 0 0
0 0 0
0 0 0
0 0 0
0 0 0
0 0 0
0 0 0
0 0 0
0 0 0
0 0 0
0 0 0
0 0 0
0 0 0
0 0 0
0 0 0
0 0 0
0 0 0
0 0 0
0 0 0
0 0 0
0 0 0
0 0 0
0 0 0
0 0 0
0 0 0
0 0 0
0 0 0
0 0 0
0.00169906 -0.0746147 -0.207204
-0.166424 0.0208505 0.0497658
0.000604231 -0.0056139 0.0148915
0.143975 -0.00034293 -0.0732785
-0.0482048 0.0191699 0.137778
0 0 0
0.108106 -0.0107322 0.0593036
0.0204158 0.457754 -0.134403
-0.00864378 -0.541773 -0.0025945
-0.145704 0.0583546 0.0201727
0 0 0
0.0455489 0.0024153 0.00782692
-0.0673935 -0.0105549 0.0235018
0 0 0
0.0914848 -0.0166919 0.0350334
-0.0301708 0.0903955 0.0917604
-0.122558 -0.0212822 -0.189658
0.166457 0.0196096 0.0337644
0 0 0
0.121846 0.00598075 0.00093838
-0.0531009 -0.200436 0.00349225
0 0 0
0.0882567 0.0422274 -0.0615839
0.0357607 0.00835101 0.120988
0.00204556 0.0895211 -0.174119
-0.0309414 -0.036813 -0.123225
-0.0127151 0.0105226 0.024848
-0.117647 0.0383768 -0.00654156
0.140739 0.0106945 0.0668907
0 0 0
-0.118801 0.0274139 -0.044496
-0.00796917 0.0213766 0.312279
-0.0626876 -0.00853599 0.00172806
-0.0622297 0.0122261 -0.0893961
0 0 0
-0.0616233 -0.00697237 0.00407178
-0.00615445 -0.00805783 -0.0262678
0 0 0
-0.102562 0.0137672 0.0108652
-0.0175578 -0.115602 -0.401542
-0.0376514 0.200353 0.377171
0.0630929 0.0466296 -0.0589008
0 0 0
-0.00880577 0.0654191 0.0546205
0.119712 0.00558997 0.0230719
0 0 0
0.0854125 0.0199908 -0.0242048
0.0181392 0.0470426 -0.0433092
0.055074 -0.0207043 -0.0201546
0.0980928 0.00957511 0.10158
0 0 0
-0.0344687 0.00151417 -0.0570381
0.0165438 0.04864 -0.00716732
0 0 0
-0.00916041 -0.00182199 0.0186305
0.00176257 0.0483882 -0.197115
-0.031101 -0.0428249 0.0289898
-0.0287831 -0.000320629 0.00733352
0 0 0
-0.0491431 -0.00321391 0.117384
-0.0836219 0.00012853 -0.0598397
0 0 0
0.0134021 -0.0155048 -0.0645155
-0.000315669 -0.00629481 -0.0637922
0.0377329 -0.0567529 -0.0955353
-0.0361486 -0.0438939 -0.0945109
0 0 0
-0.0821879 -0.0409134 0.0952025
0 0 0
0.107268 0.080368 -0.0689204
-0.231838 -0.161968 -0.00333683
0.0208053 -0.31541 0.245206
0.0630957 -0.0546875 0.248177
0.191122 0.819034 0.010838
-0.150112 -0.0151224 -0.076179
-0.276132 0.16345 0.321445
-0.0749263 0.0240995 0.0765372
0.00424162 0.0200574 -0.140114
0 0 0
-0.0628999 -0.0940896 -0.268715
0.1258 0.219337 0.139942
0.298384 0.539315 -0.0899312
-0.00408894 -0.00322709 0.0302974
0.173798 0.160117 -0.120662
0 0 0
-0.0471959 0.0134529 0.225283
0.0248732 0.172342 -0.186246
0.0903253 0.0295299 -0.0502494
0.20339 -0.225539 -0.258417
0.0975877 0.0930649 -0.0755256
-0.0553557 -0.0125382 0.0923649
-0.522166 -0.12409 -0.0682208
-0.218636 -0.175289 -0.0214199
0.000818444 -0.124988 0.108731
-0.0375566 0.0593219 -0.0272587
-0.202944 0.263474 0.251767
0 0 0
0.321236 -0.0158977 0.15196
0.141394 0.288652 0.190506
0.0415003 -0.0444661 -0.00249596
0.0113076 0.19316 -0.197395
0.000231144 -0.244354 -0.12929
0.0191124 0.0449248 0.260302
0 0 0
0.112276 0.500371 0.21593
-0.35126 0.287074 -0.0679189
-0.0346911 -0.086781 -0.0862794
0.107373 0.042261 -0.0123198
0 0 0
-0.01348 0.221449 0.1055
0 0 0
-0.00422013 -0.0593469 -0.00753923
-0.089279 -0.0272231 0.0979998
-0.886671 0.0692974 0.493471
-0.129361 0.0416914 0.10081
-0.0303557 0.0390774 0.245911
-0.270217 -0.0930094 -0.248157
-0.0970518 0.0889829 0.0289209
0.000115856 0.116741 -0.0116572
0.0946481 -0.132583 -0.0194008
0 0 0
-0.0302143 -0.0377198 -0.243402
0.00434864 -0.130785 0.0651466
0.00433148 -0.167085 0.0131519
0 0 0
0.171571 0.0311177 0.0310518
-0.173385 0.379195 -0.0819976
0.195883 0.148786 -0.219736
-0.00142834 0.0421204 -0.0357802
0.220991 -0.201966 -0.000803454
0 0 0
0.145083 -0.0452867 -0.211649
0.106106 -0.0283764 0.259411
-0.130915 0.24358 0.0179135
-0.175508 0.0712284 0.141306
-0.0642675 0.135366 -0.0255433
-0.270686 0.512866 0.14556
0.00107853 0.283173 0.0388922
0.257507 0.466896 0.00699291
0.0109965 0.108829 -0.119529
-0.0598196 -0.0683571 0.0434121
0.0322225 -0.0458662 0.222112
0.181681 -0.0869864 0.144849
0.173721 0.164573 -0.221322
0 0 0
0 0 0
-0.142486 -0.157377 -0.00195779
-0.0568781 -0.726858 -0.475953
-0.054311 -0.0336956 0.0115964
-0.278629 -0.284707 0.218823
-0.117729 -0.0654033 -0.200497
-0.155701 0.158698 0.0937145
-0.000292453 -0.00253993 0.0254677
-0.0363156 -0.121459 -0.314998
0 0 0
-0.214595 0.0207015 -0.000143133
0 0 0
-0.385618 0.0977704 -0.394825
-0.0011421 0.00452786 -0.0047098
-0.359546 0.277785 -0.181547
-0.0225083 0.11588 -0.247282
0.10181 -0.123108 -0.0726494
0 0 0
-0.0765521 0.091121 -0.410595
0.105492 0.408912 0.138418
0.0056598 0.142344 -0.0409478
0 0 0
-0.236742 0.134864 -0.0842552
0.000382438 0.00131049 -0.0402028
-0.216604 -0.0411037 -0.329272
0 0 0
0.113639 0.188197 0.286342
0.106498 0.156369 0.175017
0 0 0