<?xml version="1.0"?>
<VTKFile type="RectilinearGrid">
<RectilinearGrid WholeExtent="0 32 0 32 0 32" Origin="0 0 0" Spacing="1 1 1">
<Piece Extent="0 32 0 32 0 32">
<PointData>
</PointData>
<Coordinates>
<DataArray type="Float32" format="ascii">
0 0.524874 1.04975 1.57462 2.0995 2.62437 3.14924 3.67412 4.19899 4.72386 5.24874 5.77361 6.29849 6.82336 7.34823 7.87311 8.39798 8.92285 9.44773 9.9726 10.4975 11.0224 11.5472 12.0721 12.597 13.1218 13.6467 14.1716 14.6965 15.2213 15.7462 16.2711 16.796 
</DataArray>
<DataArray type="Float32" format="ascii">
-5.03879 -3.62163 -2.20447 -0.787311 0.629849 2.04701 3.46417 4.88133 6.29849 7.71565 9.1328 10.55 11.9671 13.3843 14.8014 16.2186 17.6358 19.0529 20.4701 21.8872 23.3044 24.7216 26.1387 27.5559 28.973 30.3902 31.8074 33.2245 34.6417 36.0588 37.476 38.8931 40.3103 
</DataArray>
<DataArray type="Float32" format="ascii">
0 0.524874 1.04975 1.57462 2.0995 2.62437 3.14924 3.67412 4.19899 4.72386 5.24874 5.77361 6.29849 6.82336 7.34823 7.87311 8.39798 8.92285 9.44773 9.9726 10.4975 11.0224 11.5472 12.0721 12.597 13.1218 13.6467 14.1716 14.6965 15.2213 15.7462 16.2711 16.796 
</DataArray>
</Coordinates>
<CellData>
<DataArray type="Float32" Name="Vector" NumberOfComponents="3" format="ascii">
0 0 0
0 0 0
0 0 0
0 0 0
0 0 0
0 0 0
0 0 0
0 0 0
0 0 0
0 0 0
0 0 0
0 0 0
0 0 0
0 0 0
0 0 0
0 0 0
0 0 0
0 0 0
0 0 0
0 0 0
0 0 0
0 0 0
0 0 0
0 0 0
0 0 0
0 0 0
0 0 0
0 0 0
0 0 0
0 0 0
0 0 0
0 0 0
0 0 0
0 0 0
0 0 0
0 0 0
0 0 0
0 0 0
0 0 0
0 0 0
0 0 0
0 0 0
0 0 0
0 0 0
0 0 0
0 0 0
0 0 0
0 0 0
0 0 0
0 0 0
0 0 0
0 0 0
0 0 0
0 0 0
0 0 0
0 0 0
0 0 0
0 0 0
0 0 0
0 0 0
0 0 0
0 0 0
0 0 0
0 0 0
0.0757994 0.055537 -0.0321042
-0.0614313 -0.126406 0.0364787
0 0 0
-0.0694113 -0.0401822 0.00424361
-0.0464223 0.207463 0.0282727
0 0 0
-0.126402 0.110436 -0.0638984
-0.0417996 -0.101942 0.0697742
0.0429695 -0.146972 0.0281717
0.0475427 -0.0217803 0.00367993
0 0 0
0.00256074 0.0402751 -0.0642012
-0.0152962 -0.283016 -0.0739635
-0.00642005 0.0745699 0.0578537
-0.160951 0.0234599 -0.0122708
0.029359 -0.0848933 0.0360785
0.0884415 -0.255762 -0.0303353
0.0264601 -0.217492 -0.0038996
0 0 0
-0.151145 0.159582 -0.0530624
0.0298225 0.0253005 0.163635
0 0 0
-0.0861445 -0.0526884 -0.00509376
-0.0230446 -0.0361061 0.0186809
-0.0341862 -0.126711 0.00342791
-0.0653065 -0.0492546 -0.00100199
0 0 0
-0.0249578 -0.180057 -0.0549319
0.183798 -0.0646502 0.0153375
0 0 0
-0.153136 0.0195169 -0.0342385
0.0289892 -0.00977285 0.0129097
-0.0900869 -0.123422 0.0594977
-0.0142153 -0.0105165 0.00736455
0 0 0
0.154619 -0.135662 -0.000324711
0.0244561 0.0887367 -0.0803739
0 0 0
0.161473 0.0837169 -0.019699
0.00325447 0.0173579 -0.0173255
0.0363405 -0.0157465 0.00522
-0.0639567 0.0292638 -0.01322
0 0 0
0.171069 0.000488529 -0.00639468
-0.123342 -0.157016 0.0163843
0 0 0
0 0 0
-0.190522 0.127877 -0.097015
-0.0893494 -0.118505 0.104835
-0.0310212 -0.00448634 -0.0018742
0 0 0
0.309083 0.179057 0.0024752
-0.0281687 0.0901509 -0.145266
0 0 0
-0.366724 -0.103473 -0.00160158
0.00927119 0.0277157 -0.0342211
-0.0107237 -0.0190937 0.013484
0.0510692 -0.101544 -0.00360801
0 0 0
0.0241902 -0.0474161 0.0350547
-0.0826511 0.126483 0.00366139
0 0 0
0.0515014 -0.014114 -0.0673294
-0.057612 -0.191272 -0.0572113
-0.0291584 -0.0186702 0.101536
0.0324393 0.0628687 0.0593479
0.237986 0.194184 0.0972869
0 0 0
0.0661165 0.0224839 -0.351257
0.0715057 -0.27166 0.166944
0 0 0
0.127506 -0.0621639 -0.0831193
0.00542883 0.023967 0.0346398
-0.0294108 0.0481694 0.0678381
-0.0837094 -0.0494274 -0.0265479
-0.0408508 0.0160917 0.0240986
0.0971981 0.207259 0.263329
0.146537 0.149088 0.264733
-0.0517628 0.0738124 0.0023155
0 0 0
0 0 0
0.0705304 -0.486907 0.234555
0.478262 0.27509 0.13387
0.292262 0.0431186 -0.0689148
0.328151 -0.262447 -0.521072
0 0 0
0 0 0
-0.159464 -0.00322577 0.0327775
-0.032653 -0.022219 -0.0284777
-0.209838 0.28906 0.0772683
0 0 0
-0.184397 0.156534 -0.000778076
0.00720979 -0.0942776 -0.207577
0 0 0
0.101999 -0.161525 0.241121
-0.196982 0.0383394 0.0475439
-0.0558628 -0.0482855 0.221453
-0.00125228 -0.0116091 0.016878
0.103012 -0.0254976 0.33696
0 0 0
-0.0539586 -0.39932 -0.317333
-0.506492 -0.277937 0.30076
-0.126658 -0.0782908 0.121183
-0.143098 -4.61417e-05 -0.204523
0 0 0
0 0 0
0.21451 0.585045 -0.070541
0.00132507 0.0536717 -0.00336654
-0.041968 -0.00935026 -0.0640285
0.0651166 0.24896 0.00137078
0.0225518 -0.00931958 -0.0115787
0.0858496 -0.09089 0.145871
0.429396 -0.0368746 0.145349
-0.138806 -0.020686 -0.0821072
0.12755 0.00863274 0.0381088
-0.0461667 -0.128955 0.00789628
0 0 0
0 0 0
-0.0388901 0.0306176 0.0310495
0.0264716 0.023429 -0.0720765
-0.477585 -0.0803815 0.0214444
0.0089982 0.0503074 -0.15235
-0.369721 -0.157433 -0.0336623
-0.0260961 -0.16497 0.0787447
0 0 0
0 0 0
-0.222399 0.154261 0.11849
-0.00265932 0.227053 0.0452246
-0.0124143 0.160064 -0.00493991
0.148893 -0.00096999 -0.00955033
0.0114813 -0.0605818 -0.14694
0.00726537 0.0571867 -0.022082
0.0751178 0.00327654 -0.0659074
-0.0993041 -0.152208 -0.00236878
0.00591887 -0.0184579 -0.0183486
-0.0998361 -0.433899 0.133532
0.0580174 -0.137427 0.288902
-0.0309646 -0.252292 -0.161926
-0.105615 0.0323827 0.0184312
0 0 0
0 0 0
0.0170836 0.0993349 -0.413582
0.0958361 -0.0138779 0.122259
0.211488 -0.460219 -0.274224
0 0 0
-0.330102 -0.123528 0.152618
-0.0175871 -0.0737498 0.203736
0.242194 0.0043058 0.0857369
0.369871 -0.07493 -0.258163
0 0 0
-0.00113013 0.313437 -0.0261299
0.0103234 0.0902882 0.0569675
0.018599 0.107563 0.0648476
0.286826 0.112848 0.470233
0 0 0
0.143341 -0.298419 0.299989
-0.0309888 -0.152622 0.00375422
-0.00263795 -0.0418089 -0.0104457
0.053276 -0.0715517 -0.0732056
-0.0283672 0.0474587 -0.141749
0.019423 0.154678 0.0768297
0 0 0
0.43928 -0.065303 -0.349115
0.00586092 0.122947 -0.0768844
-0.0665637 -0.0774637 -0.129702
-0.10062 -0.166782 0.00899807
0.104709 0.161743 -0.0543969
0.0295847 -0.0710352 -0.196823
0.061558 -0.171178 -0.00214307
0 0 0
0.00473387 0.00644401 0.0087104
0 0 0
0.03543 -0.170299 1.06152e-05
0 0 0
-0.100715 -0.0798842 0.136152
0.0999612 -0.0703071 -0.193763
0.140452 0.090401 0.102332
0.614962 0.321607 0.40809
0 0 0
0.105888 0.037353 0.0334038
0 0 0
0 0 0
-0.00570751 -0.0905301 0.155147
0.0983973 -0.149447 -0.158315
-0.0818432 0.123001 -0.0525524
0 0 0
-0.103609 0.207012 -0.00332495
-0.167465 -0.109034 -0.0567708
-0.356979 -0.214496 -0.0748999
-0.0410407 -0.135864 0.136804
0.27805 0.000408143 0.0227772
0.00806752 -0.01401 -0.136533
-0.0578707 -0.0345317 -0.0983045
-0.382022 0.100836 -0.0521769
0.11942 0.0688671 -0.0430222
-0.0574249 -0.0147943 -0.170002
0.0400665 -0.0325255 0.107887
0.0815956 0.0703497 0.0224836
0 0 0
0 0 0
-0.00763949 -0.0473682 -0.0233896
0.0189294 0.0568167 -0.00403897
-0.0348936 0.105444 0.527479
0.00841178 -0.0727448 0.0102936
0 0 0
0.0977395 0.205544 -0.00218505
0.214547 -0.382718 -0.435941
0.240305 -0.369644 -0.164868
0.205951 -0.0390032 0.000623339
-0.0185026 0.0120343 0.0047112
0 0 0
-0.00201017 0.266627 0.0563397
0 0 0
0 0 0
0 0 0
-0.12343 -0.0676148 -0.000344676
0 0 0
-0.0148736 -0.300204 0.509451
0.173147 0.159839 -0.212196
0.0110384 -0.00685516 -0.00131855
0.000898465 0.195038 -0.0186951
-0.190523 0.184446 -0.250902
-0.321975 -0.226913 -0.2354
-0.0125781 0.00908037 -0.0133997
-0.0251593 0.0588969 0.00505767
-0.553913 -0.65726 -0.29341
-0.00544381 0.00294127 -0.00396606
-0.476331 0.286674 -0.132012
-0.14367 0.0972533 -0.00875461
-0.159163 0.066015 -0.526679
-0.0211675 -0.0169003 -0.0174078
-0.177837 -0.224807 0.12206
-0.219071 -0.0806784 0.0437366
-0.0692516 0.20341 -0.00161625
0.177207 -0.00559914 0.151223
0.0309113 -0.371016 0.0265906
0 0 0
0 0 0
0 0 0
-0.0792923 0.0447478 -0.0542817
0.229881 0.136705 0.143856
0.23955 -0.00651072 -0.0544287
0.273405 0.165082 -0.188005
0.170445 0.22907 -0.00506968
0.0832859 -0.0298748 -0.0640968
0.0190966 -0.235654 0.0479047
0 0 0
0.179273 -0.0514143 -0.142421
0 0 0
-0.108164 0.497265 0.0870408
-0.0460664 0.0372191 -0.0430857
-0.254512 -0.15471 -0.229696
-0.00874124 -0.00592727 0.0293391
-0.0514041 -0.0442248 -0.0257483
0.300994 -0.0656818 0.303387
-0.0437936 0.0539777 0.00913494
-0.23495 -0.0169702 0.326142
0 0 0
0 0 0
-0.00245203 0.0619389 0.00031622
0 0 0
0.18488 0.0730427 -0.371415
0 0 0
0 0 0
0.276171 -0.266396 -0.0948772
0 0 0
-0.324469 -0.265115 -0.0185321
0 0 0
-0.0308489 0.0198476 0.103884
0.528133 0.0741525 -0.00382057
0.0730405 0.0805763 0.04861
-0.00348985 0.0235895 0.0177567
0 0 0
0 0 0
0.392855 -0.283069 -0.102152
0.466678 -0.0679218 -0.0280482
0.0578706 0.0771301 0.101263
0.062209 -0.0193264 -0.20389
0.00149011 0.170353 -0.213251
0.047692 0.17061 -0.257997
0.00257279 0.106553 -0.0671733
0 0 0
0.122555 -0.148003 -0.00194431
0.0474883 -0.0213663 -0.0282648
0.195475 0.139375 -0.0340588
0.0892616 -0.142996 -0.0542025
0.0625484 0.348857 0.0461569
-0.0172446 -0.0434185 -0.000220914
0 0 0
0 0 0
-0.0624966 -0.0437665 0.0668601
-0.452071 0.141529 -0.0739946
0 0 0
0.023891 -0.0195803 -0.0185581
0.281114 0.339103 -0.0273939
0.223675 0.287489 0.233092
0.302655 -0.200289 0.290841
0 0 0
0 0 0
-0.328729 -0.0435349 -0.103652
0.00259725 0.140864 -0.137886
0.001325 0.111276 0.031877
0.0070909 -0.114958 -0.166522
0.221568 -0.021298 -0.206226
-0.0966732 -0.194457 -0.206395
0.148791 -0.0998308 -0.00762555
0.191314 0.00749723 0.00662641
-0.00144941 0.00539536 1.70084e-06
0 0 0
-0.119043 -0.196549 -0.627452
0 0 0
-0.0502451 0.0149304 -0.0952462
0.191104 0.0431591 -0.0154861
0.0070334 0.0435642 0.000623245
0 0 0
-0.229869 0.106454 -0.0798892
-0.0578344 0.0276792 0.0114309
-0.413834 -0.16441 -0.154306
-0.00713254 -0.0350977 0.113883
0 0 0
-0.0245409 0.00604336 -0.0649824
-0.379457 -0.396421 0.200884
-0.024477 -0.0352292 0.126192
0 0 0
-0.160359 -0.0499357 -0.0167926
-0.283997 -0.618548 0.21052
0.331057 -0.140057 -0.492744
0.00612231 0.0423594 -0.227227
0.0667971 0.292473 0.0477462
0.131292 -0.0645526 -0.0084685
-0.0306192 -0.196564 0.0259851
-0.00146883 0.193809 0.325757
0 0 0
0.190166 0.0541998 -0.00610702
0.084446 -0.00235839 -0.0232924
0 0 0
0.0629411 -0.149924 0.278322
0 0 0
0.0945441 0.245463 0.00187179
0.168924 0.0120615 0.103966
-0.184737 0.0734896 -0.165003
0.0325738 0.216567 -0.159366
0 0 0
0 0 0
-0.134834 0.051842 -0.0689312
-0.266617 0.113136 -0.103276
0 0 0
0.00898645 -0.0142832 0.417769
0 0 0
-0.181787 -0.0795326 -0.00543347
0 0 0
0.0519003 -0.0580244 -0.000994407
0.0648118 -0.196948 -0.407386
0 0 0
0.0354352 -0.126739 -0.354971
-0.100185 0.0120746 -0.00415364
-0.191661 0.0608421 -0.176905
-0.104525 -0.120597 -0.0375251
0 0 0
0 0 0
-0.162816 0.130995 0.0207705
0.00166695 -0.0746813 -0.165302
0.0261528 0.000465522 0.248996
-0.0412764 0.117733 -0.0158014
0.191705 -0.0816273 0.0722866
-0.0232937 0.0156247 0.00732602
-0.538098 0.314496 -0.0517986
-0.472578 0.0909752 -0.0093364
-0.439049 0.202762 0.135049
-0.0359686 0.00220002 -0.0315493
0 0 0
0 0 0
0 0 0
0 0 0
-0.123041 -0.105205 -0.074478
-0.176384 -0.135926 -0.181909
0.00391049 0.000529048 -0.00648702
0.12324 0.115539 -0.155054
0.288287 -0.112359 0.0697282
0.0446358 -0.0208307 0.00331161
0 0 0
-0.00189256 -0.0659047 0.165607
-0.303663 0.0967127 -0.210525
-0.0212788 0.11269 0.0757489
-0.0340192 0.0482034 -0.0222646
-0.0872208 -0.0423889 0.192411
-0.0818245 -0.000364616 0.317759
0 0 0
0.073651 -0.0195106 0.00392948
0 0 0
-0.0789647 0.267898 -0.050605
0 0 0
0.147347 -0.0266025 -0.162565
-0.0613091 0.0303018 -0.0175373
-0.104626 0.41785 -0.471342
0.0797834 0.159219 0.0552761
0.15456 0.566166 0.245283
0.152755 0.154065 -0.335766
0 0 0
0.00290087 0.0129899 -0.00129552
0.00448186 0.0258771 -0.0228494
0.103962 0.522286 -0.259546
-0.14852 0.15447 -0.166628
-0.00799155 0.00683735 -0.0590153
0.0946519 -0.28825 -0.0380539
0 0 0
0.0493826 -0.183326 -0.00485731
0.0394375 -0.0168486 -0.0161694
0.23085 0.0527955 -0.00171422
0 0 0
-0.0303199 0.0173074 -0.0399463
-0.00784389 0.0019358 -0.00550874
-0.108035 -0.0109292 0.054201
0 0 0
0 0 0
-0.213306 -0.401123 -0.095471
0.185601 -0.448885 0.0544847
0 0 0
0.100376 -0.0544096 -0.00349416
0.165508 0.206603 0.00237894
0.16159 -0.00107026 0.144611
0 0 0
-0.191615 0.485184 0.189784
-0.142326 0.292663 0.0223004
-0.04804 0.00876912 0.0788705
-0.0658491 -0.0144158 -0.0337241
-0.0329186 -0.0206401 0.0340136
-0.19816 0.275223 -0.0116999
0 0 0
0 0 0
0.0564989 0.352013 -0.084702
0.140217 0.310509 -0.0515739
0.00627887 0.390802 -0.245672
0.268156 0.333926 -0.318371
0 0 0
0.207217 -0.155349 -0.0143358
0.0487405 -0.0156031 0.0750327
0 0 0
0.379479 0.0120559 -0.266006
0.311006 -0.445234 0.239037
0.0430277 -0.138319 -0.0657315
-0.23641 -0.204881 0.0612072
-0.0332268 -0.00742158 -0.0573303
-0.00145619 0.00567631 -0.00223835
0 0 0
0 0 0
0.339658 0.0492035 -0.278689
-0.189884 -0.391891 0.0714264
-0.00257169 -0.0207763 0.0163322
0 0 0
-0.113388 -0.165168 0.0562984
0 0 0
-0.0389861 -0.15891 0.0827707
0 0 0
0 0 0
-0.0302496 0.0878306 0.000190939
0 0 0
0.0749584 0.184558 0.185384
-0.158911 0.0663201 -0.165889
0.116901 0.175489 0.084634
-0.123044 0.00324423 0.0509422
0.0167531 0.0659042 0.190506
0 0 0
0.0828319 0.144321 0.000973518
-0.00718505 -0.00227379 0.03135
0 0 0
0.00103222 0.00197551 0.00209958
-0.00685058 0.0247837 0.110693
0.0196769 -0.0392624 0.193419
0 0 0
0 0 0
0 0 0
-0.0442286 -0.22421 -0.128911
0 0 0
0 0 0
0 0 0
0.0683589 -0.0952873 -0.103092
0 0 0
0.268806 -0.1944 -0.356667
0 0 0
0 0 0
0.180264 0.014908 -0.448281
0.14152 -0.0559753 -0.0909234
-0.115533 -0.112566 0.0297261
0.0259498 0.309611 0.0186964
-0.205695 -0.176559 0.0478047
0 0 0
-0.107581 -0.0966418 -0.000977116
0 0 0
-0.170812 0.110859 -0.348989
0 0 0
0.0242654 0.0795172 -0.0474661
0 0 0
0.0115068 0.0864241 0.00700197
0 0 0
0.312786 0.249081 0.171421
0.15628 -0.0156511 -0.139231
0.340214 0.0356091 0.0585461
0.296578 -0.288313 0.0242349
-0.0142875 0.0603663 0.0709611
-0.0844661 -0.109311 0.00671362
0 0 0
0.0518693 0.0187477 -0.160651
-0.0858076 0.112063 0.055678
0.221627 0.210846 0.33905
0 0 0
0.0725095 -0.0077737 0.0424655
0 0 0
0.0401265 -0.159768 -0.00211572
0 0 0
0.000962299 -0.0223307 -0.0820498
0 0 0
0.0356514 -0.0237535 0.1183
0.0541283 -0.123894 -0.00253938
0 0 0
-0.121226 0.15065 -0.0242453
-0.0358767 0.0682204 0.0306232
0.105746 0.123178 0.0811707
-0.000123825 0.06975 0.0319782
0.0436018 -0.148311 -0.00290212
0 0 0
0.134895 -0.116419 -0.132978
0 0 0
0 0 0
-0.00210501 -0.00388134 -0.00535458
-0.280801 0.311036 -0.281741
-0.0145926 0.00631768 -0.0139441
-0.161397 0.00685399 -0.171488
-0.0639959 0.479415 -0.065986
-0.0795032 0.00642237 -0.34289
-0.000313907 -0.00746699 -0.00899491
0.00953801 0.0434767 -0.0439646
0.219485 -0.329611 0.01923
-0.0506176 -0.0162597 0.124434
0.110544 -0.0266477 0.134495
0.231009 0.00121971 0.220875
0 0 0
0 0 0
-0.219992 0.613785 0.0594393
0.00513998 0.110304 -0.0363019
-0.000844428 -0.0618659 0.122233
0.345059 -0.226595 -0.0268649
0 0 0
0.0392579 0.051505 -0.155041
-0.0383075 -0.182031 -0.0705584
0 0 0
0.131638 0.0604204 -0.00447017
0 0 0
-0.176599 -0.383564 -0.0902234
-0.0602319 0.150553 -0.152536
0.0543474 -0.0727992 -0.022996
0.425443 -0.47235 0.142766
0 0 0
0 0 0
0 0 0
0.265936 -0.265435 -0.00770946
-0.0893713 0.069986 -0.142988
0.101332 0.0110154 -0.386781
0.236163 0.118494 0.444571
0.150928 -0.240701 -0.172479
0.24021 -0.0499813 0.131762
0.114531 0.00143865 -0.0692425
0 0 0
-0.286284 0.167956 -0.218779
-0.00173381 0.0376545 0.00432334
-0.313243 -0.0179667 0.2324
0.00200791 -0.00522497 -0.10903
-0.011846 0.0247893 -0.0043009
0 0 0
-0.00108067 -0.0175409 -0.11389
-0.237171 -0.461966 -0.0851495
0.368746 0.161201 -0.224138
0.115276 -0.0539997 -0.111083
0 0 0
0.00600279 -0.200242 -0.243668
0 0 0
-0.113506 -0.189158 -0.0428535
-0.0293365 0.027809 0.219904
-0.0944018 -0.0358348 0.00166319
0 0 0
0.00692579 -0.0635381 -0.328582
0 0 0
0.392011 -0.247427 -0.183575
0.00172665 0.0181624 -0.0233177
0 0 0
-0.156617 -0.0125582 0.096483
0.0617928 -0.147395 -0.312973
-0.459373 0.248713 0.00357928
0.00578143 0.125334 0.0406564
0.133191 -0.016585 -0.0454193
0.432949 0.110188 0.12186
0.105149 -0.0299811 0.0701382
0.410467 -0.249155 0.0481494
0 0 0
0.217178 -0.0123436 0.284793
0 0 0
0 0 0
-0.0576258 0.29365 -0.518624
0.110093 -0.16801 -0.166949
0.223522 0.0993293 -0.061782
-0.000770737 -0.108535 -0.0511866
0.196401 0.346891 -0.0807258
0 0 0
-0.317166 -0.0802966 -0.219879
-0.152985 -0.160707 0.114274
0 0 0
0.10428 -0.410887 -0.276829
0.209106 0.0360144 -0.102664
0 0 0
-0.104025 0.104401 -0.0545582
0.0331821 0.0180894 -0.0219783
0.215369 -0.294615 -0.102595
-0.00292308 -0.00349335 -0.0608273
0.0926893 0.369873 0.376745
0 0 0
-0.345317 0.107788 0.205245
0 0 0
0.00578901 0.122353 0.427105
-0.0142268 -0.0116215 0.0169926
-0.290514 0.209372 0.353216
-0.000695168 -0.0449418 -0.126379
-0.221931 -0.214203 -0.213753
0.0386123 0.0115004 0.0318866
0 0 0
-0.0228187 0.00851489 -0.0188287
0.0689776 0.0768861 -0.141372
0.236295 0.0349404 0.207472
0 0 0
-0.106692 0.0277927 -0.0563244
0.00698664 -0.00063721 -0.0498455
-0.0971635 0.24261 0.000617723
0.000258204 -0.0495734 0.060814
-0.173426 -0.224371 -0.0263316
-0.247334 -0.147751 -0.022171
-0.187821 0.129961 0.086319
-0.18416 0.169644 -0.0759383
-0.0400668 -0.00777633 -0.0333201
-0.0643155 0.00745525 -0.00716354
-0.262848 -0.0837755 -0.0995058
-0.317017 0.122333 -0.130296
-0.0100336 -0.00700621 0.0105243
0 0 0
-0.154564 0.176644 0.10232
0 0 0
-0.141455 0.254978 -0.0341235
-0.0229193 0.00519367 0.374925
0.0327538 -0.0710496 0.0439185
0.269557 -0.0130873 0.0236631
0 0 0
-0.088079 0.261181 0.102496
0 0 0
-0.0141929 0.152594 0.146466
-0.0688427 0.0654375 -0.0956851
0 0 0
-0.302291 -0.118627 -0.0515996
-0.0630201 0.130628 -0.0153205
-0.0189348 0.0758387 -0.122493
-0.027348 0.0651062 0.0818094
-0.0277441 -0.019018 -0.00889454
-0.00195506 0.247802 0.12349
-0.0574362 -0.185695 -0.0410853
-0.165117 -0.0936155 -0.158829
-0.0414446 -0.0557323 0.016479
0.342591 -0.533075 0.424207
0.0110201 0.0328448 -0.0967567
0.00466384 -0.0788979 -0.0312042
-0.0342162 0.00119764 0.0269575
0 0 0
0.0678054 -0.4026 -0.0821114
-0.0375808 0.0471775 0.000354064
0.206554 0.278495 -0.170952
0 0 0
0.00252409 0.0174981 0.0591654
0.043055 -0.201803 0.318906
0 0 0
-0.0338927 -0.0926796 0.145352
-0.00235408 -0.11569 -0.0197176
-0.217829 0.311859 0.131679
-0.0905093 -0.147231 -0.0271943
0.00337984 -0.182586 0.0594146
-0.122303 0.0558373 0.172388
-0.048112 0.0631977 0.0863309
-0.0150207 0.0995875 -0.0288163
-0.00216339 -0.0307903 -0.0038646
-0.130438 -0.124828 0.0190236
-0.115567 -0.0153996 0.167602
-0.347226 0.221099 -0.0606331
0.000989881 0.0307388 0.137437
-0.0547673 0.053963 0.229322
-0.00129476 -0.0538985 0.298311
-0.252876 0.208341 -0.157714
0.133951 0.119389 0.00265435
0 0 0
0.149173 -0.102919 0.181661
0 0 0
0.0499214 -0.0326495 0.117874
0 0 0
-0.12343 0.0548024 -0.182804
0 0 0
0.415188 -0.0591238 0.0916817
0.00319895 0.016156 0.00497248
0 0 0
0.0306543 0.0664058 0.0387324
0.0862479 0.232088 0.0447453
-0.00585746 0.0121437 -0.0285858
-0.135757 -0.171438 0.150676
0.0482287 -0.0737253 0.0877851
0 0 0
-0.00248209 0.0157405 0.178147
-0.111124 -0.123152 0.202271
-0.220196 0.00131951 0.125957
0 0 0
0 0 0
0.0051673 0.0925715 0.0678949
0.209572 -0.0898867 0.0075895
0.231383 -0.0269324 0.0035336
-0.12407 0.162392 -0.0938474
0.000729558 0.0545541 -0.0845925
-0.365947 0.0333369 0.174553
0.0031784 0.00906363 0.0499103
0.384791 -0.318719 -0.0492588
0.0162398 0.0653292 0.0696884
0.110901 0.115197 -0.528602
0 0 0
-0.0685418 -0.00588457 0.524837
0.118289 -0.151942 -0.0508515
-0.064009 0.0418615 -0.000765426
-0.00149698 0.109153 0.115854
-0.324769 0.0681925 -0.118184
-0.0307246 0.0363528 0.124805
-0.157348 -0.195433 0.0158798
-0.0478358 0.153843 0.216238
-0.0230085 0.00337945 0.0237162
0 0 0
0 0 0
0.0393643 -0.00121427 -0.00696548
-0.235902 -0.316322 -0.090679
-0.148275 0.00668334 0.393833
-0.393286 -0.178236 0.11049
-0.217663 -0.238964 0.0157742
0 0 0
-0.0380057 -0.0883667 0.0508595
-0.208892 0.105887 -0.146959
0 0 0
-0.0868818 -0.0189067 0.350402
0.00933248 0.0124 -0.0593722
-0.0889501 -0.00988067 -0.0666848
-0.368241 0.319183 0.371615
-0.0113766 0.413692 0.125108
0 0 0
0 0 0
0 0 0
-0.211473 -0.440615 -0.319063
0 0 0
0 0 0
0.037744 -0.039524 -0.277954
-0.0126414 0.217706 0.0686592
-0.0925081 -0.0194655 -0.180141
-0.0200488 0.0937634 -0.0486901
0.0357452 0.120389 -0.0932271
0.20425 0.349778 0.112305
0 0 0
-0.139139 -0.0838063 0.262687
0 0 0
-0.127318 0.0855394 0.000173497
0.0453303 -0.0314118 -0.0147082
-0.152576 0.253841 -0.0719426
0 0 0
0 0 0
0 0 0
-0.205318 -0.133041 -0.182675
-0.0766233 -0.0354622 0.0863736
-0.0890416 -0.320232 -0.169277
0 0 0
-0.204734 0.0427345 0.282713
0.131123 0.04061 0.100187
0 0 0
0.0712949 0.0916215 0.0706546
0 0 0
0.0848677 0.180487 0.357545
0 0 0
-0.0630877 -0.181283 -0.0488899
0 0 0
0.00178414 -0.104626 -0.425384
0 0 0
0 0 0
0 0 0
-0.0471184 0.000208112 -0.0341831
0 0 0
0.00732471 0.041604 -0.00545667
0 0 0
-0.125047 0.229302 0.0254884
-0.0574327 0.0538101 -0.0235223
0 0 0
0 0 0
0 0 0
-0.0994859 0.0430318 0.0497486
-0.0636974 -0.0511847 0.00629306
0.225402 0.0579311 0.303105
-0.130352 -0.163566 -0.137071
0 0 0
0.0427656 -0.0414112 -0.174202
0 0 0
-0.000654571 0.0690871 -0.0212917
-0.0622909 -0.130069 0.263854
0.028631 0.0433783 0.0303692
0.184442 0.364152 -0.295064
-0.0128923 0.0937162 -0.00336989
-0.00620273 0.00164876 0.00533183
-0.14318 -0.196655 0.00650804
-0.0318892 -0.000834405 -0.0265746
0.0315575 -0.0142952 0.0348498
0 0 0
0.115053 0.399595 -0.027577
-0.235173 0.17444 -0.413443
0 0 0
-0.109583 -0.267988 -0.136023
-0.0251335 -0.042558 -0.0221736
-0.0310653 -0.275966 0.02412
-0.00255671 0.0340438 -0.133535
-0.327723 0.190055 0.0850342
-0.0638691 0.162849 0.0918438
-0.214355 0.0919792 0.25032
-0.301054 0.0620303 0.117344
0.0694826 0.000511378 0.00246721
-0.0602748 -0.0808298 -0.0459409
0.00551966 0.0368719 -0.0140216
0.0572867 0.15111 0.0375297
-0.0511426 -0.139657 0.137275
-0.0833069 -0.0983666 -0.1425
0.0127727 0.0872219 -0.073122
0.206903 0.0462497 0.00459618
0 0 0
0.143186 -0.155677 -0.131174
0 0 0
0.264977 -0.0552611 -0.248665
0 0 0
0 0 0
0.0406527 -0.00723262 0.000995908
-0.125185 -0.0303706 0.072178
-0.0476769 -0.00211362 0.069667
-0.0647697 -0.0452994 0.0376072
-0.0614379 0.0326437 -0.0807008
0.00162591 -0.137105 0.156333
-0.0759049 -0.0224485 -0.062302
0 0 0
0.0897974 0.29044 -0.261303
0 0 0
-0.142246 -0.304068 0.169295
-0.121769 0.00737337 -0.123136
0.118231 -0.246625 -0.00565366
0 0 0
0.0550968 0.327844 -0.00628177
0.128557 -0.144181 0.247378
0.0533919 -0.188522 0.11432
-0.0235563 -0.149813 -0.053331
-0.0682374 0.0881047 -0.078151
-0.0546063 -0.695892 -0.00299253
-0.00555308 0.136506 -0.0512817
0.209995 -0.164091 0.10832
0.112024 -0.0494759 0.014927
0.341234 0.0999062 0.414578
0 0 0
0.0995801 0.132512 0.334371
-0.112537 0.293457 -0.116994
0.1146 -0.10873 0.0173736
-0.0067939 -0.0798933 -0.0799056
-0.145818 0.104619 0.104132
-0.334955 0.0102221 -0.108745
-0.157181 0.0464518 0.173524
-0.338508 0.0341192 0.132507
-0.039988 0.0701156 0.0651728
0 0 0
-0.243286 0.0100095 -0.0882135
-0.0570181 0.154596 0.180097
-0.285768 -0.224126 0.181657
-0.180507 -0.072587 -0.0521433
-0.247899 0.144766 0.206487
0.402639 -0.0291641 0.241063
0.0475653 0.00209143 -0.0649572
0 0 0
0.0929402 -0.105853 0.0224037
0.0182165 -0.143511 0.0142307
0.093022 -0.17969 0.0285991
0.233346 -0.164838 -0.280092
0.0387275 -0.0827435 -0.0387218
0.425966 -0.283361 0.230879
0 0 0
0.226156 -0.072458 -0.200199
0 0 0
0.135002 -0.296012 -0.000921281
-0.217064 0.158498 0.149309
-0.162793 -0.0712679 0.284337
0 0 0
-0.18568 0.0790073 0.100602
-0.188038 0.0403992 -0.305176
0 0 0
0.0647127 -0.0412242 0.0326293
0 0 0
0.0939682 -0.176845 -0.00206463
0 0 0
0 0 0
-0.179684 0.163862 0.016582
0 0 0
-0.0524173 -0.0465523 -0.211511
-0.126933 -0.105858 -0.0555139
-0.0278272 -0.159776 0.0510671
-0.074361 -0.102954 -0.154415
-0.105182 -0.332709 0.104288
0.146356 -0.0505277 -0.281291
0 0 0
-0.276468 -0.227827 0.0127628
-0.00303054 -0.474816 0.135856
-0.00237397 -0.216935 -0.0925773
-0.0818348 -0.198332 -0.0127517
0.144199 -0.015026 -0.0669013
-0.0991991 0.137849 -0.00234653
0.000343263 -0.00332714 0.00357971
-0.058571 0.123935 0.394493
-0.0125283 0.0810836 0.0869758
-0.0682912 0.109464 0.194501
0.218636 -0.0220124 0.166736
0 0 0
0.00627385 0.0150469 0.02575
-0.0396735 -0.0502161 -0.00814768
-0.113808 -0.114314 -0.000780154
0.0241429 -0.00712435 0.101647
-0.00705509 0.142951 -0.0927101
-0.0578191 -0.0859877 0.040934
-0.209667 -0.042284 -0.163008
0 0 0
-0.157388 -0.129655 -0.0834269
-0.0593579 0.0253092 0.1076
0 0 0
-0.142457 -0.0322161 -0.011195
-0.000826914 0.0983181 0.0493432
0.045541 -0.0754359 -0.406786
0 0 0
-0.339235 -0.0058668 -0.0548488
-0.0998867 -0.0778641 -0.108024
0.0800842 0.127749 0.0502711
0 0 0
0.0846383 0.0703676 0.161688
0 0 0
0.0156668 -0.116202 0.161697
-0.208701 -0.131662 -0.116868
0 0 0
0 0 0
0.208559 -0.0339793 0.00106495
-0.255603 -0.0562054 -0.0974164
-0.0677953 -0.00675739 -0.0254757
0.114148 0.00254197 0.351294
0 0 0
0.0146171 -0.0591655 0.105041
-0.0582847 0.00318336 -0.0280203
0 0 0
0 0 0
-0.0114559 -0.0649965 -0.00536793
0.00488609 -0.130371 0.241224
-0.0692765 -0.461248 -0.378818
0 0 0
0 0 0
0 0 0
0 0 0
0 0 0
0 0 0
0 0 0
0 0 0
0 0 0
0 0 0
0 0 0
0 0 0
0 0 0
0 0 0
0 0 0
0 0 0
0 0 0
0 0 0
0 0 0
0 0 0
0 0 0
0 0 0
0 0 0
0 0 0
0 0 0
0 0 0
0 0 0
0 0 0
0 0 0
0 0 0
0 0 0
0 0 0
0 0 0
0 0 0
0 0 0
0 0 0
0 0 0
0 0 0
0 0 0
0 0 0
0 0 0
0 0 0
0 0 0
0 0 0
0 0 0
0 0 0
0 0 0
0 0 0
0 0 0
0 0 0
0 0 0
0 0 0
0 0 0
0 0 0
0 0 0
0 0 0
0 0 0
0 0 0
0 0 0
0 0 0
0 0 0
0 0 0
0 0 0
0 0 0
0.026231 0.075609 0.0472505
0.0242034 -0.0101476 0.061614
0 0 0
0.333158 0.0468828 0.0451535
0.00625538 -0.0566591 -0.122429
-0.000138574 0.077272 0.010143
-0.0677602 -0.0348454 -0.0287307
-0.0141006 -0.0351894 -0.137278
-0.000940017 0.0213808 0.247765
-0.0916252 -0.078091 0.089927
-0.00280591 0.000271067 0.0203027
-0.0017998 0.108877 -0.1044
-0.0825025 0.0286171 0.0714159
0.0415293 0.0181279 -0.0647211
-0.098081 0.0132173 0.0826752
0.0248258 -0.0252606 -0.295467
-0.0464387 -0.103288 0.0851868
0.0214155 -0.127977 0.0236958
-0.02637 0.0454628 -0.0174812
-0.266671 -0.102728 0.240295
0.0589612 -0.0515418 0.0607788
-0.00146774 -0.0241223 0.0938651
0.0438664 -0.0278034 -0.0434694
-0.0457119 -0.0518436 0.0746945
0.000929495 -0.0623471 -0.136804
0.0144243 -0.0366557 0.0718103
0.00343773 -0.00167783 0.0436416
0.0714968 -0.206604 -0.0719689
0.0744844 -0.162324 -0.24843
5.9523e-05 0.0858965 -0.0491549
0.039444 -0.0753317 -0.0353716
0.0570244 -0.122503 -0.0994596
-0.0242278 0.0405423 0.0894843
-0.0431727 -0.0555603 -0.045493
0 0 0
-0.116825 -0.00845466 0.0478616
0.0873233 -0.0473602 -0.0337394
0 0 0
0.0304144 -0.000156201 0.0127001
0.00185993 -0.129771 -0.206096
0.0383353 0.129129 0.0204701
0.126595 -0.052869 -0.0312674
0.00299425 0.00590263 0.0599022
-0.0430784 0.0378798 -0.0815216
0.121929 -0.00113741 -0.0324517
0 0 0
0.0678369 0.00370972 -0.00150214
-0.0282064 -0.0159993 -0.00841135
-0.00608045 -0.0314102 0.163425
-0.0141629 0.00178251 -0.00504636
0.0268508 0.0188465 -0.00169774
0.132291 -0.0152058 -0.103568
-0.044071 -0.00426823 -0.0670924
0 0 0
-0.06769 -0.00315988 -0.00613624
0.000896733 0.0440466 -0.0464976
-0.0118316 0.0769135 0.146936
0.230038 -0.00476912 -0.112981
0 0 0
-0.0171099 0.0219907 0.0293605
-0.0126214 0.00340782 0.261968
0 0 0
0.113879 -0.0466506 0.00278345
-0.0605399 -0.0737849 0.00416707
-0.164394 -0.314827 0.45166
-0.449313 0.005831 0.125764
-0.0586297 0.0227167 0.0526897
-0.256702 -0.309841 -0.200911
-0.389889 -0.225916 -0.235104
0.0194716 -0.256898 0.281722
-0.190456 -0.139823 -0.30819
0 0 0
-0.113275 0.0100169 0.042268
-0.372089 0.30214 0.383945
-0.207771 -0.227711 0.100632
-0.252694 0.00486007 -0.0565585
-0.0947213 0.222854 -0.0881608
-0.112946 -0.110915 0.0540173
-0.153642 -0.253227 0.149003
0.00175318 -0.0668612 0.0499012
0.165378 0.0961153 -0.11203
-0.0392463 0.184973 0.203526
0.234187 -0.0893367 -0.15162
0.111323 0.0197964 0.130458
-0.00357383 -0.0639313 0.111933
0.0727052 0.193133 -0.526283
-0.185359 0.00573818 -0.0827274
-0.114032 0.0924738 0.216319
-0.394981 -0.0936675 -0.427711
-0.390029 -0.0104703 -0.0737836
-0.0929962 -0.185913 0.461626
-0.0454849 -0.0741908 -0.0792725
0.10939 -0.34065 -0.0658808
0 0 0
0.0843784 0.405172 0.0931355
-0.00631751 0.0154042 -0.0208086
-0.121845 0.212663 0.379641
0 0 0
0 0 0
-0.267532 0.0683791 -0.00629412
-0.0185468 0.000721527 -0.0144206
0 0 0
0.0545823 -0.0267584 0.29356
-0.314818 -0.16341 -0.213968
0.0357008 0.0545891 -0.0402565
-0.18501 -0.333155 -0.264769
0 0 0
-0.207202 0.0541731 -0.0407141
0.00203263 -0.0357155 -0.0467405
-0.0815724 0.145474 -0.270686
0 0 0
0.384241 -0.221071 0.078092
0.00735634 -0.104121 0.177669
0.480706 -0.808888 0.169312
0.285573 0.200686 -0.121008
0 0 0
0.217243 -0.184942 -0.0339694
0.520867 0.00112477 -0.285039
0.30079 -0.193373 -0.205733
0.0460648 0.13291 0.329645
-0.00991039 -0.235436 -0.191394
0 0 0
-0.00560519 -0.00970617 -0.00111391
-0.00269991 -0.138874 0.00171136
0.303547 -0.278644 0.0549269
0.00283461 -0.0121075 -0.080952
-0.0939231 0.00692069 0.333321
-0.0568861 0.115578 -0.0507977
-0.0138679 0.0197241 -0.0430568
0.0103386 0.00148968 0.0195075
0.0660671 -0.0666242 -0.0221561
0.0786375 0.156244 -0.223901
0.000299857 -0.138237 -0.00500286
-0.147846 -0.0784129 -0.0700259
0.015431 -0.266258 -0.177994
0.0250038 -0.15458 0.052926
-0.049754 0.112658 0.0386772
0 0 0
0.0755818 -0.0234507 0.000967695
-0.0343492 -0.0132852 -0.0581392
0.522121 -0.0345737 -0.0575337
0.105533 -0.349969 -0.387143
0 0 0
0.0049352 0.0661393 -0.0496841
0 0 0
0 0 0
0.224868 -0.0934984 -0.189125
0.148796 -0.292327 0.14267
0.047721 -0.0184553 -0.00772298
-0.0343316 0.0389794 0.186138
0.0625572 -0.0985011 -0.178114
-0.137848 0.037093 0.0136407
-0.0665577 -0.0609786 0.00241127
-0.237377 -0.190538 0.127819
-0.208682 0.0304167 0.0389544
0 0 0
0 0 0
0.0253277 -0.140938 -0.397405
0 0 0
-0.224665 0.21244 -0.0204898
-0.0183172 0.208426 -0.242327
0.0018749 0.0217336 0.0345253
-0.158862 -0.1419 -0.289431
-0.0019806 0.14674 -0.163037
0.0150776 0.0854562 -0.0906456
0.0075081 -0.0887058 0.324429
-0.0417312 -0.0523908 -0.0391559
-0.0778533 -0.165652 -0.143909
0.0140126 -0.0564308 0.0686972
0.15699 -0.275671 0.128565
0.141738 0.00895873 0.172094