<?xml version="1.0"?>
<VTKFile type="RectilinearGrid">
<RectilinearGrid WholeExtent="0 32 0 32 0 32" Origin="0 0 0" Spacing="1 1 1">
<Piece Extent="0 32 0 32 0 32">
<PointData>
</PointData>
<Coordinates>
<DataArray type="Float32" format="ascii">
0 0.524874 1.04975 1.57462 2.0995 2.62437 3.14924 3.67412 4.19899 4.72386 5.24874 5.77361 6.29849 6.82336 7.34823 7.87311 8.39798 8.92285 9.44773 9.9726 10.4975 11.0224 11.5472 12.0721 12.597 13.1218 13.6467 14.1716 14.6965 15.2213 15.7462 16.2711 16.796 
</DataArray>
<DataArray type="Float32" format="ascii">
-5.03879 -3.62163 -2.20447 -0.787311 0.629849 2.04701 3.46417 4.88133 6.29849 7.71565 9.1328 10.55 11.9671 13.3843 14.8014 16.2186 17.6358 19.0529 20.4701 21.8872 23.3044 24.7216 26.1387 27.5559 28.973 30.3902 31.8074 33.2245 34.6417 36.0588 37.476 38.8931 40.3103 
</DataArray>
<DataArray type="Float32" format="ascii">
0 0.524874 1.04975 1.57462 2.0995 2.62437 3.14924 3.67412 4.19899 4.72386 5.24874 5.77361 6.29849 6.82336 7.34823 7.87311 8.39798 8.92285 9.44773 9.9726 10.4975 11.0224 11.5472 12.0721 12.597 13.1218 13.6467 14.1716 14.6965 15.2213 15.7462 16.2711 16.796 
</DataArray>
</Coordinates>
<CellData>
<DataArray type="Float32" Name="Vector" NumberOfComponents="3" format="ascii">
0 0 0
0 0 0
0 0 0
0 0 0
0 0 0
0 0 0
0 0 0
0 0 0
0 0 0
0 0 0
0 0 0
0 0 0
0 0 0
0 0 0
0 0 0
0 0 0
0 0 0
0 0 0
0 0 0
0 0 0
0 0 0
0 0 0
0 0 0
0 0 0
0 0 0
0 0 0
0 0 0
0 0 0
0 0 0
0 0 0
0 0 0
0 0 0
0 0 0
0 0 0
0 0 0
0 0 0
0 0 0
0 0 0
0 0 0
0 0 0
0 0 0
0 0 0
0 0 0
0 0 0
0 0 0
0 0 0
0 0 0
0 0 0
0 0 0
0 0 0
0 0 0
0 0 0
0 0 0
0 0 0
0 0 0
0 0 0
0 0 0
0 0 0
0 0 0
0 0 0
0 0 0
0 0 0
0 0 0
0 0 0
-0.144224 -0.00478017 0.0176349
0.0434622 0.042595 0.110013
-0.0119889 -0.033295 -0.108239
0.0564887 0.043538 0.0826078
0.0114918 -0.0236443 0.0968815
0.00771238 0.113115 0.0436661
0.226994 0.0707108 0.0219474
-0.153301 0.0513206 -0.0689587
-0.131646 0.165082 0.144145
0.299813 0.130023 -0.078837
0 0 0
0.0410176 -0.0596014 -0.232489
0.121658 0.0701732 -0.0100132
0 0 0
0.0502717 0.00272126 -0.0303788
0.0372928 -0.0706436 0.053432
-0.0384481 -0.206062 -0.0898297
-0.187763 0.0670383 0.0630722
0 0 0
-0.0017036 0.0787319 0.0213582
-0.231575 -0.119833 0.015041
0 0 0
-0.105204 -0.00731098 -0.0322182
0.0936021 0.043565 0.0963371
0.0961752 -0.0371542 -0.0563627
-0.0231222 0.0361338 0.0044967
0 0 0
-0.272765 0.025117 -0.0293969
0.0487977 0.00821208 0.03534
-0.00254441 0.0689913 -0.0346136
0.420648 0.0919624 0.126549
-0.0525827 -0.134348 0.0248469
0.0716867 0.194614 -0.116007
0.0171853 0.0494103 -0.0586153
0 0 0
-0.123571 -0.00745772 0.00710602
-0.0901752 0.0506721 -0.0414548
-0.0287079 0.0606667 -0.0875245
-0.174418 0.136617 0.0153817
-0.0209206 0.0147859 -0.0128679
0 0 0
-0.0159158 0.0191218 -0.0487036
0 0 0
-0.101462 -0.00785447 0.0786758
0.275086 0.0274612 -0.0260301
0 0 0
0.0807852 0.00145092 0.0899811
0.0140243 -0.0211974 -0.019657
0.00572382 0.0466287 -0.0237971
-0.0606185 0.0339721 0.0596732
0 0 0
-0.30472 -0.0350871 -0.0358349
0.0984076 0.00270958 0.0415081
0 0 0
0.114063 0.0991283 -0.034481
-0.0290621 0.0411922 -0.0571467
-0.044938 -0.039892 -0.00725851
-0.0738867 -0.469025 -0.0557571
0 0 0
0.0366985 -0.0585115 0.0464314
-0.00729035 -0.468776 -0.00321421
0 0 0
0 0 0
0.0523736 -0.191037 0.155838
0 0 0
0.165733 0.173731 -0.0277738
0 0 0
-0.331995 -0.129924 -0.307015
-0.416318 0.136513 -0.0439861
0.10364 0.201595 -0.0549234
0.0296629 -0.00629841 -0.0164405
0 0 0
0 0 0
-0.118314 0.122411 -0.285933
0.0366569 0.316713 -0.11876
0 0 0
0.00388368 0.328428 -0.0791489
0 0 0
0.104244 0.22891 -0.0513073
-0.0720493 0.0436468 -0.0984036
0.0496457 0.153661 0.187898
0.0308894 0.587909 -0.12783
-0.00837488 0.0691977 -0.0470485
0.00267366 0.0928383 0.000782089
0.104476 -0.104978 0.0129189
0.0112552 -0.0306595 -0.18602
0 0 0
-0.00360423 0.0251633 -0.105767
-0.175429 -0.154162 0.0412043
-0.0773473 -0.0125188 -0.111875
0.0607319 0.0292887 0.156824
0 0 0
-0.00871663 -0.0078668 -0.00480878
0 0 0
-0.0158323 0.204182 -0.224589
-0.0832438 0.0771433 -0.021149
0.039501 0.0351815 0.486894
0.00657157 0.0521978 -0.0388583
-0.0131452 0.0902999 0.280702
0 0 0
-0.32468 0.527299 0.226193
0 0 0
-0.31252 0.128523 -0.272731
-0.0436145 -0.0380265 -0.00183309
-0.132394 -0.00810444 0.0580933
-0.410627 0.200399 0.0581881
0 0 0
-0.178558 0.00452772 -0.00856285
-0.146119 -0.104901 -0.157543
0 0 0
0.447097 0.213808 -0.0577943
0.432644 0.287307 0.180202
0 0 0
-0.325067 0.647764 -0.355223
-0.210169 0.0695175 0.0500712
-0.271534 0.110363 -0.0746104
0 0 0
0.00284267 0.00902302 0.177689
0.157465 -0.00717616 0.150725
0.0097925 0.00950661 0.00896893
-0.10834 -0.0805831 -0.218021
0.0786223 -0.0264828 -0.0724437
-0.0398939 -0.325437 0.078312
0.0185653 -0.0371502 0.153076
0.162519 -0.0670519 -0.124065
-0.0208525 0.00232546 0.0100461
-0.333697 -0.326372 -0.112473
0 0 0
0.0442393 -0.452664 0.277695
0.15199 0.0678078 -0.168794
0.2023 0.941007 0.0662965
0 0 0
-0.184263 -0.0405881 -0.188502
0 0 0
0.135432 0.00873062 -0.0807923
0.00163276 0.0673585 0.00907872
-0.325517 0.234616 -0.088
-0.0323875 0.0175604 -0.0240923
-0.392868 0.00603311 -0.152398
0 0 0
0 0 0
-0.137271 0.0510761 0.100021
-0.376712 -0.157534 0.112258
0.0851287 0.161485 -0.012631
-0.0178695 -0.122927 -0.520815
0.155505 0.224128 -0.15733
0 0 0
0.255153 -0.182352 -0.053785
-0.000291463 0.15637 0.20107
-0.34379 -0.0446995 0.205303
0.381023 -0.187808 0.304677
-0.00236905 0.0270773 0.0640225
0 0 0
0 0 0
-0.149808 -0.0142956 -0.354539
-0.0995522 0.344632 -0.0901515
0.0211077 0.229763 0.000145164
0.123532 0.0128688 -0.333028
-0.00373615 0.00805681 0.104689
-0.0012386 -0.0374158 0.091755
0.00309058 -0.0901199 0.0796103
-0.145527 -0.130281 -0.177131
-0.026368 0.104945 0.188354
0 0 0
0.0174924 0.0357876 0.101516
0 0 0
-0.1283 0.166298 -0.0752185
0 0 0
0.132168 -0.229644 -0.145211
0.0511905 -0.169777 -0.251706
0.00305762 0.129934 -0.0718193
-0.115074 -0.200133 0.273146
-0.479715 0.0563941 -0.152182
-0.228129 0.00389488 -0.222078
0 0 0
0.0526887 0.119565 -0.0309066
0 0 0
0 0 0
0 0 0
0 0 0
0.0162907 0.153557 0.00289575
-0.00260718 0.0459289 -0.0873865
-0.0833791 -0.0995418 0.169288
-0.0104704 0.03614 -0.000436152
-0.0872896 -0.00439804 0.00271011
-0.00282803 -0.0311127 0.118424
-0.0395371 -0.0188495 0.285777
-0.147781 0.201268 -0.0830819
0.147452 0.0676886 0.336416
0.0696925 -0.084644 0.141785
-0.00402445 0.160948 0.143477
0.319751 0.207464 0.153213
0.0208015 0.28364 -0.19538
-0.233973 -0.0667593 -0.0298427
0.0763451 -0.106344 -0.120611
-0.0367595 0.0677842 0.0789891
0.1484 -0.0776965 0.100153
0 0 0
0.413732 0.0270906 0.111169
-0.000333632 -0.037837 0.00556315
-0.172923 0.189863 0.120929
0 0 0
0.381222 -0.103902 0.192522
-0.030111 0.0286027 0.139051
0.0270813 0.0374581 -0.229998
0 0 0
0.0828142 0.0393037 0.221533
-0.425799 0.0662893 0.176179
-0.140542 0.0654633 -0.0227713
-0.012661 -0.00716124 -0.0373998
-0.0183522 0.0731834 0.0373896
0.0305732 -0.415671 -0.150375
0.0413989 -0.0896709 0.00622234
0.141913 0.117792 -0.164975
0.479196 0.0223206 0.0528739
0.130722 -0.2419 -0.191896
0.405577 -0.0785776 -0.116827
0 0 0
0.110183 -0.028445 -0.0563268
0 0 0
0 0 0
-0.444889 0.0830221 0.0686765
-0.619151 -0.0295425 -0.238762
-0.176809 -0.159698 0.239538
-0.246272 -0.0754863 0.0877822
0.041468 -0.070877 0.0681208
0.391687 0.0124019 -0.216707
0 0 0
0.304261 0.0523212 -0.233443
0 0 0
0 0 0
-0.149005 -0.0293962 0.261047
-0.0458963 -0.0108286 -0.0357033
0.00317762 0.0325516 0.0650603
-0.310646 -0.12757 0.40222
0.133409 -0.149342 0.181302
-0.0305445 0.178243 0.107806
0.0330821 -0.0947671 -0.0356994
0 0 0
-0.0739975 0.0823326 0.00837584
0 0 0
-0.222246 0.198866 0.163063
0 0 0
-0.0320072 -0.127821 0.284105
0 0 0
-0.0151177 0.10209 -0.0680594
0 0 0
-0.0174325 -0.195786 0.0470874
0 0 0
0 0 0
-0.103044 0.099559 -0.0469906
0 0 0
0.00199248 -0.0700218 -0.0393816
-0.0524667 0.0806766 0.0876611
-0.0633598 -0.0575932 -0.0840117
0 0 0
0 0 0
0.355608 -0.272894 -0.141953
0.00359009 -0.0271626 -0.134141
0 0 0
0.00804754 0.0324232 -0.295945
-0.0648771 0.238046 -0.218582
0 0 0
0 0 0
0 0 0
0.135219 -0.00742705 0.1638
0 0 0
0.0484926 -0.0932901 0.0233312
0.409224 0.116531 -0.075636
0.260447 -0.115053 0.0394188
0.127294 0.324928 0.394702
0.0481017 0.10524 0.104242
0.00708526 0.0616541 0.293519
0 0 0
-0.0293844 -0.215915 0.109845
0.00306985 0.061486 -0.00560064
-0.182013 0.0147008 0.0063544
0.0874139 0.253612 0.0148321
0 0 0
0.0585145 -0.0140214 -0.0375277
-0.0194772 0.1862 -0.00274704
0 0 0
-0.191134 -0.351728 -0.105732
-0.020874 -0.0127483 -0.00410535
0.0828804 0.0377604 0.248546
-0.00715471 -0.0517626 0.111879
0 0 0
0.00568073 0.0203522 0.0218331
-0.294878 -0.12041 -0.18665
-0.236503 0.241094 0.044138
-0.208319 -0.13314 0.00199053
0 0 0
-0.057209 -0.00979758 0.0527856
-0.277776 -0.135554 0.0200057
-0.14429 0.363041 -0.0981901
0.0507994 0.0432905 -0.000619983
0.00872071 0.0343557 0.52674
0.00128167 -0.0248308 0.0217522
0.121988 -0.170613 0.503547
0.099791 0.293593 0.0144062
0.0309413 -0.00620074 0.0478003
-0.00830546 -0.0174637 -0.184458
0.0936653 0.103876 -0.0776247
0.523902 -0.188921 0.220049
0.147141 -0.0734396 -0.0277181
-0.123292 0.0486868 0.198236
-0.199 -0.02596 0.0653147
-0.457826 -0.327492 0.186778
-0.0490071 -0.0413733 0.000318827
-0.245129 -0.369787 -0.0465567
0 0 0
-0.223723 -0.0579665 -0.291009
0 0 0
-0.0142134 -0.114403 -0.0907548
0.120648 -0.19519 -0.0236102
0.0206502 -0.212837 -0.0911101
-0.0208327 0.0331063 -0.0040329
-0.0050756 0.151816 0.0436936
-0.0756375 -0.00755255 0.000800205
0.00895613 -0.0798729 -0.0224962
-0.0503924 -0.0353076 -0.0998741
0 0 0
-0.108391 -0.129076 0.327355
0.000835071 -0.108095 -0.167027
-0.205828 -0.0479289 -0.294509
0.0350904 -0.0569642 -0.0890996
0.00124684 -0.0090424 0.0651553
0 0 0
0.146411 -0.00882887 0.0311334
0.07043 0.227303 -0.0134897
-0.00354031 0.0485117 -0.0152956
-0.0972762 0.151486 0.117997
0.00330985 0.141675 0.0774153
0.284595 0.292426 -0.3068
0 0 0
-0.0672555 -0.0813544 -0.0378674
0 0 0
-0.00200372 0.0832417 -0.107266
-0.0204701 -0.354188 -0.0122378
0.155728 -0.0530958 -0.0972644
0.129213 -0.169473 0.180205
-0.0564456 0.00230852 -0.000580447
-0.0431499 0.0161552 -0.000198752
0 0 0
0 0 0
-0.0245988 -0.18198 0.107743
0 0 0
-0.00977826 -0.0553623 -0.00382545
-0.0525022 0.203598 -0.095813
0 0 0
0 0 0
0 0 0
0.290528 -0.102607 0.0447331
0.049359 0.115797 -0.200913
0.169331 -0.119643 -0.0256058
0.0416599 0.126663 -0.21806
0.342277 0.0666062 -0.0971403
0 0 0
-0.122051 0.0852273 -0.0409663
-0.42609 -0.300251 0.342437
-0.232854 0.363078 0.120256
-0.182212 0.231494 -0.00426148
-0.0902205 0.102854 -0.0951719
0.167563 0.147645 0.0646636
0.044246 -0.0102251 -0.137612
0.238416 0.0651109 0.180448
0 0 0
-0.0706043 -0.00377024 0.0737014
-0.364491 -0.158898 0.16323
-0.197026 0.0884737 -0.180374
-0.409533 -0.113425 0.210557
-0.18287 -0.177112 0.057562
-0.343899 -0.0421371 -0.106025
0 0 0
-0.163786 -0.124537 -0.0218264
0 0 0
-0.0439222 0.0859144 0.0668819
-0.0166704 0.0397343 -0.0266372
0.00945302 0.117788 0.279064
0.0617383 0.148099 0.417361
0.134396 -0.00604771 0.0882272
0.139581 -0.122778 0.173644
0.0362422 -0.149582 0.352482
0.0710307 0.134177 -0.0418169
0 0 0
0.0178665 0.00218479 -0.158613
0.0612222 -0.00788085 0.189143
0 0 0
-0.202853 0.180124 0.00450357
0 0 0
0.0090697 0.0807168 -0.0692041
0 0 0
0 0 0
-0.156192 0.107279 0.13398
2.85658e-05 0.00658501 0.0157978
-0.101152 -0.00893889 -0.000408034
-0.154267 -0.038136 -0.0561654
-0.0221484 -0.0298249 -0.401092
0.120519 -0.0255822 -0.00367109
0.0201662 0.0568633 -0.190021
0.155307 -0.0582201 -0.240687
0.0288045 -0.142985 0.0171449
-0.0714775 -0.146476 -0.161349
-0.0494914 -0.189021 -0.0836469
0 0 0
-0.0188807 0.213167 -0.0221395
0.00170588 0.065813 -0.0321391
-0.0112099 0.105093 0.41923
0.0101119 0.0536662 0.127069
0 0 0
-0.224721 -0.112134 -0.13632
0.00269352 0.0612514 0.0274818
0.0735997 0.451504 -0.102961
0.034686 -0.193796 0.0537424
0.132622 -0.526161 -0.42611
-0.00683128 0.0210017 4.36101e-05
-0.00125892 0.0246778 -0.0336875
0.122351 0.332667 -0.183453
-0.290382 -0.165922 0.137855
-0.0290578 0.0360041 -0.124802
-0.365406 0.0634668 -0.142327
-0.19756 -0.102066 0.148703
0 0 0
0 0 0
0 0 0
-0.212627 0.226533 0.0781198
-0.00316623 0.192126 0.114423
-0.0523507 -0.016464 0.0638426
-0.203458 -0.12588 0.365081
0.0034826 -0.316242 0.0649655
0.161181 0.26023 0.0645012
0.161488 -0.102179 0.443349
0.0533902 -0.250177 0.0047481
-0.0306018 -0.151282 -0.0880883
0 0 0
-0.188585 -0.228228 -0.101879
-0.292581 -0.205461 -0.0375593
-0.104265 0.147032 -0.0036412
0.0657706 0.0858423 0.115123
0.348462 0.263528 -0.178026
0 0 0
0 0 0
0.00395469 -0.00958589 -0.0179057
0.167439 0.0463107 0.0155635
0.139252 -0.00882413 -0.29354
0.134729 -0.0718809 -0.0775423
0.271021 -0.329263 0.0152354
0.339987 -0.211435 -0.178996
0.0189882 -0.0709679 -0.012663
0.110462 0.0941015 -0.0824873
-0.295188 0.167554 0.0290046
-0.207542 0.107974 0.0114948
-0.287642 0.186124 -0.0616735
-0.246378 -0.142792 -0.0738174
-0.241137 0.0910104 -0.493046
0 0 0
0.316106 0.0589216 -0.163948
0.524815 0.0700521 0.255539
0 0 0
0 0 0
-0.0161434 -0.0203068 -0.0891913
-0.186623 0.0259406 0.00278847
0.0950035 0.0830261 -0.0570748
-0.00573966 0.155312 0.00299165
0 0 0
0.0354463 0.0421504 -0.0824416
0.252918 -0.470434 -0.294977
0 0 0
0 0 0
0 0 0
-0.389197 -0.00870149 -0.191617
0 0 0
5.15969e-05 0.00294337 -0.0467084
0.0387521 -0.0451417 0.0485665
0 0 0
-0.107971 -0.171463 -0.247193
-0.122479 -0.0733129 0.0753593
0 0 0
-0.000721917 -0.117795 -0.0942147
0.140222 -0.157926 0.146668
-0.0150095 -0.12222 -0.07249
-0.00411836 -0.0820313 -0.0962776
0 0 0
-0.00646063 0.00433767 -0.00966221
-0.178371 -0.153319 -0.0852331
-0.152361 -0.240199 -0.103409
0 0 0
0 0 0
0.213925 -0.0826869 -0.000127182
0.109987 -0.000181516 -0.176503
0 0 0
0.122575 -0.121973 0.00952988
-0.103509 0.0843334 0.0593141
-0.267055 -0.16246 -0.00190827
-0.00944499 -0.00815548 0.00681547
-0.237151 0.00970923 0.0338062
-0.199843 0.257866 0.0148531
0 0 0
-0.0388735 -0.0742 -0.087637
-0.292456 -0.0922352 -0.165621
-0.0109194 0.053067 -0.0827226
-0.207087 0.596413 -0.182729
0 0 0
-0.187146 0.126926 0.118433
0 0 0
0.19693 0.345609 0.169429
0 0 0
0.237294 0.372705 0.194617
-0.0646675 -0.0199563 0.00162612
0.0444729 0.0731516 -0.132146
-0.00165701 0.0203323 -0.037222
0.138201 -0.351888 0.23132
0 0 0
0.340089 -0.00588077 -0.189385
0.00778237 -0.00859809 0.0069118
0 0 0
-0.076147 -0.117799 -0.00667432
-0.0118427 -0.181637 -0.0605595
0 0 0
-0.254409 0.246096 0.00101147
0 0 0
-0.0391716 0.0946253 0.430137
0.155345 -0.170874 -0.160999
0 0 0
0.0458439 0.0879807 -0.0529745
0 0 0
0.0777779 -0.153264 -0.0452827
0.300687 -0.34525 -0.155196
0.356736 -0.237542 -0.170964
0.121433 -0.265125 0.302027
0.131114 0.214007 0.0246096
0.0360872 0.0142572 0.0529399
-0.194164 0.516162 0.185172
-8.9109e-05 0.0315398 -0.00732827
-0.243639 0.359877 0.240536
-0.00741039 0.00112242 -0.068569
0.134672 0.0640191 0.000772716
0 0 0
-0.180808 0.199341 0.0163286
-0.0487071 0.0662842 0.00309519
0 0 0
0.117069 0.0731404 0.0287335
0.0817577 0.362294 -0.107496
-0.129016 0.0246574 -0.0794974
0.0843714 0.0728978 -0.00694383
0.179255 0.133899 0.239938
0.116796 -0.00830796 -0.309464
0.242983 0.0063885 -0.019217
0 0 0
0 0 0
-0.0176037 0.0494531 0.0686836
-0.0716995 0.0817496 -0.0756835
0 0 0
0.0231805 0.0459307 -0.00247267
-0.250171 -0.158218 -0.311607
-0.0584327 -0.0607014 0.0175769
0.0211694 0.00518782 0.0429243
0.272946 -0.110624 -0.321558
0.0384227 0.0514279 0.0291554
-0.0305764 -0.0263141 0.002706
-0.101464 0.127648 0.238074
-0.0645036 -0.01544 0.218339
-0.221883 0.158921 -0.00329868
0.181176 0.320779 0.29922
0.366816 0.296169 -0.189248
0.225848 0.176591 0.242026
0 0 0
-0.250976 -0.00493515 0.0562245
-0.00326564 0.0337419 0.15465
0.0280795 -0.077205 -0.250735
-0.189956 -0.0768079 0.0622464
-0.0329608 -0.0499621 -0.0614515
-0.0671587 0.203898 -0.478864
0 0 0
-0.0981543 0.0777782 -0.0424595
0.0709703 0.128131 -0.0783963
-0.0458088 -0.0280386 0.0326468
0.131009 0.297057 -0.229923
-0.0458906 0.00883832 0.0153336
-0.000420923 -0.232522 -0.0372554
0 0 0
0.00651156 -0.0782716 -0.0218063
0.00355911 0.154636 0.139843
-0.0278197 0.25714 -0.00166222
-0.198924 0.384391 -0.0668383
-0.148149 0.0952342 0.0162795
0 0 0
-0.111145 0.130663 0.0537023
-0.00451119 -0.128049 -0.0336147
-0.170833 -0.00297044 -0.00521732
0 0 0
0 0 0
-0.009342 -0.00507693 -0.0281075
-0.0307258 0.0111292 0.0119852
0.0956505 0.0281877 0.225562
0 0 0
0.26621 0.398891 0.0566606
0 0 0
-0.0965801 0.0210792 0.153143
-0.128287 -0.0567764 0.0650304
0.107155 -0.239274 -0.131885
-0.0149354 0.138831 0.00510653
0 0 0
0.0472227 -0.0357635 0.0205306
0.0216407 -0.231095 -0.328869
0.180641 0.0246171 -0.180494
-0.0303042 0.215421 0.102339
-0.0636856 0.349049 -0.128001
0 0 0
0 0 0
0.208459 -0.251252 0.136985
-0.00172409 -0.038425 -0.0141841
0.0775811 0.0295742 0.436576
0 0 0
-0.0212316 0.176496 0.0185526
-0.0413323 0.0384238 0.132582
-0.368572 -0.109249 0.144489
-0.0491475 -0.0103664 0.0578455
-0.162623 -0.00499947 0.225554
0 0 0
-0.141755 0.0474054 0.0318287
-0.620628 -0.285015 -0.188052
-0.133684 0.0665541 -0.0854666
-0.146066 0.0556569 0.0469265
-0.151775 -0.0496595 -0.0138645
0.116003 0.0910098 -0.168348
-0.048463 0.0880858 -0.00555505
-0.0660929 0.00513832 0.103677
-0.0544278 -0.0119611 -0.0164674
-0.221926 0.32129 0.17828
0.099925 0.151326 0.126632
1.6744e-05 0.0430877 -0.0186984
-0.125475 0.255198 -0.279578
-0.016722 -0.0526799 0.0225384
0.0370035 -0.391229 -0.275467
0 0 0
-0.0452684 -0.0353881 -0.24879
-0.266357 0.0889752 -0.190287
0 0 0
-0.0532687 0.178968 -0.127496
0.145593 -0.417781 0.0772654
0 0 0
0 0 0
0 0 0
-0.313062 0.15996 0.219527
-0.0647463 0.035923 -0.000139531
-0.0817662 0.239526 -0.129051
-0.0856618 0.00830645 0.132847
-0.0670835 0.182293 0.0843722
-0.185231 -0.143542 0.126826
-0.18193 0.0076812 -0.036682
-0.0697724 0.158755 0.00277084
0 0 0
0.052032 0.129932 -0.0565495
0.112799 0.117082 -0.0954278
-0.209551 0.425414 0.164839
0 0 0
-0.172533 0.183581 -0.302955
0 0 0
-0.114474 -0.0959072 -0.0806759
0 0 0
-0.101706 -0.105396 -0.157426
0 0 0
0 0 0
-0.0963646 0.0950738 0.280858
0 0 0
0 0 0
-0.0102259 0.307754 0.111807
0 0 0
-0.106734 0.0855618 0.38391
0 0 0
-0.012287 -0.0303531 0.00357438
-0.0404047 -0.0353554 0.0270106
0 0 0
-0.180845 0.00961058 0.0565416
0 0 0
0 0 0
-0.0023677 -0.0314978 -0.0249407
0 0 0
-0.488039 0.185833 -0.28765
-0.0246079 -0.226361 -0.165296
0.00823689 0.00236747 0.003271
0 0 0
-0.0188417 -0.0743432 -0.202444
-0.0442955 -0.195675 -0.411723
0 0 0
0 0 0
0.0350803 0.029918 -0.0443811
0.18918 0.0847257 -0.0573242
-0.0691249 -0.30069 -0.228981
-0.378037 -0.0224426 0.494453
0.0543815 0.000244022 -0.0484669
-0.257008 -0.0740522 -0.019893
0 0 0
-0.252682 -0.0222864 -0.215661
0.00287108 -0.157004 -0.217432
-0.24958 0.192859 0.00140897
0.139218 0.0298178 -0.00826257
0 0 0
0.0180791 0.0510633 -0.164413
0.202683 0.0314492 0.0781371
0.220217 0.113908 0.0377266
0.00392606 -0.0332473 -0.0117975
0.26061 0.151896 -0.141129
0 0 0
0.00641627 -0.153973 0.0439406
0 0 0
-0.0692005 -9.60791e-05 0.0191262
-0.590077 0.167782 -0.1345
0 0 0
0.0770182 -0.00691411 -0.000525811
-0.119252 -0.16573 0.00317043
-0.0786735 -0.0329435 -0.00144388
0 0 0
0.197279 0.279782 -0.220652
0 0 0
0 0 0
-0.00594952 0.198641 -0.376581
-0.0743625 -0.107685 -0.167788
0 0 0
-0.0214386 -0.0300529 0.00117568
0.0756006 -0.0661973 0.0462827
0.102677 -0.123569 -0.223366
0 0 0
0.103255 -0.105234 0.169316
0 0 0
0.0186093 -0.0255653 -0.00894617
-0.00322721 -0.137589 0.00139067
0 0 0
0.0927247 0.0459351 -0.101665
0.4998 0.0465959 0.0511638
0.135178 0.0211805 -0.0817675
0.0494032 0.293613 -0.173084
-0.08702 0.164972 -0.158942
0 0 0
0.0479598 0.00108429 -0.0104878
0 0 0
0.122748 0.00516314 0.00515893
-0.0803009 0.0846578 0.0626369
0.00513473 0.023145 0.0191702
0 0 0
0.0602633 -0.195023 0.0357487
0.0319203 -0.00448648 -0.0399805
-0.197584 -0.218817 -0.0400766
0.0938583 -0.0530388 9.02539e-05
5.56011e-05 0.0857791 0.107506
0.211443 -0.207653 0.0447603
0 0 0
-0.0690355 0.303863 0.0396561
0 0 0
0.0324097 0.319368 0.0890653
0.031987 -0.0271144 -0.0520911
0.0865046 -0.0496381 0.0643558
0.0729015 -0.281307 0.247107
0 0 0
0.139491 0.120968 -0.0631509
0.286524 -0.109754 0.0182765
0 0 0
0.0809497 -0.230246 0.0963698
0.0736711 -0.0965163 0.185782
0.523676 -0.438017 0.0528586
0.180939 0.0493238 -0.119076
-0.0411993 -0.035081 -0.182658
0.175278 0.279832 0.278048
0.0323237 0.105406 0.078606
0.0796317 0.16249 0.13646
0.429774 -0.15906 -0.132401
-0.0558021 0.361682 -0.0320128
0.000534885 -0.0119102 0.0318407
0.340165 0.160233 0.00462796
0 0 0
0.158268 -0.318108 -0.0396738
0 0 0
0.106358 -0.123794 0.0023662
0 0 0
0.12978 -0.170172 -0.0267208
0 0 0
0 0 0
-0.133675 -0.231473 -0.0120063
0 0 0
0.59753 -0.284761 0.348718
-0.048933 -0.0157228 0.0193059
-0.0138198 -0.135292 0.0635014
-0.431661 -0.129015 0.101025
0 0 0
-0.117101 -0.144485 -0.00153439
0.339696 0.128064 -0.0716824
0.52708 0.180543 0.146488
-0.0404116 -0.0931081 -0.0163617
0 0 0
-0.00306432 -0.0145243 -0.0510496
0.0881643 -0.0458095 -0.128046
0.0117373 -0.107353 0.127558
0.18309 0.0667966 -0.147555
0.0560688 -0.0535253 -0.0204133
0.00243414 -0.0680594 -0.000728988
0.21165 0.053404 0.0967872
0.0595765 0.083694 0.153122
-0.100812 0.203628 -0.0767013
-0.078506 0.332203 0.278897
0.0274021 -0.0525242 -0.00301524
0.16726 -0.18935 0.209291
0.0605811 -0.0611011 0.0468844
0.0445184 0.0167915 0.0147362
0 0 0
0.20708 0.156782 0.442525
0.0338789 -0.00344099 -0.0416785
0.00725158 -0.057627 -0.0315653
0.215602 -0.0543056 0.23413
0.294723 -0.145031 -0.0355956
0.138383 -0.302316 -0.0349701
0.267285 -0.335829 0.174439
0.00515311 -0.131209 0.196591
-0.0567681 0.0746987 -0.0935299
-0.000261889 -0.161512 -0.0208521
0 0 0
0 0 0
0.249207 -0.00225251 0.142498
0.000666908 0.0203274 0.225329
0.12427 0.137415 -0.252883
0.126466 0.0404185 -0.0153191
0 0 0
-0.075534 -0.181364 -0.094532
0.306363 -0.149054 -0.0269507
0 0 0
0 0 0
0 0 0
-0.14543 0.0517694 0.144112
-0.261271 -0.193797 0.148529
0.01597 -0.102477 -0.00793351
0 0 0
0.146953 0.147498 0.0690926
0.229312 -0.0419938 -0.0186264
0.0150191 -0.0307681 -0.0269569
0 0 0
-0.0177991 0.151441 -0.165443
0 0 0
0.115566 0.1455 -0.220873
-0.0015107 -0.0774536 -0.04884
-0.133687 0.0168901 -0.25068
-0.0427745 0.00830576 -0.0280057
-0.0377719 -0.00265393 0.000938373
0 0 0
0 0 0
0.220417 -0.249178 0.0795188
0 0 0
-0.0263014 -0.48474 0.153533
0 0 0
0 0 0
0.094126 -0.261904 -0.18351
0.146684 -0.0428397 0.0767168
0 0 0
-0.137494 -0.15349 0.00471431
-0.120951 -0.108525 -0.0362882
-0.30153 -0.673424 0.0658111
0 0 0
0.121474 0.26966 0.172977
0.00189176 -0.0987356 0.0595316
0.148642 -0.0215385 -0.182001
0.0611822 0.0658451 5.92131e-06
-0.0131917 -0.00519769 -0.0109673
-0.192096 -0.181992 -0.0796714
0 0 0
0 0 0
-0.250902 -0.116454 0.00860191
-0.192726 -0.290441 -0.20971
0.00530111 -0.251028 -0.274315
0.0111084 -0.0792398 0.0716108
0 0 0
0.117091 0.305011 -0.294573
0 0 0
0 0 0
0.149277 0.0519912 -0.162889
0.043743 0.00902477 0.0297388
0.178404 -0.235027 0.457171
0.000214926 0.0292147 0.0345586
0 0 0
0.115499 -0.00772297 0.0455573
0.0914764 0.103066 0.0144685
0 0 0
0 0 0
-0.243138 -0.675188 -0.388272
0 0 0
-0.0311115 -0.160749 0.0137697
0 0 0
-0.181234 0.0199941 -0.0382686
-0.0915379 -0.100647 -0.0298936
0 0 0
0 0 0
-0.00333444 -0.000882365 -0.00172977
-0.006909 0.194166 0.222304
0 0 0
0.00488777 -0.0353434 -0.00250817
-0.145033 -0.122849 0.0271447
-0.115295 -0.119128 0.0112
-0.184643 0.0400372 0.041699
0 0 0
-0.0032796 0.244945 -0.00593023
0.0758016 0.082436 -0.0291977
-0.362525 -0.201568 -0.271527
0 0 0
-0.112459 -0.0479321 -0.190619
-0.00566473 0.0852294 0.0226982
0.304667 0.254019 -0.291399
0.328443 0.314212 0.0257635
0.038762 -0.0333846 0.0100109
0 0 0
0 0 0
0.0393921 0.00274001 -0.0334329
0 0 0
0 0 0
-0.253109 0.355017 -0.0970463
-0.32513 0.221185 -0.189901
-0.0967748 -0.109142 -0.0153801
-0.434785 -0.0136305 -0.112281
-0.0654916 -0.0565645 -0.111007
0.00725539 -0.362883 0.290591
-0.136926 -0.0805433 0.251348
-0.205023 -0.0830407 0.00143453
0 0 0
0.0997056 0.151557 0.000674513
0 0 0
-0.00957978 -0.0168709 0.000963437
0 0 0
-0.0752621 -0.0673169 -0.0807772
0 0 0
0.0268334 0.0485144 -0.0630648
0 0 0
-0.247023 -0.0516238 0.120873
0 0 0
0 0 0
0.0122284 0.10003 0.199008
4.7153e-05 -0.0408665 0.0718616
-0.0611666 0.0552672 0.700164
0.0517652 -0.00782007 -0.0276375
0.0535427 -0.121807 -0.0635389
5.03494e-05 0.01959 0.136322
0.00760389 0.0184698 0.00621362
0.249759 -0.165013 -0.147052
-0.187883 0.26982 -0.0029618
0.0859231 -0.0171084 0.135837
-0.191126 0.101467 0.131997
-0.00702978 -0.0219667 -0.0736653
0.0545006 0.0920218 0.625975
0.00203407 0.0929204 -0.086131
0.105114 -0.0506986 -0.0873686
-0.00280353 0.231742 0.0945107
0.00503976 -0.0378597 -0.031172
0.0261242 0.0374196 0.0705422
-0.139011 -0.0355607 0.0205203
-0.118776 0.0376084 0.0700934
0.00517972 -0.00433096 -0.110044
0.144528 -0.152458 -0.0823266
0.273287 -0.159123 0.188411
0 0 0
-0.100047 0.0538942 0.00191473
0 0 0
-0.0752924 -0.158331 0.00268184
0.085052 0.214632 0.287234
-0.125171 0.234485 0.075991
0 0 0
0 0 0
0 0 0
0 0 0
0 0 0
0 0 0
0 0 0
0 0 0
0 0 0
0 0 0
0 0 0
0 0 0
0 0 0
0 0 0
0 0 0
0 0 0
0 0 0
0 0 0
0 0 0
0 0 0
0 0 0
0 0 0
0 0 0
0 0 0
0 0 0
0 0 0
0 0 0
0 0 0
0 0 0
0 0 0
0 0 0
0 0 0
0 0 0
0 0 0
0 0 0
0 0 0
0 0 0
0 0 0
0 0 0
0 0 0
0 0 0
0 0 0
0 0 0
0 0 0
0 0 0
0 0 0
0 0 0
0 0 0
0 0 0
0 0 0
0 0 0
0 0 0
0 0 0
0 0 0
0 0 0
0 0 0
0 0 0
0 0 0
0 0 0
0 0 0
0 0 0
0 0 0
0 0 0
0 0 0
0.0132151 0.206955 0.261417
-0.124186 0.00282739 -0.00206547
0 0 0
-0.0634889 -0.0584481 -0.082248
0.10889 -0.02304 -0.061274
-0.00390752 0.0676168 0.0220611
0.0239483 -0.0805743 -0.0461503
0.0335196 -0.118819 0.125941
0.140244 0.0908567 -0.104459
0.140281 -0.0606607 -0.107476
0.00142889 -0.00492733 0.0511947
-0.0168169 -0.087604 -0.0756179
-0.01275 0.0219907 0.141922
0 0 0
-0.0645963 -0.00579231 -0.0555095
0.068114 -0.210647 0.14341
0.0095607 0.26261 -0.0516378
-0.119239 -0.07815 0.00711594
0 0 0
-0.020632 0.00195127 0.0473688
-0.117626 0.00844184 -0.0153465
0 0 0
0.200326 -0.00543441 0.403012
-0.00216191 0.0114237 0.0969424
0.0618961 -0.0147242 -0.113181
-0.0760971 -0.11442 -0.233463
0 0 0
0.0597601 0.221311 -0.00984235
0.172091 -0.0143103 0.10526
0 0 0
0.105371 0.0583537 0.0824999
0.11593 -0.0862089 0.0462618
-0.00274713 0.0408969 -0.00580268
0.0115182 0.0810767 0.0197702
0 0 0
-0.0438134 0.00294949 -0.0136798
-0.0437771 0.0349671 0.0343753
0 0 0
-0.0408758 0.00264288 -0.164583
-0.0139035 -0.236209 0.202061
-0.00218139 0.235719 -0.23354
-0.0483084 0.000633457 -0.0154234
0 0 0
-0.0107714 -0.00444673 0.0174866
0.00699511 -0.00640934 -0.216343
0 0 0
0.0418322 -0.0477516 -0.00302426
0 0 0
0 0 0
-0.0532051 0.0258973 -0.0293804
0 0 0
0.0830476 0.00283068 -0.0468105
0.0807639 0.0168924 -0.00795417
0 0 0
-0.0450354 0.00626681 -0.185455
-0.0243115 -0.150298 -0.11075
-0.0440719 0.17549 -0.00287932
-0.0439867 0.00269656 0.0860683
0 0 0
0.030447 0.0635179 -0.057521
0.0888557 -0.00363564 -0.0980689
0 0 0
0.052742 0.072211 -0.0320305
-0.115374 -0.0285063 -0.211585
-0.0274442 0.253644 -0.216096
0.137273 0.324636 -0.262624
-0.162334 -0.263336 0.294447
-0.213547 0.122119 -0.166963
-0.126738 -0.292707 0.114927
-0.124343 0.109941 -0.0871494
-0.0760652 -0.0102584 -0.394758
0.00744754 -0.0740069 -0.0644735
0.117289 0.0574613 -0.00279353
-0.279617 -0.0808317 -0.0786972
-0.0617694 0.0388439 0.0574856
-0.0776874 0.0412812 -0.368827
-0.0714803 0.125497 -0.00846464
0 0 0
-0.116167 -0.0981129 -0.295769
-0.0621423 -0.221203 -0.0203132
-0.00653593 0.208472 -0.151028
0 0 0
-0.00440845 -0.00437488 -0.00015219
-0.528473 -0.33653 0.342016
-0.0438365 -0.291104 -0.346525
-0.315768 -0.100904 0.0833849
0.119531 0.0294916 0.0411417
-0.0798482 0.124649 -0.186779
-0.0216936 -0.00886625 -0.020532
-0.420394 -0.381502 0.161067
-0.00240713 0.144447 0.00481725
0.0859593 -0.133301 0.220198
-0.128377 -0.0762678 -0.132676
-0.00157247 0.00747776 -0.0173205
0.295895 -0.204195 -0.00857359
0.0837862 0.122677 0.152734
-0.101884 0.0845257 0.000638141
0 0 0
-0.0910017 0.0569662 0.155605
-0.163968 0.0320166 0.178401
-0.126888 0.0129479 0.226801
-0.522885 0.113492 -0.0728365
-0.0369471 0.0571055 -0.102702
-0.337221 0.0833785 0.240927
-0.0781413 0.0470006 -0.0222231
0 0 0
-0.00474724 0.0121179 -0.116565
-0.0495462 0.246924 0.115419
0.019047 0.0229778 -0.0145014
-0.00121227 0.0030443 -0.0158554
-0.101693 -0.166671 -0.342041
-0.135188 -0.115102 0.148783
2.53706e-05 -0.1336 0.201535
-0.0724748 -0.0933622 -0.0906312
-0.0203929 -0.0124637 0.00551501
0.0120909 0.109269 -0.117417
0.187666 -0.270108 -0.0815493
0.0998336 -0.0775896 0.0170816
0.00430829 -0.0038187 0.0291087
0.0542058 -0.00451517 0.00565243
0.164343 -0.0854216 -0.0531735
0 0 0
0.0460675 -0.092467 -0.239731
0 0 0
-0.170567 0.404497 0.152682
-0.128927 -0.197038 -0.234161
0 0 0
0 0 0
-0.208055 -0.0307593 0.0630856
-0.00496941 0.0417892 -0.0678
0 0 0
0 0 0
0.0294336 0.100935 0.00565887
0 0 0
0.00805049 0.113445 -0.0746718
0.0213185 0.0395509 0.0995814
-0.0844381 0.0657052 -0.0690538
-0.00131216 -0.0831154 -0.00170327
0.0368302 -0.104588 -0.242557
-0.188974 -0.254857 -0.182942
-0.331879 0.428199 0.0695516
0 0 0
-0.103773 0.00144097 -0.081929
-0.148311 0.50592 -0.204952
-0.12404 0.174349 0.0195815
0.167841 0.0431761 -0.0472822
-0.000265185 0.064268 0.0485209
0 0 0
-0.00311224 0.0542445 0.126549
0.0666596 0.013525 -0.0043729
0.0979105 0.0880303 0.00175067
0 0 0
0.137818 -0.176672 0.0613137
-0.085111 -0.0438964 -0.0658045
-0.0872249 -0.0220648 -0.0496958
-0.0854557 -0.0561351 -0.114296
-0.094784 0.105908 -0.00211143
0.000530098 -0.154954 -0.132312
-0.017799 -0.0410921 -0.299887
0 0 0
-0.0417335 0.0341491 0.090902
0 0 0
-0.133733 0.117901 0.00263846
-0.182846 0.580413 0.172696
0.307584 0.0328358 0.191883
0.272074 -0.0403649 -0.0690339
-0.000275514 -0.0899076 -0.228156
0.317978 -0.0969916 0.260296
-0.03329 -0.024579 0.000347002
0 0 0
-0.140927 0.120078 0.195782
-0.0769256 0.127871 0.0964819
-0.0604962 0.0184376 -0.0186041
-0.487956 0.0605927 -0.204368
-0.0361554 -0.127476 -0.167612
0 0 0
0.0582748 -0.123719 0.0873165
0 0 0
-0.0197161 0.236147 -0.238082
-0.0122753 0.0878618 0.489941
0 0 0
0 0 0
-0.0154041 0.114359 -0.00161142