<?xml version="1.0"?>
<VTKFile type="RectilinearGrid">
<RectilinearGrid WholeExtent="0 32 0 32 0 32" Origin="0 0 0" Spacing="1 1 1">
<Piece Extent="0 32 0 32 0 32">
<PointData>
</PointData>
<Coordinates>
<DataArray type="Float32" format="ascii">
0 0.524874 1.04975 1.57462 2.0995 2.62437 3.14924 3.67412 4.19899 4.72386 5.24874 5.77361 6.29849 6.82336 7.34823 7.87311 8.39798 8.92285 9.44773 9.9726 10.4975 11.0224 11.5472 12.0721 12.597 13.1218 13.6467 14.1716 14.6965 15.2213 15.7462 16.2711 16.796 
</DataArray>
<DataArray type="Float32" format="ascii">
-5.03879 -3.62163 -2.20447 -0.787311 0.629849 2.04701 3.46417 4.88133 6.29849 7.71565 9.1328 10.55 11.9671 13.3843 14.8014 16.2186 17.6358 19.0529 20.4701 21.8872 23.3044 24.7216 26.1387 27.5559 28.973 30.3902 31.8074 33.2245 34.6417 36.0588 37.476 38.8931 40.3103 
</DataArray>
<DataArray type="Float32" format="ascii">
0 0.524874 1.04975 1.57462 2.0995 2.62437 3.14924 3.67412 4.19899 4.72386 5.24874 5.77361 6.29849 6.82336 7.34823 7.87311 8.39798 8.92285 9.44773 9.9726 10.4975 11.0224 11.5472 12.0721 12.597 13.1218 13.6467 14.1716 14.6965 15.2213 15.7462 16.2711 16.796 
</DataArray>
</Coordinates>
<CellData>
<DataArray type="Float32" Name="Vector" NumberOfComponents="3" format="ascii">
0 0 0
0 0 0
0 0 0
0 0 0
0 0 0
0 0 0
0 0 0
0 0 0
0 0 0
0 0 0
0 0 0
0 0 0
0 0 0
0 0 0
0 0 0
0 0 0
0 0 0
0 0 0
0 0 0
0 0 0
0 0 0
0 0 0
0 0 0
0 0 0
0 0 0
0 0 0
0 0 0
0 0 0
0 0 0
0 0 0
0 0 0
0 0 0
0 0 0
0 0 0
0 0 0
0 0 0
0 0 0
0 0 0
0 0 0
0 0 0
0 0 0
0 0 0
0 0 0
0 0 0
0 0 0
0 0 0
0 0 0
0 0 0
0 0 0
0 0 0
0 0 0
0 0 0
0 0 0
0 0 0
0 0 0
0 0 0
0 0 0
0 0 0
0 0 0
0 0 0
0 0 0
0 0 0
0 0 0
0 0 0
0.0141418 0.0138552 -0.0136816
0.012492 -0.174086 0.0295198
0 0 0
-0.0458468 0.0902158 0.0137868
-0.0318146 -0.0574389 -0.025183
0 0 0
0.15169 -0.122505 -0.0018729
-0.0420708 -0.145891 -0.072074
0.0627337 0.064846 0.0521073
-0.089899 0.04479 0.0228655
0 0 0
0.144298 -0.173738 -0.0863564
0.00796449 0.0418055 0.00694887
0 0 0
0.184266 0.117947 0.10424
0.0453087 0.145028 0.0217873
0.0524078 -0.324101 -0.0103753
-0.00893207 0.0491061 -0.0847284
0.000705957 0.00105358 -0.00442297
0.0762545 0.0523999 -0.00208494
-0.231554 -0.0850836 -0.0527639
0 0 0
-0.187418 -0.045143 0.0641033
0.0744669 0.165316 0.102449
0.0454695 0.0319833 -0.0613001
-0.0299767 -0.167387 -0.0066267
-0.00809765 -0.019304 -0.020171
-0.0478686 0.100106 0.0890413
0.193118 -0.0250788 -0.00717614
0.00144652 -0.0250533 -0.0194816
0.125702 0.256718 -0.00197027
0.0695789 -0.00866523 -0.107729
-0.0197036 0.0940878 0.0581326
0 0 0
0 0 0
0.189845 0.148775 -0.0427157
0.0211679 -0.00362739 0.0147641
0 0 0
-0.0373009 -0.138037 -0.0538075
0 0 0
-0.126388 -0.103678 -0.0140619
-0.26911 -0.0918194 -0.0081462
0 0 0
0.01172 -0.0427946 0.0744997
-0.233532 -0.00267735 -0.0363647
0 0 0
-0.00480255 0.0252269 -0.0742868
-0.0108786 -0.0858593 -0.0731328
-0.0127985 -0.001607 0.0699183
0.0545402 -0.0120182 0.0945514
0 0 0
-0.327346 0.0607029 0.0281452
0.0161855 -0.0741252 0.0534264
0 0 0
-0.108717 -0.0200634 -0.0420347
0 0 0
0.0379767 0.0033047 -0.0669989
0.0532699 0.205832 -0.00343908
0 0 0
0.00153273 -0.00173227 0.01933
-0.244018 -0.165084 -0.0012321
0 0 0
-0.0460771 0.0605101 -0.0641755
-0.00616315 0.0338248 -0.0999265
0.00803061 -0.00552049 -0.0012225
-0.155258 -0.0203676 0.050026
0 0 0
0.179549 0.00689057 -0.207937
0.146351 0.147497 0.113883
-0.0201392 0.072753 -0.093688
0 0 0
-0.319271 -0.396819 -0.179296
-0.165668 -0.05376 -0.0593164
0.012469 -0.166265 0.00376216
-0.230237 0.1076 -0.357235
-0.172897 0.0343052 0.243342
0 0 0
0.342802 0.135419 0.101196
0.0893788 0.0523263 0.198969
-0.0853082 -0.0435259 0.254836
0 0 0
0.0878029 0.126587 0.13495
0 0 0
0.0956063 0.032735 0.127679
0.0531612 -0.27319 2.29517e-05
-0.0676039 -0.0608546 0.0374287
-0.128341 -0.194867 -0.0741553
-0.00118049 0.0146811 -0.019976
-0.128551 0.0385297 -0.0474611
0 0 0
0 0 0
-0.0303322 -0.130267 -0.0037099
0 0 0
0.0664199 -0.0908146 0.0771445
0.300165 -0.0617576 0.0565566
0.311444 0.397216 0.34089
0 0 0
-0.255928 -0.0828478 -0.10164
-0.352446 -0.153765 -0.129686
0 0 0
0 0 0
0 0 0
0.060434 0.0114435 0.0331143
0 0 0
0 0 0
0 0 0
0 0 0
0 0 0
-0.477868 0.379783 -0.21943
-0.24497 -0.00359287 -0.0056801
0.0234803 0.0531864 -0.005072
-0.00803931 0.0108976 0.112582
0 0 0
0.0610237 0.183161 -0.130183
-0.00100466 0.0511561 -0.114979
0.0940042 0.186844 0.0857277
0.0689848 0.0875811 -0.150861
0.0142172 0.0691819 -0.171615
0 0 0
0.0148083 0.0290462 2.66059e-05
0.168946 -0.027537 -0.00169957
0.00919397 0.0770148 -0.00511475
0.0131171 0.0540049 -0.169754
0 0 0
0 0 0
0 0 0
0 0 0
0.0559094 0.0210117 -0.0175602
0 0 0
0.0327864 -0.0528433 -0.0439791
0.179076 -0.374492 0.279114
0.11538 -0.109838 -0.00673031
-0.0661691 -0.157311 0.392412
-0.145633 -0.0257162 0.134785
0.0252621 0.158779 0.0585842
0.174072 0.0595342 0.0137219
-0.0255201 -0.0929517 -0.0536435
0.0119797 -0.0977247 0.290524
0.0227857 0.147751 -0.274701
0.0760519 0.199196 0.078852
0 0 0
-0.0785998 -0.0678466 0.171893
-0.0342063 -0.0908044 0.35376
0 0 0
0 0 0
-0.00589796 0.0932271 -0.0505664
0 0 0
0.0620703 -0.0663542 -0.000586402
0 0 0
0 0 0
0.0805259 -0.19354 -0.0433178
0 0 0
0.284248 -0.28359 0.0480711
0.114172 -0.249078 0.0449946
0.0298186 0.0767328 -0.187896
-0.345198 -0.0710776 -0.152229
0 0 0
0.0110148 0.16783 0.137966
0.00209204 0.0554812 -0.0458201
0.0457669 0.310948 -0.467129
-0.0373986 0.00208405 0.0763353
-0.0323333 -0.00300099 0.170648
-0.129854 -0.185545 0.0285197
0.0661738 -0.136976 0.00146537
0 0 0
0.144523 -0.312039 -0.0057427
-0.0494927 -0.242389 -0.0300158
0.0701651 -0.0265962 0.0707877
-0.0444322 -0.114893 0.174172
0.0360718 -0.0586947 0.000258903
-0.0642027 -0.0727134 0.209961
0 0 0
-0.350614 -0.0886159 -0.147261
0 0 0
-0.150261 -0.173604 -0.00458518
-0.0101749 0.0217635 0.0569545
-0.274354 0.0467283 -0.0633695
-0.151709 -0.00106247 0.1495
-0.233691 -0.0286966 0.161652
0 0 0
0 0 0
0.189383 -0.112606 0.103486
0.196726 -0.446483 -0.402454
-0.00736427 0.0266203 -0.00880764
0.231564 -0.0427121 0.0211156
0.00485739 -0.0440127 -0.270379
-0.000109745 0.00163145 -0.0590992
0.0044742 0.030413 0.221777
0 0 0
0.462756 -0.0783479 -0.12958
0.104627 0.043501 -0.00142898
0 0 0
0.129948 -0.421335 -0.104685
0 0 0
0 0 0
0 0 0
0 0 0
-0.212901 0.0724133 -0.029923
-0.074307 -0.273718 -0.174598
0 0 0
0.166794 -0.497416 -0.186747
0.00184541 -0.0976649 -0.194154
0.0099101 0.0858139 -0.106908
0 0 0
-0.0686421 -0.283538 -0.150691
-0.281273 0.149381 -0.0528467
0 0 0
0 0 0
0 0 0
-0.0906508 0.0715919 -0.155089
-0.190693 -0.0888211 -0.0223946
-0.0384664 0.0205427 -0.208969
0 0 0
0.0629476 -0.0658242 -0.201176
0 0 0
-0.223605 0.284901 -0.0196136
0.00434327 -0.0868338 -0.00197314
-0.139082 -0.106835 -0.0988827
0.0950444 -0.295343 -0.183956
0.0021784 -0.0167625 0.0771864
0.0830682 -0.0623182 -0.0853704
0.0400125 -0.0876249 0.12715
0.0354778 0.00581799 0.0796334
-0.0298767 0.0666786 -0.183986
-0.0667948 -0.0134324 0.0240411
-0.320012 -0.124188 -0.104617
0.0017586 -0.147716 0.209164
-0.23978 0.0460344 0.270099
0 0 0
0 0 0
-0.0388075 -0.134323 -0.17209
0 0 0
0.0558135 -0.0819457 -0.000308445
-0.242322 -0.130416 0.0471654
-0.192641 0.0311202 -0.0418194
-0.291936 0.196487 0.133469
-0.294679 0.162296 0.0139285
-0.104199 -0.232182 -5.78934e-05
0 0 0
-0.162483 -0.190732 -0.449868
-0.00379388 -0.00853628 0.0160396
-0.52952 -0.0211129 0.0276091
-0.441027 -0.0117018 0.0955541
0 0 0
0.0821026 0.02317 -0.181197
0.140508 0.138279 -2.33454e-05
0.0930819 0.0154812 -0.0718408
0.143766 -0.318127 -0.00194092
0.121974 -0.130941 -0.108638
0.184221 -0.18265 -0.0332447
0.234364 -0.235351 0.117974
0.221322 0.0454687 -0.182548
0.206424 -0.193977 -0.263014
0.0156572 0.0817335 0.260865
-0.0476709 0.0421791 -0.000805664
0 0 0
0 0 0
0 0 0
0.0964074 -0.472933 0.419255
0.102222 0.024682 0.0350971
0.0253053 -0.0342086 0.0303186
-0.0417714 -0.291173 -0.132923
-0.391599 -0.00817097 -0.226636
-0.240334 -0.181625 -0.0324587
-0.439908 -0.141019 -0.102538
-0.110859 -0.000417713 0.0818513
0 0 0
0.146445 0.298114 0.0695571
0 0 0
-0.034734 0.18131 -0.207942
-0.429502 0.419878 0.342678
0 0 0
-0.0448915 -0.521133 0.30314
-0.0286161 -0.00564579 -0.0227296
-0.00643603 0.0223644 0.00064122
0 0 0
0 0 0
0.385582 0.438241 -0.221318
0.172061 0.0777573 -0.0236709
0.00452935 -0.110016 -0.248808
0 0 0
0.0141822 -0.0173042 0.0148082
0.177859 -0.303701 0.289812
0.204331 0.116149 -0.0974173
0.00492382 -0.0468677 0.0233319
-0.360696 0.330764 0.524475
-0.290768 -0.0517709 0.220511
-0.385519 0.065645 0.0285732
0 0 0
-0.164286 -0.328965 -0.285726
0 0 0
-0.270941 -0.0660631 -0.319863
0 0 0
-0.251842 -0.542161 -0.219416
-0.0530967 -0.0485665 0.034806
-0.193438 0.0558535 0.139141
0.0105892 0.17798 -0.115478
0.0286148 0.179321 -0.11052
0.230561 0.229288 0.390488
-0.000478342 0.0135696 0.00336731
0.013529 -0.0165482 0.000393427
0 0 0
-0.0302293 -0.0449122 -0.000973543
0.381169 -0.789264 -0.191833
0 0 0
0.0389949 0.15303 0.0511737
0.0504488 -0.242467 -0.130039
0 0 0
-0.000300427 -0.157354 0.00231541
0.024359 0.0389525 -0.037424
0.12218 -0.0162828 0.0233145
0.0772681 -0.0238927 -0.0658385
0 0 0
0.0533878 0.00552204 -0.167083
0.0478882 -0.0598363 0.0243702
0 0 0
0.123481 -0.0108389 -0.217171
0.165153 0.27437 0.134643
0.000166264 0.0942439 0.0493436
-0.041901 -0.354833 0.16083
0.111705 -0.0273721 -0.143083
0 0 0
-0.125752 -0.110458 0.151408
0.000559907 0.0162647 -0.0654209
-0.0317755 -0.0454673 -0.00152971
-0.117655 0.0518133 0.141851
0 0 0
0 0 0
0 0 0
-0.318678 -0.00479212 -0.248148
0 0 0
-0.0142501 0.0358682 0.0031972
-0.164692 0.215439 0.0592804
0.0711793 0.2258 0.116501
0 0 0
-0.11941 -0.0323666 -0.0325686
-0.0848474 -0.0792226 0.247852
0.127739 -0.166077 0.337246
0 0 0
0 0 0
0 0 0
-0.0949112 -0.152011 -0.0955884
0 0 0
0 0 0
0.0454547 0.172175 0.133996
0.277856 -0.0109748 -0.00560657
0.125556 -0.157939 0.0740436
0 0 0
-0.107348 0.00552014 -0.00134646
0.085394 -0.045804 -0.00759283
0.0291476 0.0866914 -0.289054
0 0 0
0.00174847 -5.62527e-05 0.049528
0.0485253 0.123295 -0.122986
-0.0989475 -0.22122 -0.0689824
-0.0893268 -0.21035 0.138726
-0.0576869 -0.140983 -0.0477485
-0.247573 0.0304296 0.123163
-0.262667 -0.0375566 -0.384806
0.0439408 0.211198 0.0919786
-0.0844788 0.00410932 -0.0114731
0.00156433 0.00387178 -0.000378887
-0.196919 0.0217956 -0.0913915
-0.247563 0.288279 -0.312787
-0.0427573 -0.185655 0.13987
-0.0863718 0.0486467 -0.200059
0 0 0
0.381892 0.184056 0.103217
0.341656 -0.0806219 0.0802016
0.0232851 -0.0554362 0.2021
0.00173961 0.0630155 0.0817882
0.026436 -0.210232 0.0498137
0.24321 -0.152067 -0.088143
0.0362033 -0.215121 -0.243298
0 0 0
-0.0563805 -0.350506 0.395176
0.197469 -0.000561377 -0.426098
-0.0812202 -0.0586589 -0.246106
0 0 0
0 0 0
0.177302 -0.184915 -0.18021
0.0805532 -0.0253639 -0.00131785
-0.0977255 0.0351275 -0.0675282
-0.0862638 0.167826 0.0297194
0.141368 0.201725 0.0420206
0 0 0
0.152214 -0.00724772 -0.0470286
0 0 0
-0.233179 -0.0471267 0.528347
0 0 0
0 0 0
-0.174398 0.135814 -0.152317
-0.0480619 0.173406 0.293075
0 0 0
0.159598 0.256505 -0.0838096
0.0858984 0.0117463 0.018052
0.0780962 -0.000839482 -0.00294665
-0.0306753 0.0155437 0.062369
0.0588911 -0.0314793 0.00158866
0.20851 -0.0273708 0.00121201
0 0 0
0.067197 0.0297248 0.168759
0.10867 0.039763 -0.0880637
0.238375 -0.0404421 0.169625
0.0256315 0.00183632 0.0113433
-0.0576951 0.176217 -0.211965
0.000810077 0.0183941 -0.134691
-0.372018 -0.0381407 0.10982
-0.00296225 0.0544299 -0.111655
-0.0992927 0.101383 0.312212
0 0 0
-0.225583 -0.258869 -0.125215
0 0 0
-0.216588 -0.14389 -0.0269691
-0.00132215 0.00183269 -0.00325579
0.0828455 -0.0175694 -0.15216
-0.0261089 0.31286 -0.100047
0.104339 -0.18011 -0.485089
0.032024 0.00800459 -3.53201e-06
0.00361111 0.246173 -0.0439915
0 0 0
0.215364 0.244643 -0.13765
0 0 0
-0.105693 -0.0505345 -0.00148688
-0.178444 -0.00500456 -0.0216832
-0.267336 0.0145017 0.524508
0.165911 -0.316862 -0.0236
0.000376101 -0.107859 -0.272186
-0.0182119 -0.178815 0.151737
-0.0997281 -0.21392 0.226191
-0.0176753 0.00870693 0.00196633
0 0 0
-0.0443797 -0.0295446 -0.236945
-0.144075 -0.116154 -0.0500689
0.00271884 0.178391 0.15434
0 0 0
-0.206968 0.177314 -0.00443149
-0.0662499 0.284418 0.0845548
-0.0321084 0.0292882 -0.165096
-0.20419 0.0673714 0.123917
-0.174668 -0.0453327 -0.0713328
0.0454088 0.040175 -0.288104
0.00565277 0.0582855 -0.0451429
0.442699 0.0910159 0.176415
0 0 0
0 0 0
-0.123142 -0.22159 0.146244
-0.492515 0.165235 -0.0759418
0 0 0
-0.044354 0.0120208 -0.111757
-0.218104 0.0624175 0.278947
-0.0464231 0.0232298 -0.0581025
0.1253 -0.0179363 -0.0776038
0 0 0
-0.312501 -0.129731 -0.115418
0 0 0
-0.0489187 -0.154988 -0.126288
0 0 0
-0.008253 -0.0446422 0.14974
0.0737685 0.0468263 0.031421
-0.0232383 -0.0306312 -7.52037e-05
0.109599 0.0859227 -0.141184
0.201234 0.105829 0.142355
-0.00620721 -0.109783 0.0310703
0.0592975 0.0318197 0.000598729
-0.073313 -0.222028 0.0547123
0 0 0
0 0 0
0.024874 0.165681 -0.05732
-0.000942482 0.0443396 0.0505712
0.119327 0.0623591 -0.125455
0 0 0
-0.253581 0.101857 0.296134
0 0 0
-0.243151 0.209207 -0.0416804
-0.113222 0.0902884 0.0553653
-0.226779 0.123643 0.223244
0 0 0
0 0 0
-0.0737082 0.180553 0.0209961
0 0 0
-0.280245 0.276194 0.122867
0 0 0
0 0 0
0 0 0
0 0 0
-0.327827 -0.10083 -0.307019
0 0 0
0.00307269 0.0222702 -0.000713663
0.0601057 0.258975 0.000535369
-0.112656 0.00209608 0.0898804
-0.0917777 0.144087 0.297428
-0.0951253 -0.539125 0.0847074
0 0 0
0 0 0
0.0748533 -0.0118309 0.0179549
0.131409 -0.340673 0.00838389
0.00671078 -0.000494199 0.00289549
0.134538 -0.0439182 -0.00415833
0.240201 -0.0663649 0.313654
0 0 0
0.100632 0.0751545 0.389937
0.208089 -0.16078 0.182564
0.138122 0.0600779 -0.405357
0 0 0
-0.000524993 -0.0139742 -0.0137046
0.135206 0.236476 0.052239
0 0 0
-0.215765 -0.0468395 0.304585
-0.061751 -0.232095 0.216011
-0.00179388 0.0231829 -0.0478163
-0.00500956 0.206801 0.00193918
-0.0812799 -0.148475 -0.101254
0.000600844 0.0703795 0.109183
-0.0724124 -0.230372 0.324497
-0.20312 0.224577 0.0944801
0.0538292 -0.0662271 -0.327443
-0.168046 0.118724 -0.247278
-0.330013 0.435014 -0.24509
-0.129648 -0.199805 0.266839
-0.0469204 -0.263375 0.0464663
-0.0234176 0.116031 0.0451496
0.00240303 -0.0449758 -0.133841
-0.116778 -0.0855473 -0.157214
0 0 0
0 0 0
-0.000543693 -0.0170761 0.024689
-0.367402 -0.256619 0.11534
-0.201245 -0.198737 -0.0554188
-0.0126792 -0.00179566 0.0367275
0.360329 -0.394361 0.0685354
0.0317753 -0.0348365 0.0445595
-0.0520037 -0.0862967 0.0855867
0 0 0
0.248611 0.0121366 0.190266
-0.012231 0.0439865 0.114363
-0.157966 0.23759 0.0558441
-0.114731 -0.188279 0.068435
-0.286163 -0.421844 -0.112591
0.271676 -0.524762 0.0504886
-0.236932 -0.085162 -0.157995
-0.0554482 0.0289717 -0.105241
0 0 0
-0.147207 -0.0872333 0.0876278
-0.156114 -0.0129713 0.0937592
-0.025642 -0.00898432 0.0226908
0.124617 -0.268567 0.17227
-0.229835 0.0885855 0.0622316
-0.0458152 0.0126999 -0.0613603
0 0 0
0.10673 0.0629259 -0.153208
0.27714 0.0139406 -0.00334653
0.143935 0.152658 -6.21579e-05
-0.233674 0.0470972 -0.0569432
-0.0263813 -0.0854408 -0.0495938
0 0 0
0.0619453 -0.0633392 -0.0358679
0 0 0
-0.118168 -0.340585 0.194198
-0.52486 -0.184183 -0.0564718
-0.0644619 -0.161563 -0.3067
-0.0870083 -0.0300091 0.00280281
-0.0490502 0.162138 -0.0614313
-0.00266337 0.123955 0.098828
0 0 0
0.194418 -0.0956724 0.37526
0.0060264 -0.0316649 0.0540023
-0.23623 0.476728 0.0444155
0 0 0
-0.318683 -0.522232 0.19059
0.0938262 -0.268142 0.0994844
0.0601806 0.0115092 0.0305535
0.14159 0.142204 -0.0170434
0 0 0
-0.043135 -0.207569 0.00173787
-0.265152 -0.0667619 -0.0161018
-0.180308 -0.324325 0.228478
0 0 0
-0.0583208 -0.122258 0.189935
-0.0857163 -0.16947 -0.117535
-0.182236 0.0418311 0.000496518
0 0 0
-0.0204495 0.264084 -0.100615
-0.0954052 0.0166646 -0.0398997
-0.124658 0.0679757 -0.0688378
0 0 0
0.00351278 -0.0123269 -0.160708
0.172231 -0.13468 -0.306244
0 0 0
0 0 0
0 0 0
-0.00250897 -0.146202 -0.0988334
-0.334734 -0.0394951 0.0253222
-0.0652377 -0.0635668 -0.409426
-0.01438 0.0185348 -0.067128
0 0 0
0.206859 -0.255893 -0.0492529
0 0 0
-0.113485 0.23875 0.011396
-0.0698808 0.0717368 -0.123217
-0.302959 -0.0385281 -0.0732494
-0.0916501 -0.0564468 0.0909852
-0.08162 -0.319716 -0.117939
0 0 0
-0.101233 0.228949 0.17762
0.0472766 0.0497959 -0.000869376
0 0 0
0.165802 -0.0159286 0.219291
-0.0885084 -0.0396977 -0.0426244
-0.206624 -0.118778 -0.077313
-0.115627 -0.289927 -0.259527
0 0 0
0 0 0
0.0046196 0.00582882 0.00221502
-0.0879925 -0.141981 0.0534391
0.0136804 0.0892407 -0.0144058
-0.169214 -0.129779 -0.140279
-0.0863825 0.00326411 0.133417
0 0 0
-0.0540528 -0.0342776 0.0152392
-0.0712778 -0.0820894 0.011932
-0.0363813 -0.104421 0.0729806
0.10821 0.24691 0.168887
0.279888 0.25936 -0.306027
0 0 0
0 0 0
-0.377437 -0.308093 -0.199288
0 0 0
-0.00384432 -0.337019 0.132658
0 0 0
0 0 0
-0.279942 0.422012 -0.0130493
0 0 0
0 0 0
-0.113347 -0.214166 0.197001
-0.00268428 0.0754792 -0.135938
-0.0640483 0.0113456 0.128351
-0.163376 -0.08309 0.17859
0 0 0
0 0 0
-0.0799618 -0.208717 0.301802
0 0 0
0.0684381 -0.0342641 0.0522983
0.018546 0.0541872 -0.0124809
0 0 0
0.10484 0.109787 0.16224
-0.00190902 0.028682 -0.1357
0.162242 0.574279 -0.36383
0 0 0
-0.0332002 0.0270826 -0.0375162
0 0 0
-0.346713 -0.0774852 0.117694
0.00547451 0.0140455 -0.0077704
0.157541 0.0316697 -0.156452
-0.150997 -0.0270751 0.0558419
0.0185872 -0.00809591 -0.282345
0.0244181 0.280531 0.0661254
0 0 0
-0.00188114 0.0682077 -0.136584
-0.248787 0.0544273 -0.156292
0.207805 -0.122192 0.174488
-0.0572709 0.149924 0.0857889
-0.0409794 0.193037 0.0807383
0.0625639 0.0245733 -0.139713
-0.0114381 -0.00898645 -0.0124927
-0.180128 -0.051299 0.0429165
-0.00078592 -0.138539 0.0780473
-0.1773 0.180186 -0.220625
0.018866 -0.209781 -0.21951
0 0 0
0 0 0
0.126262 0.0215333 0.25975
0 0 0
0 0 0
-0.0158593 -0.256217 -0.0773776
-0.0109323 -0.00999411 0.00321472
0.127586 0.0332909 -0.113294
0 0 0
-0.0266206 0.0917965 0.124308
-0.529235 0.251226 -0.0995979
-0.0232494 0.108859 -0.00646378
-0.0508377 -0.107684 -0.0201235
0.00126867 -0.0851859 0.025267
-0.190024 0.0580548 0.00435066
0.0666873 0.250352 0.210675
-0.0377185 0.0145355 -0.243691
0.0598184 -0.161921 0.447378
0 0 0
-0.278979 0.318281 -0.0510791
-0.0722659 0.325192 -0.0431794
-0.194162 -0.135194 0.202241
0 0 0
-0.0152129 -0.128334 -0.188163
0.127078 -0.0162964 0.148192
0.242598 -0.0321817 -0.136695
0.0434809 0.129004 0.104148
0.277091 0.263393 -0.164115
0.188233 0.315838 0.204232
0 0 0
0.0189738 -0.024585 0.0187563
-0.0845733 0.0139773 -0.00560572
0.100331 0.0419235 0.00691426
0 0 0
0 0 0
-0.225512 0.309556 0.0945426
0 0 0
-0.229472 0.338114 -0.0386182
-0.0377496 -0.0916346 -0.131205
-0.0733177 0.183552 0.0549661
0.0260604 0.0725424 -0.367937
0.163229 0.0780165 0.00856988
0.101853 -0.0130653 -0.0190255
0 0 0
0.00882564 0.0137586 -0.151517
0.114874 -0.200171 0.22959
0 0 0
0.155384 0.0957293 0.13535
0 0 0
-0.00505105 -0.0220729 -0.22071
0 0 0
0 0 0
-0.177406 0.132528 0.342206
0 0 0
-0.0241971 0.0953027 -0.00141356
0 0 0
0 0 0
0.254 -0.206092 -0.00450099
0.0757252 0.0991489 0.196996
0.266123 -0.0507338 -0.195612
-0.00306297 0.0234348 0.0146525
0 0 0
-0.00092249 -0.0653841 0.0975269
0.139323 0.0123853 -0.000725744
0.0278179 0.0608216 -0.0735778
0.022987 -0.0285695 0.201742
-0.277552 0.2706 -0.062977
0 0 0
-0.0326822 0.0240561 -0.0824873
-0.0549974 0.0709526 -0.0187504
-0.206459 -0.34629 0.000210997
-0.0250235 -0.137557 -0.0425937
0.159913 0.130749 0.0160505
0 0 0
0.154273 0.142002 -0.00556575
0 0 0
0 0 0
-0.0561972 0.287033 -0.0903677
0 0 0
0 0 0
-0.0564095 -0.0145833 -0.065116
-0.0209567 0.351024 -0.0165954
-0.121977 0.0409724 0.152967
-0.113696 -0.0334483 0.052574
0.069885 -0.0488278 0.236971
-0.00091525 0.166103 -0.0259433
0.168499 0.795683 0.0903153
0.00661737 0.0138865 -0.0152923
0.0977433 -0.134712 -0.30844
0.204066 -0.141495 0.0658957
0 0 0
-0.0649748 -0.156692 0.161788
0 0 0
0.0620297 0.0301416 -0.121462
0.305618 -0.214483 -0.177634
0.271993 -0.217821 0.0522354
0.103745 -0.0632658 0.0765565
0.157576 0.242845 -0.000533798
0.0711216 0.322865 -0.249654
0.0355307 0.194763 -0.0946239
0.388746 -0.00958021 -0.285379
0.0335689 0.00152696 -0.0236269
-0.0184652 0.200485 0.00470081
0.0675695 0.0311325 0.0107267
0.110834 0.0364401 -0.0118185
0 0 0
-0.0366724 0.0235464 0.0256015
0.0248438 -0.0671534 0.090121
0 0 0
0.0643121 -0.108721 -0.100761
-0.0525101 0.0375596 -0.0355185
-0.0775211 -0.0123547 -0.073848
0.188305 0.12562 0.0985347
0.0347779 -0.335474 0.0701252
0.193 0.137123 -0.296945
0.125875 -0.125089 -0.0965765
0.073073 -0.0110545 -0.10837
-0.0241993 0.0194572 0.110897
0 0 0
0.0295287 -0.0162978 0.00178689
0 0 0
-0.0688034 -0.0849174 0.0834424
-0.0591403 -0.139212 -0.0914492
-0.241281 -0.133339 -0.0136529
0 0 0
0.548653 0.254144 -0.0479045
0.108966 0.11554 0.108777
0 0 0
0 0 0
0 0 0
0.136468 -0.0384283 0.00488151
0.0513697 0.131462 -0.134157
-0.0111272 0.0112792 -0.059497
-0.110888 -0.0516016 -0.219385
0.182716 -0.143755 0.000302348
0.0130808 0.136732 0.0018824
0 0 0
0.0394033 0.342186 -0.107996
0.15829 0.060635 -0.224653
0.0596031 -0.00483257 0.181043
-0.0469143 -0.0280611 0.0726128
-0.124103 0.423466 -0.10526
0 0 0
0 0 0
-0.0384805 0.00351229 -0.0266954
0.0186117 0.0315269 0.0315269
0 0 0
0.000372898 0.0700853 0.0496699
-0.00125785 0.22064 0.443746
0.019442 -0.0938606 -0.141534
-0.111491 -0.0580987 0.00636683
0.00125127 0.0229598 0.0333361
0.251959 -0.100658 -0.291375
-0.00468939 0.0167114 0.120453
0.0802377 -0.0196299 -0.158997
0.323869 0.0194962 -0.0488507
0.131381 0.174559 -0.252464
0.296139 -0.251722 -0.0798795
0.693818 0.0765845 -0.154667
0.522565 0.00462826 -0.0555305
0.477211 0.0145979 0.0343628
-0.00182126 -0.0676979 0.363126
0 0 0
-0.379627 -0.125929 0.0825103
0 0 0
-0.0025987 -0.0617089 -0.00676504
0.130359 0.408656 -0.0346195
0 0 0
0 0 0
-0.13744 0.119321 0.00721456
-0.00968248 0.0903267 0.0709538
0 0 0
0 0 0
0.0881497 -0.0242491 0.12893
0 0 0
0.167325 0.22703 -0.113147
0 0 0
0 0 0
0.0628371 0.154783 0.237143
0.105954 0.231133 -0.0367567
0.0515834 0.118425 0.0578738
0.0529396 0.00747725 -0.02534
0.125771 0.208317 0.118084
0.0121554 -0.09025 -0.114664
0.118626 -0.0724757 0.135662
0.134204 0.150433 0.254415
0.01354 0.00518971 -0.102818
-0.00245792 0.124927 0.341027
0.235784 0.0155197 0.0981941
-0.00768488 -0.169627 0.0805376
0.0419854 0.0655213 0.261249
-0.0782849 -0.220584 -0.0265172
-0.00980821 -0.118802 0.239553
-0.164229 -0.0458558 0.165242
0.0476523 -0.0255412 0.158513
0.0760694 -0.26265 -0.0685403
0.0226425 -0.00415307 0.206602
-0.0937662 0.0476478 -0.276211
-0.00573044 -0.0163151 0.0102187
0.188859 0.107125 0.014022
0.0920807 0.258211 -0.327774
0.00120938 0.0268805 0.0110028
0.11656 0.143529 -0.0752065
0.0511534 0.362811 -0.139669
-0.174702 0.612646 -0.269767
0 0 0
0.143283 -0.226652 0.078993
0 0 0
-0.139185 -0.12907 -0.0121645
0 0 0
0.348134 0.231369 -0.198299
0.22763 0.147882 0.169917
0.01356 -0.0291593 0.0067917
0.0297946 -0.111223 -0.00653236
0.281795 0.332094 0.0248932
0.0280949 -0.0254827 -0.0251389
0.118819 0.028982 -0.00273506
0 0 0
0.137199 0.120276 -0.126044
0 0 0
-0.130296 -0.0665968 0.000255448
0.0018291 0.0710713 -0.0829371
0.00950428 -0.0193766 -0.204472
0 0 0
0.0748614 -0.0578651 0.0410126
0 0 0
0 0 0
0.0118528 0.121271 -0.0999899
0 0 0
-0.00589162 0.00415226 0.0219309
0 0 0
-0.266821 0.00916853 0.0987271
0 0 0
-0.132006 0.215706 0.0933851
0.0358897 0.0266569 0.0277907
0 0 0
0.00445901 -0.0197001 -0.406279
0.350134 -0.172901 -0.0464692
0.181205 -0.037784 -0.223862
0.000540698 -0.0101531 -0.000381026
0 0 0
-0.256416 0.256807 0.0937259
0 0 0
-0.00873504 0.00607522 -0.0272665
0.146607 -0.11381 -0.17119
0.383 -0.152551 -0.220356
0 0 0
0 0 0
0.0182036 -0.154403 -0.0292919
0 0 0
-0.0208943 0.00548907 -0.0613832
0.262961 0.137691 0.129411
0.0539102 0.270302 0.29715
0 0 0
-0.085537 -0.129961 -0.054347
-0.243466 0.136097 0.153091
-0.318363 -0.365644 0.370463
0.0439937 -0.0162457 -0.231465
-0.000114182 0.177418 -0.12819
0 0 0
0.0273919 -0.00536372 0.00031952
-0.0208092 0.167019 0.183318
-0.136986 -0.0337473 -0.172381
0 0 0
-0.147111 -0.0663556 -0.23275
0 0 0
-0.0186399 0.00296488 -0.00598411
-0.0661958 -0.106096 0.109433
-0.0457928 -0.00769578 0.0116837
0.0683619 0.0517388 -0.0452876
0 0 0
0 0 0
0 0 0
-0.00226923 -0.018117 0.0450587
-0.0831553 0.114273 0.301303
0.00582207 0.137313 0.0531262
0.140003 -0.0881496 -0.282214
-0.0050449 -0.0240684 -0.144054
0.0765995 0.0504503 -0.368068
0.520451 0.00765252 -0.211916
0.0223464 -0.0903359 0.0528303
0 0 0
-0.361258 0.203996 0.446652
0 0 0
-0.132747 0.343679 0.310098
-0.0085117 0.0334811 0.0133993
-0.023711 -0.00926071 0.0960144
-0.172857 0.100555 0.303228
-0.0076336 0.0845705 -0.0594983
-0.229562 -0.0836182 -0.234469
0.170747 -0.204012 0.158024
0 0 0
0 0 0
0 0 0
0 0 0
0 0 0
0 0 0
0 0 0
0 0 0
0 0 0
0 0 0
0 0 0
0 0 0
0 0 0
0 0 0
0 0 0
0 0 0
0 0 0
0 0 0
0 0 0
0 0 0
0 0 0
0 0 0
0 0 0
0 0 0
0 0 0
0 0 0
0 0 0
0 0 0
0 0 0
0 0 0
0 0 0
0 0 0
0 0 0
0 0 0
0 0 0
0 0 0
0 0 0
0 0 0
0 0 0
0 0 0
0 0 0
0 0 0
0 0 0
0 0 0
0 0 0
0 0 0
0 0 0
0 0 0
0 0 0
0 0 0
0 0 0
0 0 0
0 0 0
0 0 0
0 0 0
0 0 0
0 0 0
0 0 0
0 0 0
0 0 0
0 0 0
0 0 0
0 0 0
0 0 0
-0.017003 -0.0525618 0.115379
-0.119121 -0.110191 -0.0632529
-0.00120236 0.00134888 -0.0942678
-0.132364 -0.111362 -0.0418803
-0.0874275 0.068801 0.112043
0.00142281 -0.08526 -0.0392
0.106549 0.0635181 -0.272791
0.0342435 -0.0896024 -0.0715304
0.0120339 0.151927 0.030507
0.115982 0.0116491 0.170213
0 0 0
-0.0172197 0.0775305 -0.0156081
0.210606 -0.00529256 -0.0638728
0.00165512 0.00407573 -0.000828137
0.103905 -0.0571424 0.0709508
0.0157289 -0.120338 -0.152805
-0.0188199 0.113581 0.128658
-0.0343172 -0.113411 0.00447677
-0.0101136 0.0066385 -0.000556101
-0.0101601 -0.0881296 -0.012372
-0.00237051 0.0107793 0.171862
-0.000367489 -0.000593756 -0.0108191
-0.0563901 -0.0104363 0.0552778
-0.00955969 -0.00487515 -0.0262064
-0.0138595 0.125759 0.073612
0.223806 0.0544019 0.000414955
0 0 0
0.0545151 -0.126133 -0.0715061
-0.00207414 0.0372398 0.0141263
0 0 0
0.0531547 -0.178053 0.0552279
0.100645 -0.0397895 -0.0984615
-0.135101 0.0405056 0.0250554
0.0183689 0.0396226 0.0309104
0 0 0
0.0822574 -0.00469442 0.130256
0.0354835 -0.0572217 -0.0562696
0 0 0
-0.0145075 0.0436732 0.162222
-0.00236876 0.0262446 0.165371
-0.0185528 0.00260142 -0.111635
-0.0115401 0.00420713 -0.0468588
0 0 0
0.00905829 -0.016462 0.103153
-0.063383 0.00430581 0.0435472
0 0 0
0.0130479 -0.134159 -0.00681744
-0.0541985 -0.0037007 -0.0277851
-0.00486914 0.00290849 0.0376333
-0.022975 0.0244618 0.0236874
0.0103646 0.0318288 0.0278106
-0.0162202 -0.0401381 -0.0835018
0.0505161 -0.0229764 -0.0242511
0 0 0
0.0717978 0.00249816 -0.0301833
-0.0204326 -0.247494 -0.032096
-0.012948 0.161959 -0.00121798
-0.0909298 0.00486498 -0.0146168
0 0 0
-0.0147323 -0.0132123 0.00379322
0.0415601 -0.000319665 0.032697
0 0 0
-0.0137088 -0.0320378 0.00497904
-0.105066 -0.0395145 -0.0346875
0.0491544 0.0307057 0.117756
-0.0418645 -0.0711319 0.0151437
-0.0869467 -0.104259 -0.132714
-0.11033 0.0578508 0.178341
0 0 0
0 0 0
-0.175663 -0.264095 0.288667
0 0 0
0.000654235 -0.094055 0.0990188
-0.423791 0.0803253 -0.158065
-0.028862 0.359324 -0.179665
-0.373424 -0.17782 -0.0949444
0.0861439 -0.0479378 0.00687126
0.00394405 0.00475087 0.00755954
-0.00361374 -0.059243 0.342506
-0.0030514 -0.152057 0.116133
0.0934639 0.124523 0.102587
0.0614402 0.24963 -0.0815133
-0.156217 -0.137802 -0.0222218
-0.0526502 0.26064 0.252974
0 0 0
0 0 0
-0.0439717 -0.12227 -0.109937
-0.038439 0.0905289 0.0296512
-0.0735062 -0.286124 -0.422859
-0.171887 -0.292206 -0.0197681
-0.146393 0.165972 0.0737534
0.0723081 0.0429144 -0.525481
-0.122755 -0.24865 0.0779628
0.0887493 0.309099 -0.0588816
0.0804282 -0.162804 0.13949
0.0613047 0.143284 0.145549
-0.00229572 0.257948 0.129667
0 0 0
0 0 0
0.0197825 -0.0389168 -0.00692138
0.230738 -0.446122 -0.115573
0.271338 -0.080876 -0.0957322
0.121931 -0.09921 0.0405252
0 0 0
-0.449715 0.298182 -0.2774
-0.000755296 -0.0566513 -0.238191
-0.25065 -0.174263 0.00658799
0 0 0
0 0 0
-0.227164 0.0680965 -0.000715364
-0.0377808 -0.085027 -0.00471699
0.0109441 0.0163788 0.283213
0.00108532 0.023569 -0.0712058
0.20096 0.244994 0.0902804
-0.0343443 0.0988205 0.0472532
-0.213335 0.171276 -0.0459745
0.0449324 -0.0298096 -0.0151208
-0.042488 0.015021 -0.256913
-0.286465 0.143448 0.151294
0 0 0
-0.204957 0.0459767 -0.00907156
-0.095884 -0.0752249 -0.0175754
-0.00351948 -0.110589 -0.0366716
0.0865417 -0.0589612 0.151728
0 0 0
-0.17653 -0.170539 -0.177501
0.00230482 0.133654 -0.131906
-0.131448 0.198885 -0.484108
0 0 0
0.148803 -0.2977 0.16813
0 0 0
-0.0472762 -0.310944 0.0543987
0.0569983 0.112672 0.00597024
-0.135952 -0.0056145 -0.0372462
-0.0665253 -0.404827 0.425812
-0.00462954 0.0224148 -0.0129648
-0.0758304 -0.283818 0.189492
0 0 0
0 0 0
-0.011481 0.134775 -0.00108154
-0.179209 -0.194507 -0.145047
0.0773629 0.0228211 0.0341817
0.01221 0.0131921 -0.129298
0.17238 -0.368828 0.222029
0.00436076 -0.0522341 0.0826922
0.00705731 0.0808229 -0.122545
0.0741162 0.320422 0.130425
-0.0022842 -0.00506202 0.00607732
-0.0282353 -0.177997 0.0374942
-0.0363694 0.158773 0.00686993
0 0 0
0.0198738 -0.363064 0.11564
-0.119452 -0.024613 0.0587805
-0.117986 -0.0329362 0.144077
0 0 0
-0.100854 0.126994 -0.188568
0 0 0
-0.0352475 -0.0604643 0.0116778
-0.0442715 -0.0367369 -0.0891857
0 0 0
-0.298511 -0.0399097 0.117353
-0.0372093 0.119584 0.000520841
0 0 0
-0.0590117 -0.11075 0.329822
0.00288719 0.0536398 -0.018503
-0.0654182 -0.148621 -0.197543
0.000421746 0.132101 -0.071771
0.0275587 -0.434772 0.230042
-0.0305283 -0.00174699 -0.0638211
-0.157906 -0.0711817 0.101434
-0.27998 -0.0585619 0.346009
0 0 0
-0.00859081 0.174412 0.0329341
0 0 0
0.0401816 0.0464112 0.231086
0.0116262 -0.0323306 0.000251726
0.215443 0.178798 -0.0424147
0.0481985 0.131595 0.126582
-0.0276123 -0.0276194 0.0824116
0.0988823 -0.115587 -0.405478
0.11844 0.043703 -0.0464968
0.0261485 -0.213545 -0.036058
0 0 0
-0.0975508 -0.0332932 -0.514866
-0.0291888 -0.0358882 -0.123456
-0.0625786 0.13722 -0.156915
-0.0249519 -0.00828304 -0.0728137
0.279475 -0.056241 0.000324538
0.177345 0.0966562 0.153516
0.0411731 -0.121567 -0.197783
0.120943 0.153361 0.336085
-0.00641964 -0.0297326 0.0579642