<?xml version="1.0"?>
<VTKFile type="RectilinearGrid">
<RectilinearGrid WholeExtent="0 32 0 32 0 32" Origin="0 0 0" Spacing="1 1 1">
<Piece Extent="0 32 0 32 0 32">
<PointData>
</PointData>
<Coordinates>
<DataArray type="Float32" format="ascii">
0 0.524874 1.04975 1.57462 2.0995 2.62437 3.14924 3.67412 4.19899 4.72386 5.24874 5.77361 6.29849 6.82336 7.34823 7.87311 8.39798 8.92285 9.44773 9.9726 10.4975 11.0224 11.5472 12.0721 12.597 13.1218 13.6467 14.1716 14.6965 15.2213 15.7462 16.2711 16.796 
</DataArray>
<DataArray type="Float32" format="ascii">
-5.03879 -3.62163 -2.20447 -0.787311 0.629849 2.04701 3.46417 4.88133 6.29849 7.71565 9.1328 10.55 11.9671 13.3843 14.8014 16.2186 17.6358 19.0529 20.4701 21.8872 23.3044 24.7216 26.1387 27.5559 28.973 30.3902 31.8074 33.2245 34.6417 36.0588 37.476 38.8931 40.3103 
</DataArray>
<DataArray type="Float32" format="ascii">
0 0.524874 1.04975 1.57462 2.0995 2.62437 3.14924 3.67412 4.19899 4.72386 5.24874 5.77361 6.29849 6.82336 7.34823 7.87311 8.39798 8.92285 9.44773 9.9726 10.4975 11.0224 11.5472 12.0721 12.597 13.1218 13.6467 14.1716 14.6965 15.2213 15.7462 16.2711 16.796 
</DataArray>
</Coordinates>
<CellData>
<DataArray type="Float32" Name="Vector" NumberOfComponents="3" format="ascii">
0 0 0
0 0 0
0 0 0
0 0 0
0 0 0
0 0 0
0 0 0
0 0 0
0 0 0
0 0 0
0 0 0
0 0 0
0 0 0
0 0 0
0 0 0
0 0 0
0 0 0
0 0 0
0 0 0
0 0 0
0 0 0
0 0 0
0 0 0
0 0 0
0 0 0
0 0 0
0 0 0
0 0 0
0 0 0
0 0 0
0 0 0
0 0 0
0 0 0
0 0 0
0 0 0
0 0 0
0 0 0
0 0 0
0 0 0
0 0 0
0 0 0
0 0 0
0 0 0
0 0 0
0 0 0
0 0 0
0 0 0
0 0 0
0 0 0
0 0 0
0 0 0
0 0 0
0 0 0
0 0 0
0 0 0
0 0 0
0 0 0
0 0 0
0 0 0
0 0 0
0 0 0
0 0 0
0 0 0
0 0 0
0.0502838 0.0430112 0.0651816
-0.161552 0.0197453 -0.00612464
0 0 0
-0.0108712 0.132676 -0.0735597
-0.139583 0.0104227 0.00239535
-0.0252302 0.0242303 0.00638599
0.207245 0.00927117 0.00537083
0.0962853 -0.236205 0.143868
0.249332 0.261737 -0.127515
-0.127765 0.248431 -0.00204869
0 0 0
-0.0194337 0.0574826 -0.000857375
0.0319956 -0.0458148 -0.00553082
-0.0380403 0.0302287 0.0090788
-0.00269992 0.19516 0.0143278
-0.173359 -0.207539 -0.114659
-0.0846756 0.137101 0.133254
-0.147386 0.128511 0.092796
0 0 0
0.231237 -0.0468968 0.0391867
0.332388 -0.169025 -0.0824737
0 0 0
0.0204227 0.142707 0.00443786
-0.0486415 -0.124026 -0.0647719
-0.118647 0.047678 0.0879748
-0.00679783 0.0683553 0.039725
0 0 0
-0.0433884 0.00838313 -0.0181886
0.268595 0.23039 0.134818
0 0 0
-0.108902 0.0405145 -0.0419382
0.0324058 0.227445 -0.0295111
-0.0548856 0.17852 0.0372796
-0.0307069 0.0509608 -0.0407949
0 0 0
-0.0246558 0.156409 -0.0188
0 0 0
0 0 0
0.073261 -0.0740258 -0.0353859
-0.0469909 -0.00615974 -1.23557e-05
-0.0207137 0.0422841 -0.00236207
-0.018039 -0.117214 0.0535924
0 0 0
-0.009662 -0.125577 -0.0490382
0.00881824 -0.24037 0.0436457
-0.00020457 0.0260526 -0.0320962
0.161756 -0.0226274 -0.0319084
0.00536894 0.00328353 0.00639872
0.0216636 0.0590078 -0.0218191
0.03758 0.0652775 -0.0293565
0 0 0
-0.177868 0.00992488 -0.0235716
0.0379074 -0.0472885 0.0808796
0 0 0
0.0215879 0.0152332 -0.00136704
0.0198926 -0.00809492 -0.0390217
0.0296472 -0.00458309 -0.0141601
-0.15622 -0.0223608 -0.0367866
0 0 0
0.0846581 0.0501933 0.018162
0.162596 0.0367224 0.00553131
0 0 0
0.0137732 -0.00170768 0.044985
-0.0173338 0.055461 -0.039068
0.292637 0.205546 -0.361733
0.192481 -0.0561117 0.215103
0.178775 -0.25715 -0.215207
0.00443997 -0.00336877 -0.000689322
0.0720057 -0.134413 0.0319393
0.00655753 0.0538164 -0.0212395
-0.0625141 0.0579802 0.42618
-0.00185073 0.0546445 -0.0348885
0.208393 -0.0476923 -0.0269658
0.00046425 -0.0320447 0.0117016
0.122385 -0.134746 -0.0880581
0.175349 -0.0630596 -0.0109949
0.081898 0.225072 0.0610167
-0.0263491 -0.0125777 -0.0627752
0.225599 -0.072977 0.143117
-0.109925 0.354459 0.193508
0.0541861 0.0466864 -0.141318
0.0820267 -0.0280321 -0.0484129
0.191219 0.0688537 0.0739874
0.159179 0.0290646 0.0288386
0.0116261 -0.467428 0.00435678
0 0 0
0.00302724 0.00872378 -0.136126
0 0 0
0.0402728 0.0145753 -0.0122721
0 0 0
0.0780592 -0.317942 0.0545735
0.186417 -0.15584 -0.0863711
0.0012345 0.048593 0.0475731
0.195215 -0.48321 -0.22147
0.155673 0.101863 0.0415907
0 0 0
0.0447076 0.0487196 0.0380135
0.292504 -0.317875 -0.281747
-0.117572 0.00298421 0.0834999
0.138067 -0.156633 0.0570196
0.451674 0.0288974 0.0362567
0.321398 -0.116916 0.0597617
0.111241 -0.061102 -0.115123
0 0 0
-0.186702 -0.0416583 0.053568
0.0742858 0.0717057 0.0919585
0.108558 0.0165591 0.0651408
-0.0493781 0.0208524 0.0241312
0 0 0
-0.00151557 0.251372 0.163474
-0.154518 -0.213454 0.0365604
0 0 0
-0.154946 -0.0592673 0.386854
-0.0559118 -0.0418695 0.097843
0 0 0
-0.0117352 -0.0219086 -0.299077
-0.100428 0.00036929 -0.027082
0.0017685 -0.312388 0.0347902
0 0 0
-0.123244 -0.530713 -0.256763
0 0 0
0.223592 -0.363793 0.29476
0.0384804 -0.0369792 0.117663
0 0 0
-0.0197077 -0.304224 0.352536
-0.163842 -0.00394489 -0.113337
-0.0723965 -0.234186 0.201178
0.119672 0.247285 -0.293353
0.110395 0.0590599 0.00888581
0.0105182 0.218959 0.147467
0 0 0
0.235663 -0.0771399 -0.219567
0.0212137 -0.293305 -0.259009
0 0 0
0.0937153 0.221315 -0.231133
0 0 0
-0.0490063 0.0129055 0.319423
-0.00358715 0.313956 -0.211411
0.0171602 0.193399 -0.279395
-0.0552786 -0.0305987 -0.0384182
-0.0518696 0.0107009 0.000427846
0.00304263 -0.014217 -0.00166482
-0.0663404 0.121048 -0.0762729
0 0 0
-0.081593 0.160018 0.0960486
0 0 0
-0.0113854 0.00424309 -0.0227733
0.0115497 0.0143275 -0.0031922
-0.00517307 -0.225848 -0.336929
-0.503003 0.222427 0.418209
0 0 0
-0.237077 -0.425311 0.686611
0 0 0
0.036036 -0.035875 0.0368323
0 0 0
0 0 0
-0.10217 0.14233 -0.266573
-0.0208838 -0.0385527 -0.0547984
-0.136019 -0.211732 0.268769
-0.00135723 0.0091724 0.0642181
-0.103022 -0.191116 -0.162982
0 0 0
-0.0498844 -0.000843607 -0.0256549
0.0294254 0.425861 0.0433946
0.00232275 0.0298181 0.0363677
-0.228645 0.0833736 -0.139414
0 0 0
0.0997898 -0.274133 -0.129958
0 0 0
-0.0102838 0.258446 -0.234013
0 0 0
-0.0595555 -0.012348 0.0698488
0 0 0
0.248331 0.0566919 -0.157223
0.283189 0.112889 0.252302
0.27595 -0.0510506 0.171822
0.137857 0.472328 -0.322577
-0.0478017 0.0193219 -0.0573419
0.0153625 0.0872586 -0.0495516
0.000396663 -0.0318813 0.0838338
0 0 0
0.0119168 -0.0400434 0.245314
-0.237169 -0.158963 0.104452
-0.000417938 -0.0105204 0.00360369
0.254785 -0.0874276 0.118406
0.0539851 0.150997 -0.0315901
0.299167 -0.463447 0.264248
-0.0265634 0.0528862 -0.0318631
0 0 0
-0.388282 0.0592928 -0.135357
0.000458062 0.0134785 -0.0178868
-0.0655459 0.0383572 0.0285791
0.134627 -0.109176 -0.241252
-0.00263002 -0.0999955 -0.0632347
-0.18077 0.190763 -0.0462144
0.0284514 0.0442596 -0.0320871
-0.203725 0.339089 -0.346005
0.00520231 -0.069466 0.302542
-0.150311 -0.0437097 -0.0949675
-0.111791 -0.0682675 -0.0111794
-0.0765482 0.0646128 0.164953
-0.191015 0.0403316 -0.377715
0 0 0
-0.0252385 0.0732046 -0.0119698
-0.132031 -0.220225 0.336951
0.189718 0.0403301 -0.00453067
-0.00165365 0.00629589 0.169717
-0.0359213 0.0738892 -0.15653
0.00282912 0.00715419 -0.0496172
0.328849 0.33592 -0.473217
-0.00883866 -0.00404723 7.57541e-05
-0.0590135 -0.229471 -0.00316279
0 0 0
-0.217524 -0.0436904 0.0112461
0.0856548 -0.0450499 -0.11739
0.0337144 -0.19613 0.0476171
0 0 0
-0.128103 0.171624 -0.105736
0.0120376 0.123412 -0.112902
0.0534227 -0.0119509 0.0237363
0.173726 0.0685468 -0.37697
0.0994001 -0.151423 0.292979
-0.277044 -0.167543 -0.0417983
0 0 0
0.15172 -0.0823143 -0.127939
0.0373279 0.239148 0.00109092
-0.10468 0.139877 -0.0231065
0.192813 -0.135701 -0.0473993
-0.180212 -0.00946759 -0.150824
0 0 0
-0.0268423 0.484249 0.0395907
0 0 0
0.4796 0.157202 0.00558399
0.100583 0.230895 0.049217
0.367238 -0.00622251 -0.0708771
-0.0013174 0.0408559 0.109464
0.248109 -0.140655 0.243425
0.0186241 -0.12549 0.0265624
-0.00823418 -0.141062 0.285488
0 0 0
-0.00148651 -0.0319607 0.0234522
-0.0172598 0.0312021 -0.188396
-0.0939786 -0.285726 -0.102693
-0.14431 0.102998 0.193978
0.000282379 -0.10024 0.0665033
0.171654 0.0775224 0.0383321
-0.00782883 0.237597 0.450783
0 0 0
0 0 0
-0.0430702 -0.0924528 -0.236456
0.170219 0.185913 -0.0677954
0 0 0
-0.0138439 0.230554 -0.0123572
0 0 0
-0.0603418 -0.624593 0.0737503
0 0 0
0.143193 -0.00173346 -0.0215523
0.382036 -0.495983 -0.249184
0.0226531 0.0386255 0.00261947
-0.0653666 -0.114982 0.148769
-0.0733699 -0.18082 -0.169856
-0.043142 0.318464 0.188053
0.16139 -0.0521742 0.0530171
-0.161134 -0.0714056 -0.0345996
0 0 0
-0.0425424 0.128618 0.145483
0.132161 0.039795 0.216651
0.199949 -0.067006 -0.143613
0 0 0
0.158788 0.00093189 0.343177
0 0 0
0 0 0
0 0 0
0 0 0
0 0 0
-0.021849 -0.217024 -0.232841
0.209915 0.129852 0.0428509
0.0207124 0.0540247 -0.0153594
-0.131474 0.209949 -0.124598
-0.155486 -0.0467609 0.0929209
0 0 0
-0.271284 0.00266106 0.0756647
-0.0856111 -0.141188 0.118381
0.396554 -0.0445154 -0.203901
-4.02072e-05 0.224745 0.0728551
0.253548 -0.162689 -0.327229
0 0 0
0.329243 -0.281639 -0.196436
-0.014131 0.0892895 -0.0279734
0 0 0
0 0 0
0 0 0
0 0 0
-0.182969 -0.467806 -0.0291484
0.0155512 -0.163326 -0.0985032
0 0 0
-0.374541 0.248698 -0.0871073
0.467071 0.078614 0.0456169
0.175306 0.08839 -0.24401
0.0991791 0.0153751 -0.0776344
-0.124241 0.101449 0.246636
-0.000703322 0.10478 0.121309
0 0 0
0.0614212 -0.0507839 0.179753
-0.136549 0.0251944 0.121583
0 0 0
0.0113784 -0.000549442 0.0706639
0.128629 0.0120478 -0.0914394
0.230371 0.111223 0.0875084
0.0435499 0.177682 -0.03186
-0.0091687 0.0584411 0.0273432
-0.000785128 0.0841969 -0.227745
-0.446409 0.147221 0.33284
0.0172044 -0.420842 0.125761
0.222473 -0.0784591 0.0247055
-0.137837 -0.370811 -0.297731
-0.137987 -0.0614123 0.0357349
-0.102322 0.384204 -0.00727673
0 0 0
0.152834 -0.0593867 -0.0526624
-0.0526612 0.149702 0.0264621
-0.218932 0.142062 -0.164207
0 0 0
0 0 0
-0.201349 0.0973 0.173121
-0.202928 -0.0770722 -0.133779
-0.0189573 0.205183 -0.187254
-0.230518 0.281281 0.16471
-0.0767883 0.12813 0.00358226
0 0 0
-0.0135836 -0.0627304 -0.1003
0.530025 -0.0419509 -0.0636842
0.0645082 0.0615164 -0.103862
-0.203807 0.5264 -0.828729
0.0213948 -0.19175 -0.0161222
0.0665188 0.0256537 -0.0867368
-0.144317 0.00440867 -0.0261382
-0.310081 -0.132546 -0.135037
0.0778096 0.128858 0.394976
0.0121578 -0.380352 -0.0654983
0.415329 -0.116498 0.0293986
0.210637 0.0496033 -0.202014
0 0 0
0.14568 -0.102722 0.180324
0.0839086 0.295316 0.130659
0.165939 -0.121162 0.265243
0.0517838 0.106469 -0.146122
-0.156234 -0.347681 0.296765
0 0 0
-0.108701 0.036272 0.0859296
-0.230903 0.138139 -0.042247
0.0667173 0.0246465 -0.0534317
0 0 0
-0.080766 -0.150055 -0.155451
0 0 0
0 0 0
-0.129079 0.0911087 0.00212963
0 0 0
-0.0307045 0.000764688 0.0548915
-0.0119644 0.0705988 -0.0196149
-0.0392655 -0.163739 -0.00191188
-0.0277402 -0.0436311 0.000193015
-0.145037 -0.42611 -0.0880337
0.203605 -0.106043 -0.201587
0.0182107 -0.00135736 -0.0316465
0.367466 0.216616 0.259404
0 0 0
0 0 0
-0.111313 -0.229615 -0.254129
0 0 0
-0.0424322 -0.569966 -0.302034
0.103489 -0.0941552 -0.0106116
-0.0584279 -0.101934 -0.00436988
0.00284586 0.00196257 -0.00250496
0.183242 0.0592347 0.165558
0.000879343 0.026317 0.0474823
0.0687534 0.437621 -0.378466
0.0445705 -0.031368 -0.0417366
-0.0541283 0.0131405 -0.0360975
-0.134427 -0.0696648 -0.259159
0.111329 0.191099 -0.0169853
-0.0365395 0.267627 -0.271852
0 0 0
0.183202 -0.017943 -0.203989
0.134384 -0.147786 -0.012653
0.0284156 0.194537 -0.0210446
0.0813434 0.209931 -0.0599698
-0.0104898 0.294664 0.062172
-0.00124116 0.0258149 0.15114
0.163842 -0.148422 -0.0578334
0.0185225 -0.145014 -0.215856
-0.000219606 0.0691391 -0.109425
0.176265 -0.00116436 -0.116304
0.330251 -0.06867 0.0175002
0.170684 -0.156933 -0.128331
0.0149013 -0.0030354 -0.0358869
-0.192117 -0.174552 0.169752
-0.0260885 -0.0463594 0.037589
0.146405 0.127921 -0.151202
-0.00281263 -0.0565182 -0.17936
0.00308694 -0.0463776 -0.0427326
-0.118739 0.00379449 -0.25597
0 0 0
0 0 0
0 0 0
0.0308208 0.126907 0.134664
-0.229195 0.153149 0.530137
0 0 0
-0.0075149 0.283505 -0.000788037
0.08427 -0.0503192 0.0397713
-0.206524 -0.0807888 -0.00982951
0.0549512 0.246374 -0.0445155
0.270737 0.0134466 0.146773
3.6662e-05 -0.117733 -0.177496
0.0666796 -0.0834954 -0.223773
0.0684012 -0.258559 -0.208855
0.100719 -0.0983598 -0.0655175
0.195309 -0.178616 -0.0793198
0.216148 0.197544 0.00677493
0.114828 -0.080862 -0.122305
0.0179094 -0.002746 0.000455982
-0.0474409 -0.0741515 0.0775385
-0.108871 -0.052824 -0.0425837
0 0 0
0.0958396 -0.375212 0.00221497
0 0 0
0 0 0
0.313666 0.446136 -0.121138
0 0 0
0.296498 0.314072 -0.103994
0 0 0
0.0445429 -0.153959 -0.127788
0 0 0
0.202577 0.135516 -0.0572345
0 0 0
-0.129753 -0.144525 0.0190539
0 0 0
-0.273008 0.108406 0.00552282
-0.217615 0.12631 -0.163475
-0.132932 0.0534745 0.232466
0 0 0
-0.36271 0.0206392 -0.312235
-0.145201 0.16601 0.069825
-0.391192 -0.126149 -0.0337848
-0.127025 -0.150174 0.0240165
0.0311896 -0.140507 -0.00273291
0.0905692 -0.553371 0.0131059
0 0 0
0.00251884 0.137837 -0.266543
0 0 0
-0.252644 0.223129 0.12467
-0.0884137 0.0571015 0.0109742
-0.135035 -0.323484 0.00218158
-0.0010282 -0.238788 0.0837164
-0.300662 0.151748 -0.219483
0 0 0
0 0 0
0 0 0
0 0 0
-0.0865883 0.0382969 -0.147319
-0.268216 0.102584 0.12744
-0.0714247 -0.318025 -0.244046
-0.0694063 0.0719581 0.000286217
0.0424362 -0.172755 -0.157043
0.000146116 0.00379651 0.0644249
-0.19055 0.0332717 -0.0183095
-0.258661 0.0124777 -0.257353
-0.105122 0.032603 0.189264
0 0 0
-0.0183262 0.309702 -0.00175373
-0.126721 0.118659 -0.189489
-0.080718 -0.13132 -0.101248
0 0 0
-0.152862 -0.195818 -0.317777
0 0 0
-0.236095 0.0972595 0.000649235
0 0 0
0 0 0
0.0529059 -0.0594645 -0.267174
0.345203 -0.1423 -0.249599
-0.0125713 0.00774449 -0.0155072
-0.0029904 -0.0324675 -0.00911332
-0.123785 0.18593 -0.0578028
0 0 0
-0.294906 -0.336494 -0.228306
0 0 0
-0.0403865 -0.218714 -0.143473
0.00103355 0.18428 0.172322
0 0 0
0 0 0
-0.34807 -0.351246 -0.523067
0 0 0
-0.178089 -0.0922024 0.0941025
0 0 0
-0.119057 0.292231 0.295715
-0.0351408 0.00121906 -0.00131971
-0.274613 -0.0686914 -0.538058
0 0 0
-0.0940425 -0.105314 0.0731133
0 0 0
-0.337856 0.0325217 -0.0650879
-0.0172301 0.0433951 -0.0872554
-0.268622 0.0209118 -0.026708
-0.000738881 0.023396 -0.115402
-0.371098 -0.0738987 -0.110281
-0.163972 -0.0753074 -0.0455007
-0.0899264 -0.0244976 0.0718081
-0.279738 -0.0169806 0.104178
0.0336143 0.078146 -0.0477001
0.228537 0.0345311 -0.111593
0.083096 0.0459088 -0.0679292
0.0769901 0.0181417 0.0631524
-0.0706764 0.000816139 -0.0337405
-0.100736 -0.0820267 0.0329579
-0.0627233 0.215975 -0.034749
0.0375833 0.0200778 0.0189562
0.135632 0.0942807 -0.247238
-0.00460502 -0.107543 -0.102506
-0.0413054 0.397775 -0.0395701
0.0010897 -0.201126 -0.0446373
-0.0860256 -0.0565108 -0.131598
0 0 0
0.0464282 0.0145153 0.0443598
0 0 0
0.114182 -0.650898 0.639249
0 0 0
-0.174944 -0.0305048 0.34163
-0.0327989 0.0605894 0.0192093
-0.187237 -0.0105166 -0.347211
0 0 0
-0.108884 -0.131231 0.0827292
0 0 0
0.0647357 0.0213538 -0.237343
0 0 0
0.0357532 -0.0418073 -0.000370861
0.0140817 0.0167703 -0.040964
0 0 0
0.087463 -0.249531 0.00185392
0.142664 0.0910181 0.270224
0.00680351 0.0499115 0.0444043
0.200934 0.134866 0.366066
0 0 0
-0.408835 -0.0401644 0.0886007
-0.22788 -0.112024 0.169232
-0.020031 -0.222048 0.045426
0 0 0
0.0522744 0.0767493 0.0887737
0 0 0
0 0 0
-0.059953 0.292782 -0.184282
0.0230705 0.0160763 0.205327
0 0 0
-0.00790332 -0.0437202 -0.266204
0.0517109 0.208038 0.155264
0 0 0
-0.0620854 -0.0234329 0.0245514
-0.123294 -0.173215 -0.489888
0.139294 0.10601 0.00100963
0.142997 -0.00409666 0.0672162
0.0408243 -0.0293551 0.116279
0.154599 -0.0440657 0.00123435
0 0 0
-0.124232 0.0691622 -0.132462
0.0115888 0.0206412 0.00431363
8.50902e-05 -0.0956108 -0.0510852
0.348937 0.276331 0.0420276
0.000968602 -0.194836 0.0441776
0.270062 0.152039 -0.178044
0 0 0
0.0770618 0.084519 -0.081119
-0.28358 0.11143 0.276401
0 0 0
-0.00495032 -0.0193045 0.0856171
0 0 0
0.101936 -0.00122507 -0.00847601
-0.14834 0.196967 -0.133027
-0.380918 -0.463459 0.217102
-0.000128277 0.0240396 0.0362691
0 0 0
0.198387 -0.361996 -0.185823
0.110583 0.00827277 0.120647
-0.0334275 -0.155811 -0.0362482
0.138735 -0.00227361 -0.00168909
0 0 0
0 0 0
-0.030326 0.00140699 -0.0151039
0.16585 0.0903978 0.523205
0 0 0
0.006363 0.144985 0.527283
0 0 0
0.00024696 -0.160424 0.111282
-0.0526157 0.372869 0.00151045
0 0 0
0.300327 -0.112606 -0.115761
-0.00476671 -0.258694 0.0527214
0.0971696 0.0843173 -0.211168
0.143019 0.139511 -0.088585
0.388341 0.020137 -0.144036
-0.116698 0.320981 0.0586804
0 0 0
-0.0700552 0.0256736 0.00514249
0.169416 -0.00253062 -0.213133
-0.277793 0.0185938 -0.13357
-0.500394 0.195139 -0.103647
-0.168444 0.170582 -0.162502
-0.0549046 0.130915 -0.122044
0 0 0
0 0 0
-0.0295863 -0.0115323 -0.0406855
-0.158866 -0.165217 -0.212415
0.13361 -0.150303 0.0974112
0.243211 -0.110596 0.272647
0.0368459 0.0859605 0.259235
0.0157681 0.0821792 0.0428521
0.0781818 -0.122937 0.344407
0 0 0
-0.0638523 0.00180754 0.287403
0.0480304 -0.0359206 -0.0162831
-0.145952 0.035271 0.0130243
0.17897 -0.0673512 -0.165488
0 0 0
0.0223978 -0.399972 -0.0765336
0.0364527 0.146686 -0.211363
0.0463406 0.0262284 -0.00456001
0 0 0
0 0 0
0.216429 -0.0957983 -0.00280116
0.00212688 0.505957 -0.253188
0.382359 0.0153079 0.022357
-0.0854786 -0.116723 -0.194574
0.0649774 0.263322 0.13659
-0.13263 0.0737305 0.268262
-0.109039 -0.0207783 0.0326152
0 0 0
-0.257063 -0.00476021 -0.0841695
-0.000888504 -0.0287255 -0.00460939
-0.138619 0.253555 -0.0271476
-0.0543591 0.0129375 -0.00928963
0 0 0
-0.0980914 0.114694 0.259375
0.0452994 -0.0369974 -0.00288668
-0.258768 0.0146928 0.134216
-0.182534 -0.0957222 0.192985
0.0767763 -0.268374 -0.0221492
0 0 0
0.420182 -0.394976 0.127788
0.285589 0.130486 0.0779426
0.460297 -0.204386 0.121686
0.377429 0.12078 -0.165256
0.361972 0.133697 -0.149943
0.383006 -0.153439 -0.117727
0.0497914 -0.0349027 0.00715617
-0.0905641 -0.133899 -0.0405422
-0.414838 -0.507021 -0.45554
-0.0260931 0.0242804 0.0387649
-0.302464 0.130823 0.195343
0 0 0
0.102475 0.589849 0.248483
0 0 0
-0.105655 0.323362 0.0311515
0.0695723 0.0317651 0.0207889
0.189136 -0.121032 0.0774352
0 0 0
0.0382698 -0.014891 0.0709845
0 0 0
0.22385 -0.200271 0.184368
0 0 0
0.100093 -0.541644 -0.320052
0 0 0
-0.0373658 0.0798747 0.17783
0.0202734 -0.0758948 0.00125221
0 0 0
-0.000400373 0.00740814 -0.0581195
-0.0645631 -0.131211 -0.0991145
0 0 0
0.00518073 0.0151739 0.014926
0.0234989 -0.167459 -0.336062
0 0 0
0.192642 -0.31775 -0.210375
0.0331946 -0.0311782 -0.04734
0.16902 0.245289 0.461135
0 0 0
-0.0645056 0.254691 0.253458
0 0 0
0.0691655 -0.28213 -0.144283
-0.0984284 0.0699121 0.117163
-0.499102 0.067171 0.33107
0 0 0
-0.0618801 -0.208533 0.123831
-0.0172826 -0.0331871 0.198845
0 0 0
-0.0404318 0.0314542 0.000176701
0.073891 0.144107 -0.000603209
0 0 0
0.0978572 0.141632 0.182972
0.205026 0.140121 0.0675224
-0.00975232 -0.10941 0.00711781
-0.0168113 -0.324906 -0.00536548
0 0 0
0.143699 0.0787451 -0.207877
-0.0361564 0.19619 -0.105272
0.184909 0.206471 -0.103675
0.102871 -0.134431 0.0730418
0.140216 0.0681191 0.443628
0 0 0
0.00545463 -0.141773 -0.295704
0 0 0
-0.235303 -0.0213204 0.175707
0 0 0
-0.0184322 -0.00138136 -0.0581428
0.0586149 -0.0474735 -0.063868
-0.0346577 0.0149745 -0.0454694
0.0308381 -0.00585825 -0.0875668
0 0 0
0.156158 0.0851515 -0.0628264
-0.116241 -0.0566496 -0.0480505
0 0 0
0.260371 0.140688 0.25426
0.132129 0.0374837 0.177267
0.556212 -0.0100276 0.0486272
0.00650998 0.00330803 0.0061517
0 0 0
0.13293 -0.0152005 0.0787734
0.186807 -0.214167 -0.126911
0.257487 0.064956 0.133752
0.00144671 0.0344368 0.00314685
0.0292157 0.173631 -0.052808
-0.0668791 0.103519 0.285075
0.0169556 -0.00171182 0.00562025
0.102797 -0.0443555 0.126155
-0.149592 -0.00991199 0.0162995
-0.0399149 -0.0992731 -0.118446
-0.182456 0.234226 0.0657162
0.0489679 0.14584 0.173033
-0.0664645 -0.00924024 0.000379675
-0.0131321 0.00795719 0.00897253
-0.16998 0.137841 -0.262954
-0.179155 -0.165786 0.14976
-0.0607273 0.138948 0.0482972
-0.299743 -0.255057 -0.0768101
-0.00252529 0.135598 0.0309192
0.0342828 -0.113312 -0.034486
0 0 0
-0.0697014 0.00790041 -0.0631438
0.000443063 -0.000257843 0.0121213
-0.0610002 0.263456 0.403799
0 0 0
0.0548212 -0.48988 -0.00591069
0.00741082 -0.0572389 -0.0510174
0 0 0
0.0802459 0.0671433 0.0586493
-0.0979547 -0.0193962 0.215253
0.0578872 0.0754657 0.0153815
-0.117677 -0.125547 -0.00184357
0 0 0
0.225603 -0.124657 -0.261242
-0.0866652 0.0684643 -0.0191507
0.0735293 0.174449 0.103573
0.015195 -0.0062378 0.0046572
0.0723514 0.150967 0.199442
0 0 0
0.024105 0.0053688 0.000268697
0.17663 -0.00901009 0.0680832
-0.102646 -0.0572986 -0.0202676
-0.157444 -0.200819 -0.0770259
-0.0653352 -0.0706933 0.179471
-0.0746497 -0.425662 -0.123123
0.0282376 -0.0517239 0.0594818
0 0 0
0 0 0
0 0 0
-0.417462 -0.0985212 0.0559497
0 0 0
0.021129 -0.296539 0.0446533
0 0 0
0 0 0
0.222333 0.0572479 -0.105675
0.000196533 -0.0462433 0.0263645
0 0 0
-0.0549513 -0.233278 -0.133556
0.1836 -0.0358299 0.00394832
0.0467669 -0.00317584 0.0749909
0 0 0
-0.215203 0.114903 0.0487152
0.00593877 0.526478 0.0882716
-0.144974 -0.159366 -0.334526
-0.0559849 0.436348 0.0835729
-0.128581 -0.0801011 -0.100767
-0.424744 0.0821234 -0.104266
-0.00371738 -0.355935 0.19054
-0.0852636 -0.350069 0.151172
-0.00121613 0.00629076 0.259827
-0.128595 -0.317041 0.189479
-0.0783895 -0.0919207 -0.161354
-0.521326 0.241752 -0.152736
-0.241311 0.204811 0.0338519
0 0 0
0.109402 -0.0773785 0.0974653
0 0 0
0 0 0
0.0544331 -0.133953 0.263815
-0.287798 -0.0595035 0.00175561
0.142697 -0.501283 -0.26051
-0.184273 -0.301415 -0.055116
-0.087195 0.0546497 -0.0131337
-0.293813 -0.214312 -0.266131
-0.111556 0.00456479 -0.240243
0.151979 -0.00431389 0.0302289
0.231922 -0.312778 -0.0687354
0 0 0
0.18384 -0.116286 -0.0109565
0.0454229 0.0362043 -0.439354
0.338875 -0.0335945 -0.165546
0.151716 -0.0237915 -0.104451
0.00252181 0.00433989 -0.000329774
0.0956247 -0.00198445 -0.0281567
-0.0289291 0.0788392 -0.0273404
-0.0831211 0.158652 0.267419
-0.167646 -0.195457 -0.269705
-0.105646 -0.0406432 -0.193855
0.00219478 -0.0153963 -0.0101484
-0.115358 -0.00377434 -0.0920586
0.121687 -0.285303 -0.205466
-0.163093 -0.0226237 0.147816
0.0838988 -0.00165149 -0.0632201
-0.30442 0.109207 -0.202197
-0.293899 0.111451 0.0335289
-0.122911 -0.110394 -0.000203344
0.0026591 -0.369751 -0.0302329
0 0 0
0.039465 0.0737779 0.272772
-0.0497323 -0.0386113 -0.000128027
0.0625642 0.0323356 0.111319
0 0 0
0.0743999 -0.0540144 -0.0788658
0 0 0
-0.172013 -0.369664 -0.264479
0 0 0
-0.333786 0.215476 -0.0421765
0 0 0
0.0609878 -0.0238979 -0.00259996
0 0 0
-0.193403 -0.0878141 -0.334013
0 0 0
0 0 0
-0.0437181 -0.0748243 0.0465381
0 0 0
-0.016664 -0.235516 -0.301786
0 0 0
-0.395202 0.168838 0.249493
-0.0567626 0.0210308 0.0475892
0.152016 -0.0521502 0.145126
3.1512e-05 -0.115461 0.106895
0.368316 -0.0315094 -0.0706465
0 0 0
0.038034 0.0616008 0.000982782
-0.133089 -0.0643801 -0.0311804
0 0 0
0.107315 0.0845761 0.0421536
-0.0933999 -0.10589 -0.0289746
0.129322 -0.96898 0.0344531
0 0 0
-0.0533245 -0.0530509 0.0684704
0 0 0
-0.322531 0.202065 0.257519
-0.122345 -0.103327 0.221066
-0.263007 -0.0849505 0.0830365
-9.2503e-05 -0.0173795 -0.100999
-0.103914 0.0584121 -0.144602
0.234747 -0.0325183 0.0604547
0 0 0
-0.125499 0.387176 -0.106511
-0.193879 0.202567 -0.0923014
0.0774346 0.104594 0.00245641
0 0 0
0 0 0
0.125533 0.0313669 0.00589873
0.164648 0.252742 -0.169487
-0.0631804 -0.0284152 -0.0269677
-0.0448156 -0.0477879 0.080085
0 0 0
0.0518323 0.259247 0.0508932
-0.0429822 -0.0764704 0.000931277
0 0 0
-0.148691 0.0669897 0.16986
0.240206 -0.534686 0.2104
-0.155042 -0.0643025 -0.0216925
-0.0965259 -0.0533286 0.0287084
-0.0791633 0.53001 0.374115
0.235661 -0.0420208 -0.000725324
0 0 0
-0.0311081 -0.325608 0.110879
-0.0140699 0.00325561 0.0108792
0 0 0
0.148727 0.136119 0.0297605
0 0 0
-0.0258067 -0.0344312 -0.0379384
0 0 0
0 0 0
-0.217444 0.134295 -0.202649
-0.0258828 0.0383712 0.0918112
-0.0860733 0.117014 0.110031
0 0 0
-0.098386 0.524472 0.22057
-0.222391 0.0269658 0.0553397
-0.0300792 0.0263632 -0.000340935
-0.258856 0.0204714 -0.0188475
-0.224726 0.212135 0.0885691
0 0 0
0 0 0
-0.31869 -0.324087 -0.253331
0.0048343 -0.0871852 0.0871774
-0.0715632 -0.0645574 0.000244031
-0.045794 -0.0807722 0.0397998
0 0 0
0.269985 0.184576 -0.0666397
0 0 0
0.0424828 -0.318259 0.416009
0 0 0
-0.00669364 0.0724077 -0.0911701
0.000642437 -0.138829 -0.0351949
-0.168323 -0.0502222 0.00451452
-0.319492 -0.287722 -0.266694
0 0 0
0.264158 -0.0985729 -0.0303656
0 0 0
0 0 0
-0.212686 0.0496945 0.0456537
0.00027404 0.00673107 0.0184444
-0.104778 -0.062495 0.503808
0.0863852 0.106662 0.0456104
-0.300779 0.0316996 0.15416
0.00261618 0.114111 0.0342612
0.0673323 -0.262659 0.0172476
0.0401081 -0.0197818 -0.0163352
0 0 0
-0.229924 -0.0265725 0.149353
-0.525624 -0.123201 -0.134052
-0.372603 0.213992 -0.296327
-0.00559264 -0.00797937 -0.0237935
-0.181621 0.0689432 0.0137079
-0.0938136 -0.0213266 -0.0530205
-0.0726241 0.119552 0.054071
0.00241688 -0.00343226 0.00360292
-0.100024 -0.00933122 0.0842555
-0.00715658 -0.0696961 -0.232383
-0.0811997 -0.0882228 -0.0564617
-0.162845 -0.0721325 -0.00310358
-0.376463 -0.0834593 0.00978546
-0.264019 0.103651 0.151527
-0.45231 -0.144593 -0.37452
-0.0320584 -0.0695553 -0.175694
0 0 0
-0.0383542 0.0123682 -0.149563
-0.00403059 -0.0310601 0.0913298
-0.0616857 0.0163034 -0.0013576
-0.0395157 -0.232102 -0.199689
-0.143587 0.501592 0.101199
-0.220186 0.193092 -0.0255816
-0.454154 -0.0625781 -0.175026
0 0 0
0 0 0
0 0 0
0 0 0
0 0 0
0 0 0
0 0 0
0 0 0
0 0 0
0 0 0
0 0 0
0 0 0
0 0 0
0 0 0
0 0 0
0 0 0
0 0 0
0 0 0
0 0 0
0 0 0
0 0 0
0 0 0
0 0 0
0 0 0
0 0 0
0 0 0
0 0 0
0 0 0
0 0 0
0 0 0
0 0 0
0 0 0
0 0 0
0 0 0
0 0 0
0 0 0
0 0 0
0 0 0
0 0 0
0 0 0
0 0 0
0 0 0
0 0 0
0 0 0
0 0 0
0 0 0
0 0 0
0 0 0
0 0 0
0 0 0
0 0 0
0 0 0
0 0 0
0 0 0
0 0 0
0 0 0
0 0 0
0 0 0
0 0 0
0 0 0
0 0 0
0 0 0
0 0 0
0 0 0
0.0594496 -0.120613 -0.0774446
0.0353738 -0.0666265 0.0575466
0 0 0
0.00614031 0.156946 -0.3184
0.0314454 0.018981 -0.126056
0.00106938 -0.112781 0.147156
0.244051 -0.0193593 0.0134368
-0.0327727 -0.0136139 0.017284
0.00373439 0.10259 0.00144678
0.116349 -0.0270127 0.123044
0 0 0
0.0104229 0.0268097 0.0219792
-0.105849 0.00511664 0.0214319
0.00179263 0.0504621 0.0263116
-0.14312 -0.030813 0.0199263
0.0300603 -0.114425 0.0432105
0.0498353 0.0294167 0.1579
-0.0458833 0.0695012 -0.0859132
0 0 0
-0.0561892 -0.0274634 0.251513
-0.0694768 -0.0709378 -0.0786975
-0.00577899 -0.0289219 0.03946
0.145148 0.10244 0.094331
-0.00155009 0.0228264 -0.029123
-0.0290055 -0.0158835 -0.00882495
-0.106984 0.0407136 -0.140575
0 0 0
-0.157917 -0.0241356 -0.0598197
-0.0180689 -0.00658136 0.0478023
0.0817127 0.0756071 -0.00828539
-0.00319012 -0.0849365 0.0707248
0.0163632 0.0814678 -0.00862201
0.0398888 -0.0137344 0.0735549
0.0199618 -0.0259029 0.0872983
0 0 0
-0.0678163 -0.0048612 0.216591
0.0333851 -0.0772713 -0.120942
-0.00300403 0.011404 0.0954424
-0.164758 0.00697426 -0.0049558
0.0450085 -6.784e-05 -0.0190423
-0.0102817 -0.0562101 0.0401058
-0.0858957 -0.00540807 0.000295226
0 0 0
0.00623507 0.0172777 -0.00459313
-0.0687896 0.0557562 0.0928735
0 0 0
0.020423 0.0582832 -0.00107879
-0.00474449 -0.0130473 0.0188544
-0.0233378 0.0139821 -0.129353
-0.0269121 0.00922748 0.047088
0 0 0
0.102108 0.00150755 -0.181235
0.0221231 0.0269036 0.0835131
0 0 0
0.0532367 0.0201252 0.0521313
0.0213379 0.0362242 0.0374213
0.0413152 -0.0282633 -0.0536391
0.0562771 -0.00106338 -0.00547336
-0.00195822 -0.059929 0.0782042
-0.0929887 -0.0308363 -0.0144774
0.0108623 0.00200659 0.00152511
-0.0022269 0.022612 -0.00287419
0.0537959 0.0483188 0.0271151
0.0216097 -0.00162114 0.0547142
0.219646 0.244324 0.189557
0 0 0
0.166434 0.148268 -0.228866
0.0345384 0.0137613 0.229368
0.187516 0.098911 0.0483834
0 0 0
0.101522 0.0497243 0.480022
0 0 0
-0.160287 -0.0075448 0.202768
0 0 0
0.0800525 -0.0404746 -0.140498
0.062754 -0.00596868 0.0650246
0.0293703 0.310549 -0.0450152
0 0 0
-0.107271 0.1209 0.116853
-0.00849945 -0.0388948 0.064605
-0.00595144 -0.0405525 -0.047878
0.234606 0.294514 0.0706561
-0.103101 -0.144955 0.0684111
-0.207453 0.256117 0.183411
0.402209 -0.62816 0.114902
0 0 0
-0.0112453 -0.181477 -0.179311
0 0 0
-0.211994 -0.107726 -0.207037
-0.0801299 0.0302905 0.231799
-0.159196 -0.0121779 0.178046
0 0 0
0.0366198 -0.133904 0.200139
0 0 0
0.18981 -0.351945 0.16839
0.12023 0.162176 -0.101612
0.331694 0.000101493 -0.166236
0 0 0
0.00327829 0.00522468 -0.00514754
0 0 0
0 0 0
-0.229571 0.223837 0.16399
0.0355806 0.317643 -0.168721
0.0688245 -0.222486 0.161007
0.118572 -0.0510108 -0.192354
0.209166 0.0818258 0.328178
0.119944 -0.059974 0.00355644
-0.202871 0.602085 0.249974
0 0 0
-0.0112577 0.141073 0.0806136
-0.185147 0.159768 0.0496741
-0.521354 0.513849 -0.101141
-0.0153798 -0.0609339 -0.00019901
-0.162454 -0.161246 0.147119
-0.00301538 -0.0887669 -0.150611
-0.0501991 -0.0550666 -0.148967
-0.0384978 0.0571575 -0.0142277
0 0 0
0 0 0
-0.0200424 -0.0613451 -0.0017161
0 0 0
-0.0474529 -0.223653 0.00568039
0.101435 -0.0738479 -0.000295156
0 0 0
-0.0938155 -0.135681 -0.00183868
-0.0206041 0.03468 0.0681275
0.0176732 -0.0368236 -0.102687
0.103137 0.00275316 0.0955975
0.00152767 -0.0262441 -0.028274
0.142249 0.0573026 0.0424985
0.210092 0.0846953 0.0810587
0.240926 0.166891 0.0692351
0.106141 0.17444 -0.131822
0.0452112 0.200069 0.039007
0.110965 0.151125 -0.11722
0.191333 -0.192947 0.095476
0 0 0
0.185633 0.0756478 -0.091804
-0.0482158 0.148941 -0.0579044
0.000269365 0.000386164 0.0020762
-0.0724554 0.148609 0.159481
0.0131484 -0.168517 0.0498597
0 0 0
0 0 0
0.0856055 0.0546071 0.0818457
0.0154555 -0.0403981 -0.0610907
-0.00174931 0.289224 0.0587603
-0.279586 -0.22707 0.134125
0 0 0
-0.0831767 -0.153857 0.186082
0.0288838 -0.017763 -0.0762974
0.0915588 -0.196374 0.00240433
0 0 0
0 0 0
0.00233514 0.0802696 0.0367568
-0.115985 -0.355026 0.180181
0 0 0
0 0 0
0.0255936 0.11499 0.0614343
0.19831 -0.255727 -0.0846304
0.00322646 -0.008157 0.000943507
-0.0512106 -0.299584 -0.155952
-0.00086816 0.0171165 -0.0965336
-0.419162 0.160483 0.0415904
0 0 0
0 0 0
0 0 0
0.0491211 -0.239459 -0.109711
0.00267824 -0.138764 -0.0357324
-0.0481718 -0.184266 -0.185342
0 0 0