<?xml version="1.0"?>
<VTKFile type="RectilinearGrid">
<RectilinearGrid WholeExtent="0 32 0 32 0 32" Origin="0 0 0" Spacing="1 1 1">
<Piece Extent="0 32 0 32 0 32">
<PointData>
</PointData>
<Coordinates>
<DataArray type="Float32" format="ascii">
0 0.524874 1.04975 1.57462 2.0995 2.62437 3.14924 3.67412 4.19899 4.72386 5.24874 5.77361 6.29849 6.82336 7.34823 7.87311 8.39798 8.92285 9.44773 9.9726 10.4975 11.0224 11.5472 12.0721 12.597 13.1218 13.6467 14.1716 14.6965 15.2213 15.7462 16.2711 16.796 
</DataArray>
<DataArray type="Float32" format="ascii">
-5.03879 -3.62163 -2.20447 -0.787311 0.629849 2.04701 3.46417 4.88133 6.29849 7.71565 9.1328 10.55 11.9671 13.3843 14.8014 16.2186 17.6358 19.0529 20.4701 21.8872 23.3044 24.7216 26.1387 27.5559 28.973 30.3902 31.8074 33.2245 34.6417 36.0588 37.476 38.8931 40.3103 
</DataArray>
<DataArray type="Float32" format="ascii">
0 0.524874 1.04975 1.57462 2.0995 2.62437 3.14924 3.67412 4.19899 4.72386 5.24874 5.77361 6.29849 6.82336 7.34823 7.87311 8.39798 8.92285 9.44773 9.9726 10.4975 11.0224 11.5472 12.0721 12.597 13.1218 13.6467 14.1716 14.6965 15.2213 15.7462 16.2711 16.796 
</DataArray>
</Coordinates>
<CellData>
<DataArray type="Float32" Name="Vector" NumberOfComponents="3" format="ascii">
0 0 0
0 0 0
0 0 0
0 0 0
0 0 0
0 0 0
0 0 0
0 0 0
0 0 0
0 0 0
0 0 0
0 0 0
0 0 0
0 0 0
0 0 0
0 0 0
0 0 0
0 0 0
0 0 0
0 0 0
0 0 0
0 0 0
0 0 0
0 0 0
0 0 0
0 0 0
0 0 0
0 0 0
0 0 0
0 0 0
0 0 0
0 0 0
0 0 0
0 0 0
0 0 0
0 0 0
0 0 0
0 0 0
0 0 0
0 0 0
0 0 0
0 0 0
0 0 0
0 0 0
0 0 0
0 0 0
0 0 0
0 0 0
0 0 0
0 0 0
0 0 0
0 0 0
0 0 0
0 0 0
0 0 0
0 0 0
0 0 0
0 0 0
0 0 0
0 0 0
0 0 0
0 0 0
0 0 0
0 0 0
-0.0452682 -0.0262187 0.0521593
0.036457 0.0449894 -0.0212065
0 0 0
-0.148406 0.0827532 0.0431081
0.427011 -0.0262973 -0.0919162
0.0159473 0.0113154 -0.0428817
0.00147459 0.209967 -0.0321141
-0.12024 0.0231812 -0.0747858
-0.0959375 -0.0326781 0.0869228
0.146761 0.0517568 -0.01402
0 0 0
0.00300954 0.0683315 -0.0867991
0.0104211 0.0275248 0.0702362
0 0 0
0.157202 -0.194178 -0.0574656
-0.0269462 -0.0572013 -0.00811234
-0.077168 0.0895314 0.0587707
-0.087127 0.273636 0.138663
0 0 0
-0.0523123 -0.121536 -0.0936307
0.0583728 0.0273032 -0.0413112
0 0 0
0.120659 0.233299 0.00489886
0.0449423 0.0331981 0.01207
0.040065 0.0139767 -0.0119675
-0.125335 -0.179194 0.0463303
0 0 0
0.388609 0.0313752 0.00763244
-0.0348974 0.166543 -0.00404335
0 0 0
-0.054633 -0.251857 -0.163357
-0.0140006 0.142648 0.041565
-0.163137 -0.078873 0.2162
-0.0189895 -0.0218937 0.0095421
0 0 0
-0.20978 -0.0710203 -0.0135751
0.0145146 -0.0609479 0.0545118
0 0 0
0.212876 0.0290363 0.0225564
-0.0725182 0.0479278 0.106494
-0.0482936 0.014404 0.0558575
-0.0929172 -0.160236 0.0660566
0 0 0
-0.00866035 -0.029976 0.0708705
0.100814 -0.27183 -0.0145709
0 0 0
0.017501 -0.0253432 0.0482736
-0.110159 -0.0452916 -0.0972516
-0.12901 0.241698 0.0947688
0.0431095 0.157515 -0.0973193
0 0 0
0.057272 0.145677 0.00955452
-0.0301277 0.00117222 0.0316514
0 0 0
0.23074 -0.0611029 -0.000305962
0.121589 0.064552 -0.0034192
0 0 0
0.363089 0.150284 0.00986998
0 0 0
-0.0278977 0.010415 0.0132927
-0.1925 0.503972 0.00412228
0 0 0
0.00191392 -0.0260318 0.131787
-0.14717 -0.0134711 -0.267934
0 0 0
0.167232 -0.0384211 0.100575
0.0716335 -0.126312 0.00288889
0 0 0
-0.0659724 -0.0730138 0.00487639
-0.111938 0.0239456 -0.0863558
-0.0119729 -0.184251 -0.000852512
-0.164207 -0.0523438 -0.11392
-0.0116983 0.00275135 0.156938
-0.37701 -0.229763 -0.0618596
-0.151313 0.0856418 -0.187894
-0.0578558 0.198665 -0.113629
0 0 0
0.330575 0.273396 0.275673
0.0893337 -0.0467334 0.000220283
0 0 0
-0.00144707 0.000909963 -0.000990235
0.172888 0.10843 0.00189369
0.111874 0.011251 0.0072327
-0.0586687 -0.0403771 0.0377299
-0.027913 -0.100406 -0.144338
-0.0157408 -0.0753406 0.0189533
-0.161299 0.0379942 0.226874
0 0 0
0.34389 0.0839326 -0.214934
0 0 0
-0.0372566 0.0717722 0.0382672
-0.026603 0.127473 0.109158
-0.054226 -0.197264 -0.0503266
0 0 0
0.20102 -0.148638 -0.286484
0 0 0
-0.00697495 0.207631 0.0205508
0.191392 -0.32625 0.0214843
0 0 0
-0.0696193 -0.000716415 -0.000813484
-0.218767 -0.0674956 -0.176489
-0.019519 0.00585869 0.35867
-0.281196 -0.117266 -0.24669
-0.141621 -0.201456 0.00172911
-0.15072 0.0386033 0.352605
-0.384073 -0.463591 0.404554
0 0 0
-0.122937 -0.0981488 -0.0137651
0 0 0
0.0755668 -0.159269 -0.115005
0.531598 -0.308799 -0.00344804
0 0 0
-0.00912996 -0.0034684 0.00224019
0.161488 -0.295067 0.219038
0 0 0
0.0399698 0.520996 -0.379206
0 0 0
0.123116 0.891254 -0.29448
0 0 0
0.357004 -0.0598313 -0.0570186
0 0 0
0.0214377 -0.224498 0.301232
0 0 0
0.0358076 -0.516609 -0.376357
0 0 0
0.151911 -0.100078 0.216254
-0.131475 0.00405854 0.107912
0 0 0
0.000855473 -0.0603955 0.0535762
-0.0136097 -0.0586034 -0.130369
0 0 0
-0.195496 -0.491419 -0.0194364
-0.220924 0.0464147 -0.00124459
-0.193046 -0.266668 -0.251522
-0.314259 0.0323123 0.198
0 0 0
0.128314 -0.13912 5.25773e-05
0.192132 -0.464339 0.342014
0.0475866 -0.433632 -0.314924
-0.0191975 0.0189743 0.00382956
0.0771471 -0.298225 0.198018
0 0 0
0.127237 -0.0191067 -0.00261632
0 0 0
-0.198778 0.329318 0.290872
0 0 0
0.04933 0.0421517 0.00362596
-0.144837 0.257033 0.28052
0 0 0
0 0 0
0.0894011 0.0754318 0.0820414
0 0 0
-0.0147798 -0.548271 0.177218
-0.0173127 0.0479987 0.18166
0 0 0
0.117579 -0.3723 -0.0958696
-0.313739 -0.0438586 0.45155
-0.0763108 -0.006539 -0.246661
0 0 0
0.0390685 -0.0101459 0.0194767
0.161131 0.190441 -0.453309
0.168476 -0.19055 0.125713
0.296862 -0.113755 -0.166706
0.468648 -0.0575286 0.0604856
0.033729 -0.0927332 -0.187168
0 0 0
-0.204981 -0.00257508 -0.341421
0 0 0
0.000896232 -0.000545791 0.191282
0.0396468 -0.0513809 -0.0560969
0.064767 -0.270444 -0.0227473
0 0 0
-0.0983418 0.0359531 0.0444036
0 0 0
0.0150764 0.0402578 0.0214578
-0.0683851 -0.135096 0.0114921
-0.0142257 0.00116863 -0.00779521
0.262069 -0.391938 -0.257509
0 0 0
0.165555 0.358154 -0.213745
0 0 0
0.453597 -0.267962 0.0550716
0.156677 0.198742 0.132251
0.113222 0.109109 -0.0370412
-0.0297454 -0.0432183 0.0255135
0.24161 -0.0172003 0.0180881
0.021971 0.0599328 -0.126983
-0.0162245 0.0421253 0.0466549
0 0 0
0.00224938 0.0861856 0.0908582
0.207618 0.427783 -0.524231
-0.00333979 -0.0361131 -0.134081
-0.0396834 0.136916 -0.00999379
0.115089 -0.018422 -0.129912
0 0 0
-0.115115 -0.189713 -0.0289306
0.131219 -0.00706439 -0.0387267
0 0 0
0.00378609 -0.00373358 -0.0267526
0 0 0
-0.22208 0.0446751 0.011823
0.195805 -0.47 0.0851226
-0.168338 -0.088984 -0.451521
-0.130536 0.00595633 0.195276
0 0 0
0 0 0
0.0267078 -0.56447 -0.135682
0.146834 0.139385 -0.00753642
0.0727528 -0.0661603 -0.0368328
0.0395344 0.175884 0.0482408
0.00370575 0.0546399 0.0361557
0.101264 0.231477 0.389215
0.000497516 -0.00300204 -0.176633
0.0411906 -0.159986 -0.0807596
0.105865 0.189729 0.158834
0 0 0
0.0606529 0.215501 0.000318209
-0.0719614 0.0751627 -0.251463
0.00139801 -0.00363925 -0.0570864
0.411375 -0.177777 -0.0946972
0.0887628 0.196371 0.217977
0 0 0
0.0635736 0.00589098 0.193611
-0.047354 0.0356934 -0.175392
-0.0705791 0.050566 -0.00890341
0 0 0
-0.0227679 0.140607 0.0888513
0.14177 -0.261505 -0.0166551
0.0694909 0.0170757 0.111838
0 0 0
0.00472623 -0.00518943 -0.00795928
-0.0690375 -0.0356268 0.137264
0 0 0
-0.294018 0.193531 -0.313747
-0.179258 -0.10517 0.194264
0 0 0
-0.0617425 -0.0824876 -0.00221415
0 0 0
0.179416 -0.101019 -0.392066
-0.00833438 -0.0687319 -0.148678
0.159182 -0.176431 -0.0216696
0.00104834 -0.134206 0.0288387
0.0755434 -0.256769 0.177191
-0.191145 0.0382281 -0.00148611
0 0 0
-0.212594 -0.237317 0.151532
0 0 0
-0.229735 0.0529316 0.262075
0.0153491 -0.0154771 0.00622897
0.522664 -0.125069 0.147516
0.349658 0.406693 0.315933
0.15568 -0.137695 -0.0564388
-0.00589678 0.0637402 -0.0532547
0.183934 0.312833 0.00170206
0 0 0
-0.106335 -0.0204958 -0.00371851
0.0484486 0.0129718 -0.0697658
0.357323 -0.0305772 -0.280451
0 0 0
-0.331736 -0.464134 -0.034268
-0.073498 -0.330487 0.220331
-0.13588 -0.21879 -0.056091
-0.121273 -0.385553 -0.142871
0.121162 -0.162427 -0.0197112
-0.0020962 0.0512874 -0.226372
-0.232077 0.106932 -0.113363
-0.00507518 0.127444 0.00475456
-0.176478 -0.140307 0.0894503
0.0388278 0.112399 -0.121677
0.0022661 -0.0625816 0.115244
0.035601 -0.190247 0.0347159
0.0302451 0.0169194 0.0852039
0.102298 -0.39863 -0.176173
0 0 0
0.164733 -0.326424 -0.152421
0 0 0
0.0171733 -0.093044 0.0795043
-0.0168834 0.000126224 -0.0344856
-0.175659 -0.0785657 -0.0452007
0.23363 0.058648 -0.0901841
0.341968 0.0517492 0.0350602
-0.0167261 0.00240133 -0.0626647
0.063517 0.0193315 0.0264815
0.236999 -0.0251996 -0.0907277
0 0 0
0.489299 0.380465 -0.310537
0.120912 0.0281262 -0.0625555
0.459842 -0.0401916 -0.0243835
0.060598 0.0752198 -0.0452849
-0.171308 -0.0485611 0.0882941
-0.0664609 -0.122202 0.3499
0.0180691 0.0430736 0.117581
0.0368476 0.00513099 -0.0682062
-0.0598455 -0.0429311 0.0386674
-0.0194037 0.0451407 -0.0801671
-0.120609 -0.21675 -0.0957532
0.0489897 -0.00732455 0.102259
0 0 0
0.0289275 0.209486 0.00531052
-0.000550466 -0.00413934 0.0888109
0.289241 0.0503981 -0.201832
0.142977 0.191684 0.0524372
0 0 0
0.11688 0.0555791 -0.0751365
0 0 0
0 0 0
0 0 0
0.106701 -0.0111257 -0.171007
-0.262513 0.0386274 -0.0261066
-0.093894 -0.0581633 -0.253245
-0.294333 -0.120447 -0.0502736
-0.0267786 0.00515237 -0.178715
-0.0611823 -0.152719 0.0536678
0.0310254 0.0465456 -0.182653
0 0 0
0.263202 0.284004 0.116085
0.023081 0.0342497 0.0158223
0.198122 0.234156 -0.10915
0 0 0
-0.0121608 0.343268 -0.0855254
0.0118229 -0.126508 -0.319978
-0.0183902 -0.0837637 0.0707713
-0.0789321 -0.194337 0.0206311
-0.309544 -0.50537 -0.0642672
0 0 0
0 0 0
0.0288176 0.00300313 -0.0418372
0 0 0
0.207655 0.00968582 0.0560385
0.0611043 0.0379871 0.17946
-0.0252243 0.0348585 0.00125247
-0.0110164 0.00653778 -0.00143348
0.234668 0.062785 -0.13033
0.0685352 -0.023487 -0.30704
0.238521 0.18515 -0.183972
0.0425442 0.094377 -0.326294
-0.238677 0.0253698 0.0234113
-0.144952 0.207229 -0.0620944
-0.114554 0.1655 0.1152
0.0615803 0.195464 0.106616
0 0 0
-0.0153197 -0.202333 0.368368
-0.0832321 -0.237194 0.00317893
0 0 0
0.185059 0.250369 -0.0341601
0 0 0
0.0159883 -0.367099 0.041767
-0.0839292 -0.100503 0.219942
0.0377987 0.0127213 0.130583
0 0 0
-0.047819 0.229201 0.38416
-0.0792857 0.0569205 -0.024748
0.00698341 0.0033483 -0.00188528
-0.0272649 -0.593284 -0.106796
-0.0951542 -0.090282 -0.101565
0 0 0
-0.194681 -0.192809 -0.038784
0.145138 0.00931979 -0.144876
0.334767 0.05047 0.187007
-0.000728614 -0.0317562 0.0661501
0.0783885 0.167132 0.0895447
0.175088 0.160876 -0.0934341
-0.108712 -0.0011103 -0.105862
-0.18968 -0.128182 -0.139274
-0.0177974 -0.0281612 -0.0319587
0.0756122 0.111889 -0.272934
-0.0440114 0.0320281 -0.0494436
-0.467179 -0.0736377 -0.00415812
-0.0966797 0.144771 -0.157893
-0.169946 0.432371 -0.16955
0.0668108 -0.00155384 0.0635755
-0.0286979 0.201266 0.0658825
0 0 0
0.0212613 -0.141146 0.206754
-0.143407 0.0865639 0.0854449
0 0 0
-0.168235 -0.0313856 0.210117
0.162058 -0.0751385 0.0957703
0.00410248 -0.036276 -0.000481743
-0.00257294 0.26493 -0.327005
0 0 0
0.356042 0.0894876 -0.159731
0.174953 0.0755857 0.17703
0.0767549 0.119322 -0.048776
0.0535008 0.0964826 0.162202
-0.0280333 -0.0169916 -0.0700945
0.0264008 0.336707 0.345964
0.0811341 -0.237988 0.0388921
0.00981332 -0.149347 -0.0129436
0 0 0
-0.269421 -0.174062 0.112008
-0.00148309 -0.254931 0.0716744
0 0 0
0.176718 -0.0321735 -0.1811
0.395254 0.0648148 0.0925553
0.13627 0.146632 -0.0080701
-0.419504 -0.028408 -0.110029
-0.392519 0.11996 0.411108
-0.234546 -0.0655983 0.152642
-0.142894 0.0119606 -0.045011
-0.0295058 -0.0153677 -0.00650617
0.199747 0.201731 0.104658
0 0 0
0 0 0
0 0 0
-0.052534 0.0971999 -0.0175926
-0.38914 0.273458 0.223389
-0.611971 -0.104997 -0.0377849
-0.158467 -0.0536045 -0.161615
-0.184683 0.0714519 -0.122733
-0.00615994 -0.0628663 0.190234
0 0 0
0.0017018 -0.115386 0.000938143
-0.0455506 -0.328361 -0.0409338
0 0 0
0.0688914 -0.0424272 -0.182815
0.11592 0.268082 0.280848
0.0448089 0.1931 -0.11234
0 0 0
0 0 0
-0.0909545 -0.115924 -0.187299
0 0 0
-0.0814768 0.064084 -0.0201921
-0.60312 -0.120701 -0.0176357
-0.0136963 -0.0330156 -0.00056839
-0.215123 -0.145661 0.0712551
-0.15023 -0.043128 -0.00435932
-0.111138 -0.0895699 -0.137981
0 0 0
-0.338939 -0.0598026 -0.00462793
0 0 0
0.0330027 0.0339673 0.142775
-0.445294 0.162834 -0.0263156
-0.117491 0.111673 0.133625
-0.0234741 0.189469 -0.114855
0.0620353 0.0228104 -0.155787
0 0 0
0 0 0
0.0740373 -0.0815838 -0.228349
-0.162414 -0.194484 -0.160872
-0.0481009 -0.0849394 0.204846
0 0 0
0.346993 0.259606 0.0184697
0.0241975 0.0326674 0.00428296
0.0593368 0.00306687 -0.0850732
-0.114469 0.0536986 0.0913288
0.1086 0.104594 0.203488
0.171581 -0.0777481 -0.0688807
0 0 0
0 0 0
0.0391038 0.108835 -4.73597e-05
0.0530657 -0.010813 -0.0455611
-0.286677 -0.0188963 0.0133857
-0.0045478 -0.0134991 0.143835
-0.0220524 -0.0118863 0.016902
0 0 0
0.0045732 -0.00192966 -0.00134886
-0.0305422 0.123371 -0.0915402
-0.241391 -0.172515 -0.0905336
-0.048227 -0.0249177 0.0661547
0.0256463 0.113321 -0.126063
-0.110103 0.0246914 -0.0654109
-0.117577 -0.0137576 -0.0150806
0 0 0
0.00578096 -0.0084099 0.105959
0.140457 -0.00810023 0.135325
0.0858834 0.313449 0.421233
0.117215 0.0759098 0.0187808
0.200077 0.230794 0.0470679
-0.0170669 -0.0159096 0.00897778
-0.106608 -0.0503369 -0.392912
0 0 0
0.159687 -0.178904 -0.324641
-0.0184172 -0.046515 0.00532741
-0.0162146 -0.0957881 0.13703
-0.0837453 -0.0961597 0.130915
-0.297072 -0.0835739 -0.0679628
-0.173985 0.0922151 -0.104343
-0.284786 -0.0417653 0.122696
-0.10103 0.154171 0.229072
-0.0052109 0.127871 0.00228644
0 0 0
0.0225864 0.163347 0.00218309
0 0 0
0.0463078 -0.00469596 -0.49246
-0.0656523 0.105706 0.00076464
0 0 0
-0.175161 -0.0578268 0.111115
-0.00925827 0.0425051 -0.076754
-0.526878 0.12666 0.000937826
0.0240618 -0.287108 -0.0231386
-0.251207 -0.331312 0.0836135
-0.0650473 0.121225 0.0174835
-0.0715326 -0.00321821 0.0713232
-0.0518154 -0.0731849 0.297665
0 0 0
0 0 0
-0.208915 0.143925 -0.0216161
0 0 0
0.108793 -0.20096 -0.000940873
-0.0874184 -0.0476801 -0.0318641
-0.0343016 -0.0378497 -0.038705
0.117976 -0.0705074 -0.000901295
0.0240048 -0.103511 -0.147972
0 0 0
0.0310275 0.0517621 0.0173479
0.0171333 0.0075676 0.0197273
0 0 0
0.181671 -0.331599 0.245868
0 0 0
0.0895326 -0.106026 -0.0585791
0 0 0
0 0 0
0 0 0
0 0 0
-0.0268218 -0.0356789 -0.286992
0.0718286 -0.387515 0.00962369
0.0340057 -0.0728495 0.0495538
0.218738 -0.220915 -0.323981
0 0 0
-0.0424874 0.25898 -0.230641
0 0 0
-0.295261 -0.434716 0.0215676
-0.058369 0.0514101 -0.129397
-0.264277 -0.0502139 -0.0384462
-0.128515 0.0054858 -0.152867
-0.0657507 -0.0382264 -0.0281414
-0.296087 -0.179412 -0.0858535
0 0 0
0.0111431 0.301059 0.19007
-0.120085 0.21089 -0.110096
0 0 0
-0.0284393 0.0231143 0.0153737
0.00755565 0.206487 0.0942083
-0.0127239 -0.117675 0.166909
-0.0371619 0.0866862 0.192317
-0.00227196 0.154558 -0.253111
-0.0969084 -0.143877 -0.0828865
-0.0857342 -0.0537974 -0.0623586
-0.136938 -0.110236 0.0646322
0 0 0
0 0 0
0.0806205 -0.0533063 -0.00942845
0 0 0
-0.11024 -0.134361 -0.0614756
0 0 0
0.0127414 -0.347894 0.105055
0.0446599 0.0773308 -0.0135276
0.0731849 -0.0830029 -0.245143
0.117332 0.0783154 0.173199
0.143807 0.37977 0.0953801
0 0 0
0 0 0
0 0 0
0.104006 -0.280641 -0.20532
0.0376656 0.174611 -0.0146295
0 0 0
0 0 0
0.0643888 0.110838 0.075097
0.201114 -0.0465419 -0.130609
0 0 0
-0.0747042 0.0421644 -0.000168002
-0.00160564 -0.20605 -0.388748
0.0326925 -0.0202989 -0.0562858
0.0899137 -0.0945824 0.1524
-0.266964 0.0635105 -0.201927
0.115419 0.0680611 0.280428
0 0 0
0 0 0
-0.0223247 -0.103289 -0.212729
0 0 0
-0.29075 -0.0403229 0.0815233
0 0 0
0 0 0
0 0 0
-0.201111 -0.106928 -0.00638804
0.156219 0.162765 -0.00783325
0.102435 -0.224127 0.18214
0.0113613 -0.0179343 0.0997693
-0.00272571 0.0308485 -0.211814
0.00139135 -0.114854 0.157349
-8.13097e-06 0.098123 -0.0826349
-0.141552 0.230556 -0.0679094
-0.0347612 0.0381855 -0.123766
-0.0139141 -0.0333837 -0.0368909
-0.108234 -0.0113131 -0.221007
0 0 0
-0.359588 0.0748085 0.244363
-0.0035096 0.0140248 -0.00212724
-0.188636 0.184261 -0.000871719
-0.0112044 0.000875516 0.0107881
-0.0903736 0.00958379 0.145561
0 0 0
0 0 0
0.000799945 0.12506 0.0634431
-0.0318172 0.194208 -0.0920743
0 0 0
-0.130917 0.175285 0.0568902
-0.00466307 0.00762284 -0.165323
-0.0283591 0.0214114 0.00448436
-0.00600131 -0.0201157 -0.0311883
0.271324 -0.0283554 0.222422
0 0 0
0.049084 -0.022133 -0.049107
0.106623 -0.210676 0.285121
0 0 0
0 0 0
0 0 0
-0.281246 -0.00620913 0.11733
-0.0298749 0.0128013 -0.0465674
-0.237587 0.186442 -0.047421
-0.0719171 -0.00629624 0.124054
-0.0974558 0.0580856 -0.125465
-0.120661 0.222183 0.0841263
-0.0166977 -0.137276 0.192223
0.00147781 0.0817281 0.110103
0.101091 -0.118063 0.101113
0.00951263 0.0332021 0.14642
0.0612505 0.049833 0.129202
-0.232366 -0.0713161 0.0232427
0 0 0
-0.554295 0.449598 0.253858
-0.320725 -0.176872 0.0425057
0.053752 -0.0441477 0.0419987
0.0429408 -0.00377372 -0.0213693
0 0 0
-0.214878 0.363946 -0.251869
0.000412996 0.0018309 -0.031251
-0.143492 0.326062 -0.165253
0.0655188 0.0146214 0.164857
0.00832143 -0.0488842 0.289438
0.194572 -0.0958231 -0.185831
0.00767852 -0.00774084 -0.00449684
0.130455 0.0664799 0.00586956
-0.0419447 -0.0357401 -0.0325923
-0.263641 0.0788646 -0.356333
0 0 0
-0.395793 0.175453 -0.0323464
-0.299998 0.1989 0.00691181
-0.335987 0.565368 0.201612
-0.0443421 -0.199106 -0.0188896
0.0249266 0.0946852 0.0275931
0.11364 -0.0953478 0.139218
-0.112404 0.229774 -0.0558111
0.0010663 -0.00637431 -0.118955
0.174958 0.538401 0.0103192
0.0284129 0.0234525 -0.0306936
0 0 0
0 0 0
0.0180578 -0.0187553 -0.0504534
0 0 0
0.314208 -0.170418 -0.105342
0.257444 -0.234527 0.113442
0 0 0
-0.114126 -0.0471927 -0.12048
0.0708271 -0.00904767 0.0665858
-0.0468724 -0.174271 -0.0150724
0.00185981 -0.417833 -0.0770915
-0.010688 0.133528 0.155853
0.00385923 0.0193669 -0.0201808
0.579447 0.302031 0.0915493
0.0389104 0.131738 0.0497991
0 0 0
0 0 0
0.243538 -0.18694 -0.0139612
-0.000747137 0.0923826 -0.265794
0.000833324 -0.0546663 -0.0472488
0 0 0
-0.387419 -0.464177 -0.138
-0.192149 0.327458 -0.0805297
-0.141948 0.0316721 -0.0662945
0 0 0
-0.283986 -0.0707585 -0.161069
-0.260196 -0.449788 0.0291537
-0.100825 0.011239 0.000662213
0.211817 -0.273618 0.514814
0 0 0
0.073246 -0.0277575 0.0231305
0.172784 0.09998 0.107833
0.15331 -0.0432057 0.252626
-0.0318105 -0.0141507 0.179802
-0.0171556 -0.256473 -0.170822
0.0449545 0.158975 -0.0301243
0.00393452 -0.0345471 -0.037053
0.0096099 0.0139408 -0.0190247
0 0 0
0.0132827 -0.0704398 -0.34368
0.190348 -0.000669185 -0.177951
-0.0177812 -0.0244276 -0.0230963
-0.0493223 -0.161009 -0.424118
-0.0706592 -0.0552346 0.000562053
0.0994596 -0.0690723 -0.0650338
-0.00208419 0.00256603 -0.0689891
0 0 0
0.0174555 -0.304124 0.0306989
0.000991988 -3.90425e-05 0.00112003
-0.307181 -0.149646 -0.00807495
-0.369275 -0.00287819 0.100715
-0.0999415 0.0132414 0.00399175
0 0 0
0.120116 -0.0604036 -0.000929086
0.0307985 -0.205659 0.191324
-0.0860155 0.0010541 0.189106
0 0 0
-0.0142462 -0.0319973 0.0956292
0.193515 0.0640961 -0.00278701
-0.000970146 -0.050197 0.0866442
0.211429 -0.290111 0.000959585
-0.0160379 0.00817641 0.0140241
-0.0956825 0.00739235 0.030825
0 0 0
0.0348433 0.0633017 0.172201
0 0 0
0 0 0
-0.124896 0.157717 0.0988379
0 0 0
-0.207547 -0.186095 0.000876216
0 0 0
0.057707 0.0287625 -0.0647566
0.285894 0.0553332 -0.0164433
0.0118947 0.0558759 -0.119414
-0.00799301 -0.199246 -0.191749
0 0 0
0.212367 0.422878 0.477121
0.0134642 0.27199 -0.277798
0.106084 -0.0664615 -0.0650351
0 0 0
0.157733 0.109468 0.190316
-0.0916151 0.0764076 0.153277
0.00167118 -0.0617561 0.150475
0.236827 0.0506572 -0.185207
0.132263 -0.106929 0.185659
0 0 0
-0.0555255 -0.0409827 -0.0603468
-0.129655 0.0529292 -0.447229
0.0234271 0.00220729 0.0158099
0 0 0
0.0160068 -0.342132 -0.391796
0.0852818 0.118304 -0.0267854
0 0 0
0.026227 -0.250056 0.00364502
-0.0169769 0.0248118 0.0211896
0 0 0
-0.016812 0.119852 -0.0933993
0.00852454 -0.0697248 -0.0142225
-0.0400519 0.0970232 -0.239571
-0.0567928 -0.0432097 0.0840065
-0.00299769 0.197725 -0.192444
0.00321173 0.301408 0.0776097
0.0503878 -0.0834237 0.114453
-0.149031 0.0515069 0.0961412
0.121042 0.0612945 -0.0679532
0.233646 -0.207907 -0.28272
0 0 0
0 0 0
0.0230988 0.0534658 0.0371361
0 0 0
0 0 0
0 0 0
0.13622 -0.176606 -0.0551906
0.302983 0.0532796 -0.104836
0 0 0
0 0 0
-0.0387993 0.251734 0.0439139
-0.111005 0.110562 0.065588
-0.157221 -0.0441562 -0.515326
0 0 0
0.0161462 -0.0257549 -1.89432e-05
0.0108792 -0.00053585 -0.0016857
0.256265 -0.000370102 0.00192738
0.0363441 -0.107379 -0.365088
0.00790509 0.232781 -0.241254
0.000135096 0.295291 0.0910558
-0.0610154 0.0460986 -0.232937
-0.0808676 -0.117071 -0.124597
-0.101661 -0.279717 -0.257807
0 0 0
0 0 0
-0.440987 0.0612247 -0.253974
-0.144901 0.0614788 -0.0411624
-0.04597 -0.0385568 -0.0397029
-0.186813 -0.0959048 -0.552104
-0.358676 0.3144 -0.151103
0.0219115 0.0618484 -0.0375797
-0.052224 -0.187919 -0.0543163
0.0282252 -0.190677 0.142274
0.0430963 -0.536433 -0.0662817
0.0704755 -0.414385 -0.0665065
0.193446 -0.0915897 0.246538
0.0542763 0.0243908 -0.0293333
0.085627 -0.327565 -0.335803
0.0547935 0.0831152 0.00161096
-0.00909106 0.000123987 0.000878498
0 0 0
0.355703 0.17975 0.0510433
0 0 0
0.168388 0.0381746 -0.196914
0 0 0
-0.0116014 -0.180711 -0.0196298
0.000778172 0.0248293 0.0750756
-0.112304 -0.139915 -0.50384
0.00775488 0.0641668 0.127406
0.0743721 -0.0165357 -0.0457899
0.0151846 0.0371768 0.150531
0.0585564 -0.00158385 0.0398732
0.0073232 0.216871 0.187139
0 0 0
-0.162664 0.0420628 0.0879033
-0.0521822 0.1456 -0.234386
0 0 0
0.276667 0.230094 0.0950387
0.01507 0.33435 -0.19615
0 0 0
-0.0568435 -0.0160655 -0.04257
-0.0537369 0.0725355 -0.110877
-0.000329635 -0.0611949 0.0607583
0.32271 -0.0297476 -0.160913
0.0146834 -0.0078564 -0.0284917
0 0 0
-0.0782264 0.162159 -0.275601
0.128348 -0.163513 0.346256
-0.00217348 -0.155791 -0.0737483
-0.0693706 0.188847 -0.107659
-0.329377 -0.00349007 0.00936883
-0.0249598 0.0192979 0.0195446
0 0 0
0.00979221 -0.0190145 0.0780755
0.474538 0.314804 -0.0272191
0.000518455 0.110136 0.00866158
0 0 0
0.000538402 0.0039468 -0.136512
0.0634705 -0.104168 -0.238192
-0.0863945 0.0315422 0.127739
-0.0203148 -0.0109172 -0.00732248
-0.089168 -0.0288917 0.00506822
-0.0111105 0.0443909 0.0669712
-0.135716 0.176212 0.020411
-0.00392617 0.0106743 0.0119979
0.232064 0.23431 -0.174835
0 0 0
0.0274468 -0.0695276 0.00077277
0 0 0
-0.0148169 0.00140322 0.014291
0.000410128 0.00706103 -0.00250183
0 0 0
0.199262 -0.081398 -0.0014505
0 0 0
0.00122566 0.0164277 -0.0262354
-0.298112 -0.259236 0.205389
-0.286732 -0.0220484 -0.0911649
0 0 0
-0.024981 -0.0895093 -0.127869
-0.0481488 -0.0278879 -0.17074
-0.0691138 0.10252 0.29488
0.00295062 -0.0908997 0.0883854
0.200872 -0.105233 0.0722203
0 0 0
0.103929 0.241631 0.309147
0 0 0
0 0 0
-0.0150905 -0.119461 -0.0310479
0 0 0
0.180973 0.236479 -0.27918
0 0 0
-0.273825 0.247425 0.0294368
-0.0377858 -0.00120855 0.126477
-0.213358 0.129715 0.208824
-0.0380108 0.238522 -0.0144029
0.0177198 0.0932316 -0.0656994
0.0546258 0.0256838 -0.0216621
0.167033 0.363813 -0.0206576
0.0228185 -0.0887027 0.221618
0.314592 0.161628 -0.183585
-0.0439923 -0.00280534 0.187672
-0.234362 -0.00359512 -0.166909
-0.0180226 0.00495511 -0.00100865
0.00846369 -0.102954 -0.0969521
-0.0151032 -0.0620748 0.0154989
-0.0945209 -0.255417 -0.0134956
-0.0841015 -0.333811 0.0347393
-0.0686504 -0.017084 -0.1532
-0.000803572 -0.0873723 -0.0056667
-0.0662731 -0.235497 0.221256
0 0 0
-0.128803 0.115137 0.021767
0.424761 0.222837 -0.441001
-0.283406 -0.128463 0.189796
-0.0790599 0.0628181 -0.192176
-0.0309403 -0.0103437 0.0890755
0.0152543 -0.0287678 -0.0637706
0.0900022 0.139766 -0.367095
0.00171977 0.126846 0.0319982
-0.228359 -0.0699797 -0.040367
-0.040978 0.0122502 0.019664
0 0 0
-0.0621233 -0.100316 -0.219672
0.0639137 -0.0925404 0.00036049
0 0 0
0.07807 0.0249056 0.0989062
0 0 0
-0.326303 0.244786 -0.244024
0 0 0
-0.0767703 0.060169 -0.000616128
-0.0209256 0.0374271 0.0262545
-0.0868991 -0.129993 0.165289
0 0 0
0.0245923 -0.12089 -0.0985222
0 0 0
0.192143 -0.184295 -0.0378296
-0.113744 -0.188192 -0.244927
0 0 0
-0.300744 -0.0277894 0.145062
-0.20772 0.147954 0.155505
-0.278301 -0.0798494 0.0163872
-0.207987 0.216542 0.146925
-0.374608 0.114091 0.284245
-0.0672387 0.129027 0.106605
-0.0229193 0.117936 0.0108355
0 0 0
0 0 0
-0.00257346 0.092903 -0.0513392
0.193405 -0.293626 -0.0459804
0.0342102 -0.111661 0.00985093
0 0 0
0.099408 -0.0585442 0.0970856
-0.0229552 0.0124346 -0.340832
0 0 0
-0.10965 0.232356 -0.0203635
0.192244 0.0379188 0.10321
-0.031108 -0.0534904 0.23917
-0.0553558 -0.0536847 -0.0616375
0.00313343 0.207069 0.0558184
0.166092 0.169456 0.0840962
0 0 0
0.201855 -0.000164497 -0.0418739
0 0 0
-0.166951 0.0495352 -0.0958591
-0.0668236 -0.00871982 0.0727356
0 0 0
-0.0233892 0.0345745 -0.0731018
0 0 0
-0.0305473 0.0209542 -0.0329189
0 0 0
-0.00119717 -0.0553423 -0.0232202
-0.267681 -0.0336276 0.109839
0 0 0
-0.219207 0.195498 0.124081
-0.15889 -0.00910568 -0.148111
-0.182868 0.127634 -0.00949961
-0.151341 -0.0613511 -0.0697852
0.0525861 0.0786784 0.127472
0 0 0
0 0 0
0.221814 -0.0577831 0.122449
0 0 0
0.100634 -0.10051 -0.105417
0 0 0
-0.0604052 -0.234745 0.182869
-0.196639 -0.0483334 -0.182653
0.11648 -0.113633 -0.164407
0 0 0
0 0 0
0 0 0
0 0 0
0 0 0
0 0 0
0 0 0
0 0 0
0 0 0
0 0 0
0 0 0
0 0 0
0 0 0
0 0 0
0 0 0
0 0 0
0 0 0
0 0 0
0 0 0
0 0 0
0 0 0
0 0 0
0 0 0
0 0 0
0 0 0
0 0 0
0 0 0
0 0 0
0 0 0
0 0 0
0 0 0
0 0 0
0 0 0
0 0 0
0 0 0
0 0 0
0 0 0
0 0 0
0 0 0
0 0 0
0 0 0
0 0 0
0 0 0
0 0 0
0 0 0
0 0 0
0 0 0
0 0 0
0 0 0
0 0 0
0 0 0
0 0 0
0 0 0
0 0 0
0 0 0
0 0 0
0 0 0
0 0 0
0 0 0
0 0 0
0 0 0
0 0 0
0 0 0
0 0 0
0.0427022 0.104866 -0.0516523
0.23033 0.0510316 -0.0249651
0 0 0
0.00981306 0.0734053 -0.0181891
-0.0501176 0.0485225 -0.18984
0.000138092 0.0296801 -0.0187638
-0.116944 0.00307501 -0.13342
-0.0709129 0.174947 -0.216221
-0.0532786 -0.133914 0.0941272
-0.140534 0.0107683 0.0675224
0.00788559 -0.0132486 -0.0650875
-0.0990331 0.0815632 0.0846018
-0.231621 -0.00422614 0.0306602
-0.0124313 -0.0289811 -0.0921859
-0.0827993 0.00844322 0.0338721
-0.0855233 0.0305576 0.0351585
0.0489104 -0.00348395 -0.10982
-0.0773072 0.0474554 0.0486085
0 0 0
-0.0270353 0.108829 -0.0617883
-0.0474463 -0.14348 0.141988
-0.0100915 0.120471 -0.0507921
-0.080179 -0.0106836 0.170995
-0.0209416 0.0342475 -0.153855
-0.0104866 0.00673169 0.258051
-0.120511 -0.0177138 0.130391
0 0 0
0.00639912 -0.168956 -0.0111144
0.0634529 -0.0182202 -0.086412
0 0 0
-0.126442 -0.14818 0.0238119
0.0932304 -0.197983 0.102648
-0.0433622 0.00758409 -0.104042
-0.00643924 -0.0573446 -0.000142481
0 0 0
0.00877174 0.0230139 0.0406324
0.0218524 -0.0422603 0.0326886
0 0 0
0.0419347 -0.00648352 0.158882
-0.0199979 -0.0410167 -0.0741754
-0.0391829 -0.0909295 0.126534
-0.00573618 0.0539134 0.205318
0 0 0
-0.0685144 -0.0275612 -0.0468743
0.193826 -0.0241736 -0.0376083
0 0 0
0.0265408 -0.0245451 0.0121421
-0.0108781 -0.0163667 0.0974249
-0.0238927 0.025478 -0.0227679
0.0479771 -0.0559913 0.098099
0 0 0
0.0460749 -0.0016316 -0.123828
-0.041855 0.0154137 -0.123369
0 0 0
0.124916 -0.00542931 -0.216309
0.116923 -0.0464026 0.159114
0.0183753 -0.00833646 0.00676724
0.111482 0.0439394 -0.0112818
0 0 0
0.0462522 -0.101499 -0.0737759
0.0247156 -0.00318156 0.0617853
0 0 0
0.0210062 0.0879118 -0.00535926
-0.00587201 -0.00731849 -0.00391943
-0.149421 -0.248178 0.242939
-0.00762178 -4.84257e-05 -0.00127509
0.296197 -0.193157 -0.0201898
0.12252 0.0823547 0.297073
0.261427 -0.352034 -0.0418331
-0.165373 0.0155393 0.12829
0 0 0
-0.0117771 0.159595 0.0398127
-0.271323 -0.283364 0.000785809
0.17479 0.0454382 -0.253348
-0.000598383 0.0205203 0.149066
0.165616 -0.0181471 -0.531651
0.413326 0.0109617 -0.0577882
0.327079 0.146638 0.0759697
0.0237775 -0.00492514 0.0484784
0.190947 0.374832 0.389271
-0.0176228 0.0526608 0.0166533
0.459489 -0.164801 0.026471
0.0574414 -0.128125 0.020483
0.109898 0.153774 0.0127605
0.182032 0.220539 -0.0878375
0.000151644 -0.062347 -0.156617
-0.192934 0.838847 0.282175
0 0 0
-0.201838 -0.0428081 -0.112095
0.0520638 -0.227754 0.107839
0.00386978 0.277079 -0.0362526
0.178541 0.0978937 0.0886017
-0.0950299 0.0663859 0.236174
-0.208041 -0.255712 -0.17932
-0.162367 0.0604789 0.145497
-0.211232 0.413382 -0.0754286
0.160429 0.0172952 0.100973
0.112699 0.00159866 -0.166138
0.195183 -0.819714 -0.100692
-0.0340904 0.143346 -0.209638
-0.0614241 -0.0595288 0.0646674
-0.522789 -0.00283121 -0.0137793
-0.210009 0.0213612 -0.0999809
-0.393651 -0.0351394 -0.0133901
-0.103458 -0.0579193 0.0131402
0.111369 -0.162642 0.0261795
0.0374161 -0.145268 0.0578015
-0.000746601 -0.108754 -0.111116
0.259787 -0.160865 -0.021218
-0.0607683 0.000746252 0.0142649
0 0 0
0.223303 0.175138 0.161183
0.130788 0.0987145 0.206273
0 0 0
0.093008 -0.131796 0.198447
0.0636088 -0.00949105 -0.0503886
-0.0225001 0.0355699 -0.0463944
0 0 0
0.0752673 0.0230166 0.0672021
-0.0397129 -0.000262887 0.0312051
-0.101197 -0.0276836 -0.0304782
0.217587 -0.227548 0.255036
0.214636 0.0930016 0.0233921
0.0497548 0.0111755 -0.22951
0 0 0
-0.0132702 0.0560994 0.0108381
-0.03027 -0.111475 -0.0129564
0.018132 0.193198 0.07483
0 0 0
-0.175075 0.0535039 0.396238
-0.165314 -0.0973018 -0.25922
-0.167719 -0.168332 -0.142061
-0.147025 -0.0713089 0.00814051
-0.491342 -0.0974956 -0.00251697
0 0 0
0.149119 -0.0593779 -0.226658
-0.0578004 0.0217636 0.184863
0.107159 -0.0672824 -0.0770715
-0.0152029 -0.0395291 0.0551259
0.148895 -0.247171 0.377199
-0.000883034 0.0138909 -0.0554132
0.328704 0.0259587 -0.287504
-0.002675 0.0559277 0.0694636
0 0 0
0 0 0
0.00460278 -0.0311159 -0.108012
0.00525343 0.147201 -0.267041
0 0 0
0.103119 0.800976 0.208971
0.159367 0.0214599 -0.00766473
0.0172552 0.031704 -0.00167407
0 0 0
0 0 0
0 0 0
0.0149058 -0.0761249 -0.243457
-0.0668046 0.0438672 -0.00142142
0 0 0
0.0100114 0.0420388 -0.174694
0.0406434 0.0528974 -0.0476218
-0.027931 -0.154231 -0.00192871
-0.00653673 -0.2455 -0.378272
-0.00109406 -0.0417768 -0.163065
-0.0898325 0.015903 -0.356423
0.014218 -0.00792426 0.00809639
-0.214275 0.177539 0.274519
0.00659009 -0.119985 0.0492735