<?xml version="1.0"?>
<VTKFile type="RectilinearGrid">
<RectilinearGrid WholeExtent="0 32 0 32 0 32" Origin="0 0 0" Spacing="1 1 1">
<Piece Extent="0 32 0 32 0 32">
<PointData>
</PointData>
<Coordinates>
<DataArray type="Float32" format="ascii">
0 0.524874 1.04975 1.57462 2.0995 2.62437 3.14924 3.67412 4.19899 4.72386 5.24874 5.77361 6.29849 6.82336 7.34823 7.87311 8.39798 8.92285 9.44773 9.9726 10.4975 11.0224 11.5472 12.0721 12.597 13.1218 13.6467 14.1716 14.6965 15.2213 15.7462 16.2711 16.796 
</DataArray>
<DataArray type="Float32" format="ascii">
-5.03879 -3.62163 -2.20447 -0.787311 0.629849 2.04701 3.46417 4.88133 6.29849 7.71565 9.1328 10.55 11.9671 13.3843 14.8014 16.2186 17.6358 19.0529 20.4701 21.8872 23.3044 24.7216 26.1387 27.5559 28.973 30.3902 31.8074 33.2245 34.6417 36.0588 37.476 38.8931 40.3103 
</DataArray>
<DataArray type="Float32" format="ascii">
0 0.524874 1.04975 1.57462 2.0995 2.62437 3.14924 3.67412 4.19899 4.72386 5.24874 5.77361 6.29849 6.82336 7.34823 7.87311 8.39798 8.92285 9.44773 9.9726 10.4975 11.0224 11.5472 12.0721 12.597 13.1218 13.6467 14.1716 14.6965 15.2213 15.7462 16.2711 16.796 
</DataArray>
</Coordinates>
<CellData>
<DataArray type="Float32" Name="Vector" NumberOfComponents="3" format="ascii">
0 0 0
0 0 0
0 0 0
0 0 0
0 0 0
0 0 0
0 0 0
0 0 0
0 0 0
0 0 0
0 0 0
0 0 0
0 0 0
0 0 0
0 0 0
0 0 0
0 0 0
0 0 0
0 0 0
0 0 0
0 0 0
0 0 0
0 0 0
0 0 0
0 0 0
0 0 0
0 0 0
0 0 0
0 0 0
0 0 0
0 0 0
0 0 0
0 0 0
0 0 0
0 0 0
0 0 0
0 0 0
0 0 0
0 0 0
0 0 0
0 0 0
0 0 0
0 0 0
0 0 0
0 0 0
0 0 0
0 0 0
0 0 0
0 0 0
0 0 0
0 0 0
0 0 0
0 0 0
0 0 0
0 0 0
0 0 0
0 0 0
0 0 0
0 0 0
0 0 0
0 0 0
0 0 0
0 0 0
0 0 0
-0.0586896 0.0210231 0.145846
0.511891 0.188847 0.0809409
-0.0657353 0.0533746 -0.0823449
-0.187824 0.00269134 0.0899185
0.128157 -0.128078 -0.0340827
-0.000121133 -0.0287879 -0.0045718
0.0295722 0.139845 0.0376824
-0.0546913 0.0778232 -0.0382819
-0.0260759 -0.065449 0.0190424
0.0998748 -0.0290893 0.00661947
0 0 0
0.0715554 0.0295935 0.0402016
0.024984 -0.020691 0.0101166
-0.002738 -0.0211303 0.0149876
0.0579402 0.11895 0.0113221
0.0799013 -0.127104 0.020244
0.0664324 -0.0670172 0.126374
-0.120168 0.122987 0.159019
0 0 0
0.0596261 0.0231052 0.0777579
0.177696 0.0702827 0.132354
0 0 0
0.117826 -0.112283 -0.0186384
0.07826 -0.0726602 0.00348638
0.054716 0.0288677 0.0173006
0.0356185 -0.386205 0.0436694
0 0 0
-0.033642 -0.0216946 -0.0532393
-0.0466187 -0.0535756 0.0154702
0 0 0
-0.160597 -0.0451497 -0.0281858
-0.0105902 0.00470987 -0.142629
0.00359652 -0.357396 -0.0326303
0.00393701 0.0576234 -0.0868968
0 0 0
-0.0967397 -0.0342246 0.0357919
-0.0476443 -0.0084037 0.0437734
0 0 0
-0.254399 -0.0736446 -0.0721136
-0.0206213 0.0340705 -0.0143437
0 0 0
-0.288818 -0.124133 -0.0289815
0 0 0
-0.206525 0.00405509 -0.0164268
0.0618014 -0.116786 -0.0214061
0 0 0
-0.0742108 -0.108027 0.00342926
-0.0115554 0.102751 -0.00119527
0.0415371 0.0243431 0.0610317
0.0114801 0.00225992 -0.0247255
0 0 0
0.251224 -0.170322 -0.0133955
0.0435543 0.0215352 -0.0123064
0 0 0
-0.00101261 -0.0386908 -0.0288328
-0.0376905 -0.00933428 0.00484932
-0.0532997 0.00710699 0.000239104
-0.22493 0.19721 0.0232715
0 0 0
-0.0227642 0.00202163 0.0135712
0.242491 0.0884927 0.00289303
0 0 0
0.0122815 0.0010412 0.040701
0.0757547 -0.0170596 0.00239294
0 0 0
0.216476 0.0877151 -0.0564464
0.162574 0.0160574 0.0339995
0.259867 0.149086 -0.0399086
0.016743 0.0906179 -0.062533
-0.0600132 0.16647 0.0247526
-0.0392465 0.148931 0.143812
0 0 0
0.0341414 -0.0898994 0.00434994
0.0869203 0.0125686 0.424142
0.224717 -0.0457288 -0.0633138
0.342283 -0.0568847 -0.188654
0.206245 -0.286528 -0.217946
0.459341 -0.237169 0.0117595
-0.0172524 -0.11318 0.0308095
-0.0441274 0.00389271 -0.000859903
-0.302329 -0.124604 -0.119086
0 0 0
-0.0996283 0.147774 0.307807
-0.220966 -0.100898 -0.0119621
0.0144897 -0.184151 0.220039
0.145542 -0.0659828 0.0176308
0.0989109 0.178839 0.0364629
0.024699 0.32102 0.00194965
-0.0204888 -0.0557137 0.00138948
0.133644 0.0623258 0.0460654
0.134839 0.0920715 0.013178
0.338359 -0.299172 -0.159029
0.0900225 -0.0241219 -0.143791
-0.084826 -0.165331 0.0286979
-0.433139 -0.160564 0.171087
0.101265 0.0297824 0.00304904
0.0226228 -0.230517 0.000374041
0.0182667 0.00299723 0.00240775
-0.377088 -0.0280024 -0.276167
-0.359469 0.141314 0.261662
-0.240459 -0.12637 0.0689377
0.10514 0.261543 -0.0735827
0 0 0
0.0385741 -0.295275 -0.01082
-0.00091849 -0.00859516 -0.0311124
-0.0488857 -0.181945 0.0880603
-0.0906144 -0.149526 -0.0328459
0.0399473 0.11684 -0.252369
0.0397498 -0.0629631 -0.164624
0.12034 -0.198488 -0.153317
0.00250568 -0.00692163 0.0689901
0.38823 0.223235 -0.272199
-0.160274 -0.0329001 -0.058131
-0.0854049 0.0262717 -0.0401877
0 0 0
0.25034 0.00728858 -0.0939895
0 0 0
0.160428 -0.139853 0.2045
-0.0255349 -0.00488374 0.0193757
0.0605396 -0.160259 0.0519354
0.0464627 0.00336395 -0.00645867
0.0432916 -0.0282363 0.0140573
0.126281 0.334884 -0.300392
0.109289 0.0652712 0.0973651
0.194517 -0.127683 0.00200279
0.134248 -0.116797 -0.148417
0.0827889 0.0673435 0.114142
0.0308883 0.190055 0.0674205
0.0193809 0.0743995 -0.0121716
0.0341336 -0.12781 0.162689
0 0 0
-0.0196016 0.256581 0.154008
-0.108138 -0.0949985 0.0563686
-0.467669 0.391121 0.115642
-0.05497 0.193528 0.194831
-0.265279 0.33703 0.415593
0 0 0
0.0575513 -0.136086 0.0011047
0.0270471 -0.00890943 -0.0619601
0.0699262 -0.00723038 0.0615835
0.0493269 -0.2041 -0.28774
0.0803248 -0.037363 0.0496779
0.0180643 -0.0153661 -0.0519271
-0.103966 -0.164826 0.314463
0.124296 -0.0443545 0.0450637
0.31994 0.0603421 0.0605694
0 0 0
0 0 0
0.331591 -0.252434 -0.00836069
0.141802 -0.114877 0.158946
0.449509 0.0220925 -0.336306
0.13472 -0.158388 0.134896
-0.130978 -0.11137 0.116001
0.00352532 -0.0176576 -0.00514639
0.331736 -0.00100333 0.132017
0 0 0
0.0466911 0.0984628 0.0609134
0.0631641 -0.255198 0.0758611
0.224701 -0.0621111 0.180741
0.109073 -0.0749435 -0.049842
-0.0218489 0.00255534 -0.0723792
-0.0732043 0.241382 -0.373114
0 0 0
0.152819 0.202774 -0.253602
0 0 0
-0.125674 0.281493 -0.0526452
0.211595 -0.113751 0.0988802
0.112245 -0.0753597 0.0539383
-0.0913126 -0.0539556 -0.0956824
0 0 0
0.106587 -0.368293 -0.042718
0 0 0
0.25765 0.131136 -0.359926
0 0 0
-0.000285234 0.00627497 -0.0125962
-0.0473397 0.00640886 0.0125168
0 0 0
-0.0811332 -0.19161 0.0865401
0 0 0
0.09743 0.29208 -0.297915
0.203404 0.0429248 0.080753
0 0 0
-0.0596041 -0.0518513 0.144162
0 0 0
0.0824543 -0.494103 0.315426
0 0 0
0.0400497 0.0676256 -0.0768502
0.144865 0.229719 0.263931
-0.00268674 -0.0195669 0.0731126
0.450743 -0.177535 0.344788
-0.0807709 0.0523746 0.288297
0.0953249 -0.0819171 -0.132902
0.150192 -0.151654 0.203896
0.0834025 -0.0622805 0.134306
0 0 0
-0.026163 0.0215418 0.0604151
-0.0115208 0.0789822 0.288292
0 0 0
-0.199475 0.203158 -0.256793
0.0219688 -0.0243908 -0.0166922
0.207424 0.010141 -0.103377
0 0 0
0.323067 -0.236806 0.0699913
0.520599 0.104851 0.195198
0.0623751 0.017843 0.0167075
0 0 0
0 0 0
0 0 0
0.428089 0.00716496 -0.273442
0.259799 0.0678372 0.0257734
-0.00881257 0.0433161 -0.0867432
-0.0423923 0.0191694 -0.145144
0.14901 0.300982 -0.0781218
0.0311811 -0.00832379 0.0597084
0.0981958 -0.704773 0.00717512
0.0659121 -0.000671192 0.00945516
-0.0677329 -0.281004 0.0174034
0.0045057 0.0141476 0.000399365
-0.0729486 0.0528172 0.00390889
0.190044 0.174664 0.34724
0.0919084 0.102077 0.223549
-0.0431704 -0.0273209 -0.000541168
0.371875 0.344525 0.182137
0.257719 -0.0256202 -0.161118
0.00232823 0.00402652 -0.0146893
0.069843 0.324528 -0.0795951
-0.00594101 0.00374196 0.000377281
-0.0594667 -0.185875 -0.0861955
0.298829 -0.0558422 0.320752
0.00133971 0.0574421 -0.148702
0.0768348 -0.11276 0.235542
-0.000584775 0.21186 0.0427644
0 0 0
0.278654 -0.287066 0.393466
0 0 0
-0.154048 -0.136937 -0.0747026
0.10703 -0.196368 0.236485
0 0 0
0.00827075 -0.149529 0.15772
0 0 0
-0.239895 0.328998 0.346306
0.147009 0.129731 -0.145584
0 0 0
0.0102376 0.0341205 0.0725459
0.0161174 0.251466 0.389053
0 0 0
-0.0689342 -0.0754837 -0.00490645
0.140987 -0.163672 0.164487
0 0 0
-0.0296593 0.0654268 0.0415915
0.0105311 -0.0107085 0.0201199
0.151509 0.0443304 0.221659
0.0258952 0.262812 0.457522
0 0 0
0.0314323 0.461565 0.299521
0 0 0
-0.023087 0.293814 0.026567
-0.000573867 0.106271 0.109776
0.0984237 0.263176 -0.0559069
0 0 0
0.225769 -0.247664 0.0107237
0 0 0
-0.0605221 -0.0216665 0.0626469
-0.0475731 -0.41853 0.123924
0 0 0
0.034955 -0.0794605 -0.203488
0.200699 0.156822 0.294178
0.0784809 -0.00760916 0.302872
0.0610408 0.055503 0.227129
0.106263 -0.051917 0.069713
0.00715086 -0.0108758 0.169913
0 0 0
0.132453 0.297391 -0.267117
0 0 0
-0.00327575 0.549083 0.236756
0.189651 0.104189 -0.238355
0.180191 -0.613045 0.0773664
0.327478 0.105987 -0.166683
-0.0267476 -0.171748 -0.055088
-0.0023528 0.0355961 -0.0199307
0.103306 0.084225 -0.115683
0 0 0
0.00394373 -0.076082 0.292611
-0.561471 0.0737829 0.0879308
-0.000699554 0.141828 -0.162303
-0.152215 0.0155951 0.160079
-0.259019 0.00964613 -0.0834393
-0.342035 -0.101483 -0.126035
0.0535354 -0.0678254 0.182731
0.0735082 -0.00748215 -0.0312993
0 0 0
-0.0464601 0.0717886 -0.159838
0 0 0
0.137421 -0.306503 0.0198529
0 0 0
-0.391361 -0.235729 -0.161998
-0.462184 -0.249938 0.133931
0 0 0
-0.0369663 -0.0674923 0.00372449
-0.00776008 -0.164086 -0.0420272
-0.0025213 0.174952 0.0650311
0.0021476 -0.182505 -0.023229
0.136535 0.0865458 0.207882
-0.116238 -0.0291871 -0.145827
0.00359101 0.0354955 0.0747936
-0.143795 0.164475 -0.0747453
-0.0285178 -0.393894 -0.0120589
0 0 0
-0.226151 -0.139289 -0.00728439
-0.445758 -0.193767 0.143345
0 0 0
-0.0820244 0.225722 -0.118175
-0.00979389 -0.00070723 -0.0639641
0.0614763 0.0941909 0.0793059
0 0 0
0 0 0
-0.187793 -0.0466767 0.196084
-0.0716397 0.147943 -0.0450348
0.00515049 0.355777 0.413246
0 0 0
-0.00518767 0.0297487 0.0600045
0 0 0
0.119002 0.0252402 -0.205643
0.054557 0.27469 -0.150466
0 0 0
-0.055376 -0.0914502 0.058294
0.168627 -0.0186334 0.166594
0.300831 -0.0212852 -0.0396486
-0.184861 -0.283725 -0.0181909
-0.0408199 -0.0135336 -0.012007
0.0161439 -0.0114228 0.0236857
0 0 0
0.114487 -0.178715 -0.0617346
-0.173285 -0.0460952 0.0954876
0.30415 -0.123911 -0.215748
0 0 0
-0.11364 -0.0347814 -0.0427365
0.0281753 -0.0310428 0.056796
-0.34963 0.0225072 0.336403
-0.0114197 0.00104548 0.013822
0 0 0
0 0 0
-0.174835 -0.31994 -0.341716
0.00119008 -0.00555755 -0.122566
-0.483722 0.00644237 -0.170704
-0.00355029 0.143348 -0.145729
0.0306417 0.139252 0.032201
0.00228896 0.134653 -0.0752059
0 0 0
-0.0349097 0.0418611 -0.0880344
-0.419703 -0.215914 0.481787
-0.0486974 0.0417724 0.0647168
-0.0982027 -0.0810891 -0.144698
-0.145159 -0.270477 -0.00323232
0.00481735 -0.215767 -0.353315
0.264651 0.367565 0.350966
-0.0398487 0.0170431 0.130172
0.0182311 -0.00437969 -0.00514804
0.0288763 0.0353563 -0.0937903
0 0 0
-0.00037228 -0.00801157 0.0165389
0.209717 0.562593 -0.0112375
0 0 0
0.0745242 -0.112605 -0.100687
-0.00167827 0.19454 -0.176159
-0.0901696 -0.316607 -0.299186
0 0 0
0.0493901 -0.0146446 0.00585143
0.0510449 -0.039961 -0.308243
-0.056052 -0.0271163 0.0598404
0.00162649 0.0151661 -0.0828671
0.213978 -0.0294151 0.0239943
-0.0881487 -0.0172212 0.13559
0.230834 -0.251457 -0.130077
0 0 0
-0.1898 0.15074 -0.12848
-0.0361609 0.0648295 0.0718367
0.00933991 -0.00686142 -0.00533136
0.151907 0.656751 -0.0814315
0 0 0
0 0 0
0 0 0
0 0 0
0.155502 -0.153419 0.358818
0.212716 -0.0881683 0.117584
0.119491 -0.0584353 -0.103342
0.0829617 0.123365 -0.253338
-0.00122903 -0.028241 0.0164992
-0.121185 -0.234973 0.198589
0.0648669 -0.0660764 0.0623844
0.462746 0.0823671 0.367416
0 0 0
0.263083 0.0454191 0.43423
0.159377 -0.0082545 -0.0384916
0.568478 -0.0882258 0.474742
0.145119 -0.0635872 -0.00805912
0.0896051 0.0535082 -0.00176693
0 0 0
0 0 0
0.0184953 -0.0916427 0.0537215
0.00236946 -0.10234 -0.0581776
-0.191139 -0.29176 -0.404433
-0.103986 0.00676135 -0.224468
0 0 0
0.00198603 -0.00203191 -0.024426
-0.327918 -0.206215 0.111511
0 0 0
0.153134 -0.0542873 -0.280212
0.166403 0.251445 0.118889
0 0 0
-0.0392765 -0.120731 0.132173
0 0 0
0.030559 -0.00150747 0.165517
-0.191109 -0.112323 -0.0377119
-0.289404 -0.193868 -0.207148
-0.0190447 -0.0316493 0.0247914
-0.206295 0.121623 0.0121174
0 0 0
-0.155202 0.0742656 -0.0304758
0.0532255 0.0537509 -0.0924219
0.101108 -0.039945 -0.0676779
-0.101626 -0.0431037 -0.0651896
-0.00750522 0.0148247 0.00474306
-0.208315 0.690105 -0.248661
-0.124364 -0.0263128 0.154826
0.282834 -0.314233 0.368257
0.00207674 0.0151739 0.0270421
0.309507 -0.370778 0.336597
0.0189937 -0.117967 0.101408
0.325536 -0.308161 -0.204328
0.284792 -0.00389659 -0.108772
0 0 0
0.00963306 0.260273 -0.316949
-0.225507 0.0281568 -0.0759395
-0.0100305 -0.205993 -0.00719297
0.126439 -0.0531723 0.00403008
-0.0805528 -0.403223 -0.300506
-0.237636 0.00678307 0.1831
0.0963047 -0.0137066 -0.0475814
0.20434 -0.200025 -0.0942149
0 0 0
0.183568 -0.0988076 0.128641
-0.017749 0.0151879 -0.0788942
-0.144117 0.0201549 -0.0665882
-0.427109 -0.224151 -0.0132121
-0.171195 -0.038047 0.0917776
-0.110668 0.223939 0.0206729
-0.35557 0.0617455 -0.0192094
-0.00155776 0.0504963 0.039395
-0.206079 0.170474 -0.150789
-0.0460746 0.00214162 0.00230312
0.0462968 0.161873 -0.248988
0.462543 0.237261 0.00272701
-0.00167997 0.0282852 -0.00900607
0.512073 0.327069 0.0683161
0.164618 0.123315 0.00950333
0.526206 0.0714082 0.123236
0.0627255 0.108078 0.00552502
0.237453 0.0265251 0.123481
0.132031 0.121931 0.0763461
-0.00674165 0.440841 -0.084818
0 0 0
-0.263523 -0.11263 -0.175911
-0.0661205 0.0369548 -0.220735
0 0 0
0.100813 -0.0366576 -0.377577
0 0 0
-7.80541e-05 0.199944 -0.0704065
0 0 0
-0.000447703 0.175971 0.0213358
-0.133535 -0.512648 -0.0291955
0 0 0
-0.0514088 -0.18131 0.00587777
0 0 0
0 0 0
-0.0579455 -0.0918202 0.0180659
0.00367753 -0.0380919 -0.19823
0 0 0
0.0245797 0.18218 0.000922721
0 0 0
0 0 0
0.144956 0.079605 0.127711
0 0 0
0 0 0
0 0 0
-0.270789 0.27774 0.315789
0 0 0
-0.374373 -0.193791 -0.0106258
-0.151063 0.0636289 0.0339183
-0.00296557 -0.00455953 0.000507967
0.0706999 -0.0588551 0.138721
0 0 0
0.0310205 0.0507208 -0.000130133
-0.0360816 -0.0170874 -0.126076
0 0 0
-0.13585 -0.00224336 0.0623347
0.162461 -0.0570618 -0.141241
0.299998 -0.261247 0.236462
0 0 0
0.350176 0.249593 -0.130126
0 0 0
0.0962627 -0.159741 -0.012862
0.0363184 0.00808119 -0.0460824
-0.0980688 -0.133205 -0.110355
-0.00100708 0.0537157 -0.106667
-0.223454 0.0612238 0.0264578
0 0 0
-0.0286844 0.386246 -0.00675464
0 0 0
-0.300164 -0.1721 -0.0310107
0.224864 -0.191285 -0.101989
0 0 0
0.180403 0.0732707 -0.0246705
0.176426 0.103491 0.0906077
0.303569 0.0231904 -0.354407
0.172661 -0.0161091 0.0213946
0 0 0
0.251762 -0.0881779 -0.0720863
0.140485 0.04072 -0.176205
0.0388029 0.141214 0.0868906
0.0399753 0.0095863 0.160503
0 0 0
-0.0848171 -0.221342 0.19185
0 0 0
0 0 0
0 0 0
0.00497982 -0.0854261 0.00175755
0 0 0
-0.000738864 -0.0674526 -0.0183482
-0.157177 -0.130122 0.018129
-0.0346786 -0.00531791 0.00348815
0.0196991 0.0274595 -0.0247066
0.0756583 -0.270544 0.150938
0.00295008 -0.220677 -0.200468
0.0108947 0.222748 -0.163009
0.0478501 -0.0971155 -0.268002
0 0 0
0.0453371 0.149866 -0.00480279
0 0 0
0 0 0
0.0343876 0.290736 -0.532526
0.429261 0.143013 0.0269507
0.10462 -0.0406546 0.0332365
0 0 0
0.47328 0.152462 -0.0976341
0.285034 0.112782 0.0208457
0 0 0
0.128017 -0.0875554 -0.0844923
0 0 0
0.18405 -0.0428095 -0.000507292
0 0 0
0 0 0
0.070974 -0.0445377 -0.0306528
0.0530347 -0.120663 0.0618941
0.19331 -0.345244 0.0743951
-0.100861 -0.0891723 0.0482306
0 0 0
-0.0774281 -0.221338 -0.350065
-0.0516891 0.293446 -0.294976
-0.126365 -0.0264962 0.132181
0.134388 -0.186987 0.120401
0.181958 -0.107355 0.41986
0 0 0
0.139909 -0.223516 -0.0618424
0 0 0
0 0 0
-0.0317932 0.163807 -0.0651369
0 0 0
0.120669 -0.134779 0.0273865
0.049506 -0.0698869 -0.0394532
-0.0253333 0.00579197 0.201621
0 0 0
-0.05368 0.118051 -0.157644
-0.0685775 -0.00968381 -0.17705
0.0224946 0.000400074 0.0405206
0.00435288 -0.0200723 -0.0521006
0.242357 0.207418 -0.282613
-0.000302206 -0.0344688 0.0213319
-0.00920821 -0.0786379 -0.00116496
-0.0285661 0.00108147 0.0160199
0.0655275 0.0156311 -0.0681506
0.146901 -0.386493 0.0283365
0.000639732 -0.203924 -0.185218
0.222341 -0.0121606 0.247725
0.147883 0.0380509 0.519898
0.0131364 0.0544709 0.0320384
0.0226935 -0.375949 -0.0910783
0.0686639 -0.202733 0.278822
0.194469 -0.0747087 -0.108339
0.217386 -0.0285217 -0.038352
-0.00132677 -0.169892 -0.0469887
0.143784 0.20431 0.243268
0 0 0
0.177242 -0.0666723 0.187334
0 0 0
0.045794 -0.033231 0.291232
0 0 0
-0.238964 0.527071 0.287556
0.059576 -0.0373773 0.0575513
0.0280435 0.174223 0.133718
0.0690302 7.42916e-05 0.00930191
0 0 0
0.0929916 0.189385 -0.183213
0 0 0
0.0439027 -0.13045 -0.28937
0.192981 -0.230893 -0.265774
-0.18448 -0.101609 -0.0669468
0 0 0
-0.0365515 0.348995 -0.534553
0 0 0
-0.15857 0.0744932 -0.0224115
-0.0180039 -0.0680131 -0.0602573
0.0258229 -0.181054 0.00704784
-0.188363 -0.0982635 -0.157756
0 0 0
0.167331 -0.0659451 -0.190396
0 0 0
0.130408 0.156621 -0.0796307
0.0935725 -0.00221828 -0.0555122
0.0881664 -0.201454 0.0448953
0 0 0
-0.0960104 -0.0123228 0.0994923
-0.00872494 -0.191442 -0.328125
0 0 0
-0.190545 0.0248861 -0.048765
0.150531 0.0120548 -0.30865
0 0 0
-0.055096 0.0722944 -0.000802452
0.196983 0.0682386 0.081903
0.0354896 0.164013 -0.11974
0.0973233 -0.0718604 0.241141
-0.125043 -0.0689744 0.0427132
-0.103708 0.103495 -0.270241
0 0 0
0 0 0
-0.00520328 0.000174467 0.00173788
0 0 0
0 0 0
-0.193321 -0.231215 -0.13873
-0.00216448 -0.158768 -0.0927832
-0.114144 0.0799922 0.0134822
0 0 0
0.114852 -0.00343315 0.0471961
0.0161163 0.0754248 -0.081042
-0.0166424 -0.235117 -0.214092
0.0461465 -0.222942 -0.0126173
-0.0155532 0.012006 0.0252723
0.209495 -0.160457 0.0722757
-0.0749919 0.0419194 -0.0285427
0.14239 0.0186384 0.125053
0 0 0
0.119853 0.0386657 -0.0271292
0 0 0
0.0373004 -0.123444 -0.51572
0 0 0
0.274456 -0.605524 -0.251575
0 0 0
0.221311 0.000956593 -0.00915322
-0.148658 -0.177238 -0.277763
-0.250927 -0.0705634 0.0933812
-0.337763 -0.017112 0.0940596
0.124407 0.128776 0.00856769
0.0793737 0.109643 0.190485
0.0689243 0.0726806 0.0152171
0.058337 -0.0261533 0.315456
-0.187033 0.206761 0.0249235
0.113112 -0.183371 0.171983
0.0730968 0.0140671 0.0907429
-0.116642 0.040857 -0.0400521
0.158595 -0.395504 0.15039
0 0 0
-0.286402 -0.0926597 -0.0637046
0 0 0
-0.0139571 0.27298 -0.0225709
0 0 0
0.0953915 -0.049129 0.00592294
-0.0790218 -0.0500524 0.000769084
0.18998 -0.104255 -0.242965
-0.00517843 0.151005 0.12389
-0.0115822 -0.476357 -0.0052546
0.00869081 -0.0413017 0.00347991
-0.0469291 0.00484336 -0.0666072
0 0 0
-0.0557306 -0.115265 -0.024403
-0.0717101 -0.0463187 -0.0854442
0.0436869 0.0236572 -0.000758749
0.0547866 0.251026 0.032551
0.0524138 -0.0534371 -0.0479973
0.337811 -0.265884 -0.117174
-0.00244104 0.0364615 -0.0676721
0.344125 -0.0897603 0.277555
8.1192e-05 0.217876 0.099618
-0.0852863 0.303733 0.00702122
0.0570199 -0.153347 0.319201
-0.281815 0.163579 0.337182
-0.174799 -0.268471 -0.351379
-0.0161443 -5.95816e-05 -0.0181727
0 0 0
0.0403001 -0.0269079 0.139131
0.0546786 -0.0547152 -0.0625924
-0.217939 0.0698991 -0.446274
-0.0235888 -0.0722455 -0.0486882
0.134731 -0.145255 -0.103477
0.292472 -0.19749 -0.130364
-0.0627476 0.263318 0.0603272
0 0 0
0 0 0
0.0920492 -0.00175076 -0.0102116
0.00783687 -0.0836535 -0.107214
0 0 0
0 0 0
0 0 0
0 0 0
-0.0339264 -0.155838 0.24817
0.0150029 0.145599 0.0992578
-0.078727 -0.148133 0.145389
0.109564 -0.115461 -0.00144683
0 0 0
-0.0204505 -0.057433 -0.0741483
-0.156508 0.448694 0.032723
0.0126086 -0.166835 0.104
0 0 0
-0.0687601 0.269261 -0.00543248
0 0 0
0.283612 0.203749 -0.0743682
0.0171205 0.00908979 0.00517838
-0.0815242 0.0639787 -0.0611557
0.119443 -0.0892413 -0.00541207
0.0804307 -0.0301031 0.00685506
0 0 0
-0.0574135 -0.0791835 0.0730494
-0.142462 0.207549 0.182723
-0.044988 -0.109147 -0.25608
-0.0154923 -0.461485 0.0891846
0 0 0
-0.00415834 -0.0316107 -0.0958195
0.202859 -0.215936 0.344325
0 0 0
0.277412 0.256957 -0.194717
0.04817 -0.044 -0.134703
0.311028 0.15119 -0.14795
0 0 0
0 0 0
0 0 0
0 0 0
0 0 0
-0.216469 0.0460071 0.00504011
-0.0220893 -0.0421542 0.00089692
-0.0885484 -0.147597 -0.239435
0 0 0
0.113271 -0.160467 0.629176
0 0 0
0.0030884 -0.0222662 0.0222317
0.0487867 -0.219792 0.0330721
-0.163041 0.273804 -0.145474
0.122876 0.235745 0.418833
0 0 0
0.28622 -0.0902458 -0.103883
0.11275 -0.0313451 0.00273884
-0.0251042 0.0687264 0.00208657
0 0 0
0 0 0
0 0 0
0.041309 -0.385446 -0.16635
0.102715 -0.0229466 -0.137102
-0.00409653 -0.0081191 -0.0968198
-0.114294 -0.1749 0.552136
-0.0339126 -0.0385885 0.00354541
0.018537 0.26198 -0.276903
-0.00177656 -0.0410473 -0.0552798
0.073267 -0.0235578 -0.574315
0 0 0
0.0117567 0.0205754 0.00054579
0 0 0
0.325471 -0.00816727 0.14603
0 0 0
0.0680799 -0.165693 0.0199259
0 0 0
0 0 0
0.0121943 0.0190931 -0.213485
0 0 0
-0.0149077 -0.202188 0.0764266
0.0288066 -0.0193701 0.0347522
-0.0532335 -0.114652 -0.165153
0 0 0
0.34038 -0.105158 -0.0971991
-0.00154391 -0.0239241 0.244009
-0.00166103 0.0446225 0.0907286
0.497094 -0.053411 -0.0155158
0.0455524 0.0635354 0.0285548
0 0 0
-0.14276 0.017955 0.097608
-0.0219027 -0.000474465 0.0267911
-0.0203521 -0.000469603 0.00977637
-0.0144983 0.0310893 0.156111
0 0 0
0 0 0
0 0 0
-0.109444 -0.112026 0.00910793
-0.00752795 0.000570106 0.0120739
0.135471 0.112473 0.43279
0 0 0
0 0 0
0.012686 0.0357205 -0.0506555
0.100026 -0.0378707 -0.551949
0 0 0
0 0 0
0.248233 0.121274 -0.0983491
0 0 0
-0.190541 0.194569 -0.174486
0 0 0
-0.0522715 0.321764 -0.0626254
0 0 0
0 0 0
-0.00955245 0.0221354 -0.0783854
0.0120155 -0.112764 0.144921
0 0 0
-0.10868 0.136445 -0.287873
-0.0419252 0.0323507 0.0382126
-0.0332526 -0.120152 -0.064086
-0.0184604 -0.0413036 0.0185378
0 0 0
0 0 0
-0.07691 0.166279 -0.0309906
-0.142584 -0.208466 -0.157672
0.00984482 0.0194086 0.0824216
0.0200202 0.0767033 0.0336196
-0.0364844 -0.127354 0.107075
0.0915294 -0.0996424 -0.0741267
0.134402 0.0954416 0.0856523
0 0 0
0.0952247 0.124936 -0.0419626
-0.152341 -0.145658 0.104972
0 0 0
0.068075 0.160147 -0.102671
0.00707087 0.24409 0.105685
0.160761 0.130922 -0.314842
0.0620016 -0.186623 0.063333
0.111827 -0.0171963 -0.29827
-0.138963 -0.323799 0.0934555
-0.0092436 -0.0415873 0.029675
0 0 0
0 0 0
0.132405 0.193108 -0.077879
0 0 0
-0.147421 -0.0614473 -0.213835
0 0 0
-0.0515325 0.0496134 -0.238314
0.000898696 -0.110862 0.0558023
-0.196529 -0.0442654 0.0471012
0 0 0
0 0 0
-0.156392 0.27651 -0.280229
0 0 0
-0.124202 -0.0130108 -0.0341429
-0.218483 0.0301906 -0.0546465
0.0067417 0.118931 -0.00213344
-0.0617643 0.0954267 0.0906442
-0.116188 -0.250482 0.0529657
-0.141416 -0.0592495 0.197724
-0.0518381 -0.094658 0.00463915
0 0 0
0.211552 0.0291762 0.44109
0 0 0
0.145425 0.055231 0.0803181
0.142883 -0.113344 -0.0713572
-0.107143 -0.0513117 0.00241872
-0.0233292 -0.0586548 -0.0363425
-0.0915152 0.149065 0.183019
0 0 0
0 0 0
0.0609369 0.383164 0.114264
0.00797403 -0.00206122 0.095669
0 0 0
0 0 0
-0.148403 0.140692 -0.0475767
0 0 0
-0.202618 -0.1799 -0.194566
0.0154594 -0.0537466 -0.074678
0.0265475 -0.0267346 0.0571658
-0.21376 -0.124287 5.48349e-05
-0.0507783 0.102832 0.0750434
0.000767437 -0.0222882 0.0674157
0.0918612 -0.0348346 0.209103
0.378844 -0.139405 0.0159021
0.202536 -0.172525 0.342263
0.307142 -0.190009 -0.116029
0.185043 -0.0271258 0.112661
-0.159384 0.2907 0.0473708
-0.0372758 0.185333 -0.0868338
0 0 0
0.276607 -0.0939081 0.10227
0.0956743 -0.0414398 0.0819845
0.0101513 0.0117189 0.039073
-0.0166996 -0.0393224 -0.0323831
-0.214858 0.218114 -0.212847
0.000517478 -0.086238 -0.380354
0.00534923 0.00206609 -0.0108743
-0.0276232 -0.185406 0.00482771
0 0 0
0 0 0
0 0 0
-0.234993 0.079256 0.259607
-0.00237349 0.0209687 -0.070943
0.0792624 0.0179866 -0.0521164
0.185895 0.265968 -0.0967271
0.0242183 0.117078 0.00508506
-0.0207765 -0.040196 0.0134531
-0.279588 -0.20157 0.109755
-0.0781871 -0.254343 -0.0690324
0 0 0
0.0814684 -0.234622 0.104685
0 0 0
-0.185316 -0.334012 -0.183379
-0.156959 -0.234523 0.0311343
-0.0360195 -0.136073 0.202117
-0.14219 -0.253724 0.0719283
-0.128246 0.0913612 0.0929379
-0.035319 -0.236794 0.210484
0.0205599 -0.195841 -0.0458564
0.0232071 0.57004 -0.474138
0.142387 0.149106 -0.0658932
0.225677 0.0651428 -0.0730988
0 0 0
-0.0882621 0.0936114 -0.00941838
-0.27398 0.177708 0.108702
0.12162 0.0243665 0.055545
0 0 0
-0.207831 0.189533 -0.29479
-0.112419 0.0566111 -0.142326
-0.313904 -0.135266 0.157271
-0.094427 0.0445891 0.0522661
-0.0859241 0.0860813 0.179413
-0.0358033 -0.168799 0.0532561
0 0 0
0 0 0
-0.0879337 -0.0631839 -0.0807123
0 0 0
0.194189 -0.00987052 -0.0631002
0.0684984 -0.0271867 0.000823799
-0.0626683 0.0207679 0.0107753
-0.104869 0.0174171 0.0365172
-0.123586 -0.00336526 -0.154527
-0.101569 0.00606523 0.0801935
-0.0984731 0.165568 0.00237397
0 0 0
-0.0437586 -0.27248 0.111423
0 0 0
-0.00113027 -0.00166918 0.0373971
-0.0196768 -0.0683771 0.087032
-0.127882 -0.0204734 0.322279
-0.000502796 -0.10913 0.055401
-0.0512458 0.26906 -0.0623182
0 0 0
0.125004 0.0155199 -0.00702638
0.172421 0.103401 0.105362
0.0548031 0.0111198 -0.0103578
0.0193222 -0.0854708 0.168555
-0.00467931 -0.0120685 -0.0941597
-0.126601 0.0304071 0.15174
0 0 0
0 0 0
0 0 0
0 0 0
0 0 0
0 0 0
0 0 0
0 0 0
0 0 0
0 0 0
0 0 0
0 0 0
0 0 0
0 0 0
0 0 0
0 0 0
0 0 0
0 0 0
0 0 0
0 0 0
0 0 0
0 0 0
0 0 0
0 0 0
0 0 0
0 0 0
0 0 0
0 0 0
0 0 0
0 0 0
0 0 0
0 0 0
0 0 0
0 0 0
0 0 0
0 0 0
0 0 0
0 0 0
0 0 0
0 0 0
0 0 0
0 0 0
0 0 0
0 0 0
0 0 0
0 0 0
0 0 0
0 0 0
0 0 0
0 0 0
0 0 0
0 0 0
0 0 0
0 0 0
0 0 0
0 0 0
0 0 0
0 0 0
0 0 0
0 0 0
0 0 0
0 0 0
0 0 0
0 0 0
0.0538094 -0.032003 0.0264252
-0.104174 0.01467 0.105935
0 0 0
-0.112161 0.0696624 -0.0445579
-0.0982617 0.0350139 0.154441
0 0 0
-0.0996591 0.00501588 -0.0276971
0.0595723 0.132581 0.133601
0.0630504 -0.0432302 -0.0459126
-0.0188376 -0.0165364 0.0663795
0 0 0
0.0131646 0.0890439 0.033983
-0.0137836 -0.0184341 0.136173
0 0 0
-0.0134913 0.123725 0.0870873
-0.0234258 0.132737 -0.0102232
-0.0633091 -0.194211 0.224573
-0.0286191 0.00845284 -0.0279281
-0.00196415 -0.0269563 -0.0353185
0.153959 -0.0245102 -0.140428
0.0490116 -0.0375629 0.104274
0 0 0
0.0309677 -0.0510947 -0.0218384
-0.00512682 -0.135778 -0.259879
-0.101315 -0.00694187 0.228843
0.00577967 0.0619374 -0.022689
-0.018778 -0.00449692 -0.101497
-0.168738 -0.0694306 0.0711445
0.0236681 0.00945555 -0.076528
0 0 0
-0.00284135 0.0549341 -0.00894795
0.0467575 0.0228849 -0.0909564
0.0482884 -0.0937806 0.00929753
0.0399594 -0.000716467 0.00615313
0 0 0
0.108479 -0.00614215 0.0076599
-0.00149397 0.0501861 -0.0594226
0 0 0
0.1389 -0.0101675 -0.0297795
0.0173227 0.060702 -0.000489203
0.0012025 -0.0856799 -0.0258837
0.0327495 0.0058134 -0.282272
0 0 0
0.0782234 0.00605623 -0.0338269
-0.00609771 -0.00102219 -0.0742139
0 0 0
0.0413782 -0.00822277 -0.0107152
0.0550718 0.0282989 -0.12482
0.0654957 -0.0988955 -0.0300581
0.0512337 -0.0278157 -0.000544779
0 0 0
-0.00606797 -0.00184803 0.111569
-0.0457224 0.101283 0.0515082
-0.00152551 -0.0491045 -0.0181031
-0.0224076 -0.096683 -0.0112787
-0.00703432 -0.165909 0.377381
-0.0283849 0.206183 -0.452386
-0.0406881 0.0679931 0.111033
0 0 0
0.033145 -0.0729132 -0.0433326
-0.0313378 -0.000301929 0.0916122
0 0 0
-0.0390349 0.0373757 -0.0156904
0.045045 0.0954249 0.0415928
2.33532e-05 -0.417493 -0.146767
0.223459 0.151585 -0.221474
0.00177849 0.0665824 -0.0400851
-0.0515844 -0.0801621 0.00851175
0 0 0
-0.0734774 0.305085 0.0308114
0.151774 -0.0833758 0.0447303
0.0990226 -0.046466 0.0525782
0.099195 -0.162008 -0.147696
-0.00793208 -0.0225039 0.486489
0 0 0
0 0 0
-0.18438 0.0543912 -0.00524266
-0.130822 -0.0642753 0.188255
-0.123259 0.154717 0.0601626
-0.178896 0.0777487 0.177085
-0.00797182 0.0483317 -0.0364742
-0.0013837 -0.20403 0.0153535
-0.0569739 -0.26023 0.216954
0.355751 0.0744004 -0.0298099
-0.203436 0.67284 -0.203749
0 0 0
-0.0539301 0.123053 -0.043784
-0.0361899 0.0235645 0.0611207
0.230748 -0.127283 -0.166676
0.548711 0.0776356 0.316484
0.260636 -0.182252 0.406642
0.397056 0.0959693 -0.150631
0.115002 -0.151232 -0.0345182
-0.0664948 -0.000718395 0.0832793
0 0 0
0.194909 -0.366653 -0.16406
-0.0209106 0.0425776 -0.258857
-0.0252714 0.0509547 0.125932
0 0 0
0.00843275 -0.0366381 0.112957
0.332129 -0.294827 -0.100611
0.0638076 0.0520424 -0.0104063
0.019898 0.0705009 0.0980238
0.230701 -0.0691092 -0.479909
-0.186206 -0.23865 0.0291985
-0.00300593 0.124498 0.0586741
0.127194 0.0179273 0.0273791
0.202295 0.133961 -0.0669673
0.174231 -0.511057 -0.0321811
-0.0779292 -0.018398 -0.0936581
0.0221486 -0.154796 -0.0225261
0 0 0
-0.0736367 -0.093301 -0.121854
-0.00301917 0.0312357 0.0467149
0.211645 0.00719003 0.0858377
0.0430632 0.0172792 -0.300287
-0.0186248 0.0524167 0.0268628
0.0658416 0.0399042 0.084306
0.00109108 0.114372 0.000188817
0.00836492 0.0123061 0.0215514
-0.0134008 -0.124313 -0.0560041
0.131218 0.388613 -0.00592533
-0.147973 0.00731626 -0.0216745
-0.200662 0.0678335 -0.111024
0.222251 -0.491452 0.00223775
0.614912 -0.217897 -0.576636
0.334729 0.0676376 0.237935
0.242568 -0.463245 0.144773
0 0 0
0.160815 0.195887 0.141936
0 0 0
0 0 0
-0.178585 -0.214606 0.0899783
0 0 0
0.0559782 -0.146054 0.0683145
-0.000281441 -0.0166896 0.0142582
0.097985 0.0479225 -0.178228
0.018183 0.0689744 0.131074
-0.17015 0.0631661 0.0326479
-0.00290919 -0.318294 -0.352011
0.0357514 -0.155682 -0.21267
-0.426911 -0.0312491 0.226704
-0.101689 -0.105231 -0.0222332
0 0 0
-0.0656707 -0.15045 0.0876497
-0.103259 -0.0989052 0.303669
0.146426 -0.0288436 -0.118122
-0.0260785 0.0391822 -0.180663
-0.0698286 0.127347 -8.95843e-05
0 0 0
-0.00467792 -0.0136274 0.0238657
-0.100042 -0.00855079 0.194216
-0.201934 0.485306 0.484769
0 0 0
-0.0121475 0.00259349 0.0234883
0.0176597 -0.0986403 0.0568277
0.137655 -0.75386 0.10433
0.0214508 -0.0273326 0.0347419
-0.0574963 -0.00179334 0.000285036
0.143358 0.109739 0.0701583
-0.0319216 0.18377 0.0153472
0.0238161 0.255073 -0.071465
0 0 0
0 0 0
-0.0119665 0.0797352 0.103822
0.0665782 0.646479 0.0352223
0 0 0
0.119521 0.300236 0.591824
0 0 0
-0.0251037 -0.0758786 -0.0518573
0.0823503 -0.275414 0.000312941
0 0 0
-0.0300663 -0.00232817 -0.0604439
-0.00288426 0.109441 0.21223
0.0376088 -0.0490741 -0.0646843
0.469769 -0.134873 -0.209259