<?xml version="1.0"?>
<VTKFile type="RectilinearGrid">
<RectilinearGrid WholeExtent="0 32 0 32 0 32" Origin="0 0 0" Spacing="1 1 1">
<Piece Extent="0 32 0 32 0 32">
<PointData>
</PointData>
<Coordinates>
<DataArray type="Float32" format="ascii">
0 0.524874 1.04975 1.57462 2.0995 2.62437 3.14924 3.67412 4.19899 4.72386 5.24874 5.77361 6.29849 6.82336 7.34823 7.87311 8.39798 8.92285 9.44773 9.9726 10.4975 11.0224 11.5472 12.0721 12.597 13.1218 13.6467 14.1716 14.6965 15.2213 15.7462 16.2711 16.796 
</DataArray>
<DataArray type="Float32" format="ascii">
-5.03879 -3.62163 -2.20447 -0.787311 0.629849 2.04701 3.46417 4.88133 6.29849 7.71565 9.1328 10.55 11.9671 13.3843 14.8014 16.2186 17.6358 19.0529 20.4701 21.8872 23.3044 24.7216 26.1387 27.5559 28.973 30.3902 31.8074 33.2245 34.6417 36.0588 37.476 38.8931 40.3103 
</DataArray>
<DataArray type="Float32" format="ascii">
0 0.524874 1.04975 1.57462 2.0995 2.62437 3.14924 3.67412 4.19899 4.72386 5.24874 5.77361 6.29849 6.82336 7.34823 7.87311 8.39798 8.92285 9.44773 9.9726 10.4975 11.0224 11.5472 12.0721 12.597 13.1218 13.6467 14.1716 14.6965 15.2213 15.7462 16.2711 16.796 
</DataArray>
</Coordinates>
<CellData>
<DataArray type="Float32" Name="Vector" NumberOfComponents="3" format="ascii">
0 0 0
0 0 0
0 0 0
0 0 0
0 0 0
0 0 0
0 0 0
0 0 0
0 0 0
0 0 0
0 0 0
0 0 0
0 0 0
0 0 0
0 0 0
0 0 0
0 0 0
0 0 0
0 0 0
0 0 0
0 0 0
0 0 0
0 0 0
0 0 0
0 0 0
0 0 0
0 0 0
0 0 0
0 0 0
0 0 0
0 0 0
0 0 0
0 0 0
0 0 0
0 0 0
0 0 0
0 0 0
0 0 0
0 0 0
0 0 0
0 0 0
0 0 0
0 0 0
0 0 0
0 0 0
0 0 0
0 0 0
0 0 0
0 0 0
0 0 0
0 0 0
0 0 0
0 0 0
0 0 0
0 0 0
0 0 0
0 0 0
0 0 0
0 0 0
0 0 0
0 0 0
0 0 0
0 0 0
0 0 0
0.00491198 0.0721674 0.0670166
0.0349068 0.0882583 -0.0175555
0 0 0
0.109933 0.120189 0.0262935
0.0774431 0.184442 0.0427704
0 0 0
-0.0556222 0.0384852 0.0437665
0.096044 0.0465735 0.0728086
0.0714587 0.0132882 -0.0263173
-0.088709 -0.0640338 0.0838089
0 0 0
-0.0243915 0.0774214 0.12207
-0.423058 -0.223325 -0.0281989
-0.000799368 0.00715514 0.0279523
-0.236228 -0.0782922 -0.00991961
0.0801167 -0.0772558 0.136231
0.1344 0.0489361 -0.0892826
0.204113 -0.131293 -0.0326216
0 0 0
0.10079 0.157554 0.0118951
-0.0181961 0.0430711 0.0673152
0 0 0
-0.158103 0.116006 0.0457013
0.0760904 0.0043217 -0.00164838
0.123205 -0.111955 -0.00345159
-0.16194 0.062421 0.00298391
0.0294779 -0.0748694 0.0109651
0.135113 0.0914831 0.0210685
0.119746 0.0788188 0.0214888
-0.00459639 0.0286542 -0.039655
0.0598128 -0.178849 -0.0624014
-0.118908 0.00627628 -0.0569046
-0.039201 -0.0977557 0.04038
0.0110575 0.0151761 0.0525021
0 0 0
0.0706013 -0.176532 -0.0276877
0.0541332 0.0504001 -0.012411
0 0 0
-0.0584928 -0.237051 0.0631159
0 0 0
-0.0349251 0.0383542 -0.0443477
-0.249602 0.146931 0.0420525
0 0 0
0.0157579 -0.00729975 0.0320516
-0.419151 -0.2318 -0.00395788
0 0 0
-0.0523943 -0.0164481 -0.0190619
0.035272 0.0809384 0.14026
0.068913 0.186932 -0.0971699
0 0 0
0 0 0
-0.107088 -0.0608429 0.0339841
0.117822 0.0359922 -0.0396525
0 0 0
-0.138437 0.0291385 -0.0310149
0 0 0
0 0 0
0.206244 -0.159545 -0.0011053
-0.0118826 -0.00328186 -0.00153409
-0.0686902 0.0424614 -0.0364015
-0.0621427 -0.12929 -0.00277605
0 0 0
-0.0221599 -0.0388298 0.0717518
-0.0245994 -0.00780463 -0.0404022
0 0 0
0.307745 -0.122633 -0.00229825
0 0 0
0.336718 0.0414821 0.022048
0.193258 0.0530076 -0.104493
-0.170886 0.00767339 -0.143771
0 0 0
0.0291921 0.498892 0.308349
0.02131 0.0303209 -0.0231195
0 0 0
-0.103981 0.0280593 0.114851
-0.0157719 -0.132089 -0.0336946
-0.103131 -0.171318 0.0774651
0 0 0
0.0213015 0.040066 -0.0625531
0.12105 -0.0139792 -0.191443
-0.111506 -0.113223 0.131685
0.186157 -0.171092 -0.0376218
-0.136542 -0.113134 -0.19388
0 0 0
-0.00924777 -0.0200604 -0.0226271
0 0 0
0 0 0
-0.10291 0.131793 0.105479
0.0391325 0.119992 0.0742873
0 0 0
-0.238957 0.134215 0.000485349
-0.05942 -0.10128 0.00140195
0 0 0
0.0934718 -0.228682 -0.000773402
-0.235395 0.167547 0.141636
0 0 0
-0.240163 0.359655 -0.336084
-0.106592 0.00483798 0.0309451
0.0253537 0.0487529 -0.131018
0 0 0
0.0458123 -0.132728 0.102102
-0.0015663 0.0365732 0.0149426
0.217312 -0.119599 -0.000971411
0 0 0
-0.0209504 0.236994 0.329924
-0.0738885 0.16693 0.129717
-0.260317 -0.319184 0.108202
0.0694387 -0.0204946 -0.216109
-0.0532259 -0.0101436 -0.0243669
0 0 0
0 0 0
0.0737192 0.0769639 -0.112942
-0.122742 -0.180122 -0.119319
0.000528904 -0.0516245 0.00491787
-0.305108 -0.122923 0.0265462
0.016593 0.0302966 -0.0500339
-0.109341 0.0929725 0.0285134
-0.000160259 -0.0495229 0.0761419
0.00159905 0.206129 0.0516182
0 0 0
-0.0210132 -0.0623343 0.000268352
0.166999 -0.0113187 -0.346835
0.0175405 -0.00438013 0.000628601
0.00550252 0.134608 -0.143527
-0.110758 -0.137208 0.00599442
0 0 0
-0.0278514 0.0219996 0.120323
-0.000106641 0.0505426 -0.00120093
-0.192586 0.229686 -0.0878064
0 0 0
0.0432763 -0.0164003 0.0204287
0 0 0
-0.0319478 -0.0199403 0.443811
0 0 0
0 0 0
0.389388 0.106509 0.102714
0.159168 0.207294 0.400815
0 0 0
0 0 0
0.00221671 0.171374 0.0607942
0.0889779 0.164723 -0.244243
0.0726942 -0.18149 0.241493
-0.143879 -0.0790897 0.0769617
-0.219219 0.14967 -0.220001
0.0065801 0.0706299 -0.0236125
-0.00149719 -0.340766 0.0909524
0.0848508 -0.0722886 -0.0890491
0.0109257 -0.00664473 -0.00595672
-0.135112 0.297954 0.0228837
-0.0227473 -0.039907 0.0910898
0 0 0
0.00503152 0.00261973 -0.0052706
0.0102446 -0.00714789 -0.0373356
-0.0235358 -0.220401 -0.184407
-0.0456968 -0.0678761 -0.028936
-0.189166 0.343983 -0.137237
-0.0892727 0.0085125 0.0599071
-0.0835464 -0.107523 -0.0431393
0 0 0
0 0 0
-0.066876 0.131924 0.00053454
-0.170309 0.290177 0.0116257
-0.077033 0.134172 0.165024
0 0 0
-0.184152 0.0694788 0.0697744
-0.346298 -0.175136 0.11863
-0.042739 -0.0217634 -0.0486292
0.0296261 0.119187 0.0857479
0.115842 0.148876 0.0105327
-0.0559882 0.196174 0.0728941
-0.229846 0.142653 -0.197586
0.0396156 -0.0743453 -0.137723
0.0385996 0.0727651 -0.202535
0 0 0
-0.0808354 -0.0815412 0.0213402
0.00178337 0.0293794 0.116213
-0.00358999 0.295012 -0.216189
-0.010362 -0.0161591 -0.0540784
0 0 0
0 0 0
0.0409125 0.00444361 -0.109493
-0.0187698 -0.266948 -0.142438
0.0254923 -0.005039 -0.0792579
0 0 0
0.0133933 -0.126346 -0.00145082
-0.014947 -0.453665 -0.126809
0.16086 -0.0262444 -0.16734
0.00641541 0.0178022 -0.156512
0.233773 0.270651 0.0676737
-0.0192448 0.0519801 -0.00453841
0.0111688 -0.000159116 0.0157823
0.0335195 0.134892 0.216402
0.153104 -0.0251951 -0.465087
0.115693 -0.11964 0.0463906
0.265836 0.190446 -0.00146662
0 0 0
-0.232988 -0.0927499 0.137467
0.182377 -0.0970686 -0.156944
-0.249266 -0.121237 0.0560156
-0.0141266 0.00611705 -0.0200638
0 0 0
0 0 0
-0.225938 -0.0742898 -0.194408
-0.214383 0.00258269 -0.0927484
0.0480189 -0.199404 0.30298
0 0 0
-0.31515 -0.265301 -0.0802411
-0.137837 0.029232 0.0689121
0.254896 0.0229753 0.0683955
0.0365817 0.0256618 0.0207465
0.0742376 0.0537901 0.0669216
0.194431 0.302867 -0.0326838
0 0 0
0.0385533 -0.00417607 0.00218308
0 0 0
0.27034 0.108022 0.0106752
0 0 0
0.0458 -0.172353 0.163447
-0.0654924 -0.00046675 0.121473
-0.359677 0.101909 0.297847
0.00235241 0.38424 -0.143632
0.42814 -0.183294 0.209218
0.629313 -0.00230849 -0.0477254
0.00333285 0.148664 -0.0178626
-0.0329065 -0.163639 -0.0283619
0.0890334 -0.0222983 -0.0616718
0.0210946 -0.0497485 -0.0711282
-0.314165 0.0966631 -0.0865136
0 0 0
-0.418074 -0.251618 -0.255962
0 0 0
0.104682 -0.156249 -0.301516
0.0428419 -0.017738 0.06654
0.353019 0.00105866 0.0674728
-0.273357 -0.0148671 -0.0139331
-0.114418 -0.0561597 0.0717527
-0.0329286 -0.116157 -0.0376727
0 0 0
-0.0178015 -0.0263719 0.0160882
0.0364007 -0.260984 0.260782
0 0 0
-0.0451288 0.012761 0.221417
0 0 0
0.0223755 0.0730104 0.100275
0 0 0
0.0376726 -0.00127088 -0.0190858
-0.111929 -0.00398905 -0.0139433
0.291039 0.165916 -0.046081
0.0783576 0.00651479 0.0037405
0.176223 0.112511 0.0490224
-0.00104546 -0.0393517 0.0792183
-0.118149 -0.0480345 -0.111112
0 0 0
0 0 0
0 0 0
-0.132818 -0.122236 -0.278645
0 0 0
0.0697448 -0.0294303 -0.0505666
-0.212557 0.38616 -0.0758851
0 0 0
-0.119377 0.0897887 -0.0393323
-0.168888 -0.0943053 -0.188899
0.0380671 0.186964 -0.000981771
0.0294101 0.0569085 -0.0261542
-0.018437 -0.113166 -0.000326095
-0.458185 0.0171057 -0.0377789
-0.268195 -0.0362515 -0.0969697
0.211112 -0.107477 0.0607617
0 0 0
0 0 0
0 0 0
-0.0345401 -0.385221 0.408637
-0.0140326 -0.152283 -0.292884
0 0 0
-0.109329 0.281777 0.519509
-0.0663942 0.120283 0.258754
0.316683 -0.139564 0.155154
0.0436917 0.0743922 -0.264032
0.0889387 -0.211487 0.0301474
0.10492 -0.108326 -0.204078
-0.0669724 -0.182918 -0.00319298
0.0134183 -0.00170341 0.0177091
0.117716 0.00902685 0.0197031
0.149325 0.0511748 0.0384118
0.0206366 -0.161323 -0.0268939
0.0199312 -0.109341 -0.0827043
-0.0022538 0.146852 0.233567
0.00816669 0.122379 -0.0253821
0 0 0
-0.124803 -0.0110949 -0.0312378
-0.0496419 -0.0110171 -0.107577
0 0 0
0 0 0
0.105818 0.4569 0.361159
-0.157099 -0.00214934 -0.00683438
-0.201407 0.138236 -0.0625236
0 0 0
0 0 0
-0.120178 0.174241 0.000971905
0 0 0
0.132709 0.084484 -8.01937e-05
-0.101355 0.21597 0.319056
-0.199457 0.10901 0.0593486
-0.197125 0.0838658 0.182649
0 0 0
-0.0212467 0.131797 -0.188982
0 0 0
0.335233 0.0445158 -0.25362
0 0 0
0.0741175 -0.00423178 -0.0588771
0.0864728 -0.00889657 0.0605541
0 0 0
0 0 0
0 0 0
-0.117379 -0.0900534 -0.0507201
-0.167882 -0.507092 0.295685
0 0 0
0 0 0
0.00959572 0.0559931 -0.475305
0.00715176 0.04146 0.0263806
0.0384962 0.164199 -0.258505
0 0 0
-0.0266836 0.0956668 -0.0425604
-0.0829963 0.0894831 -0.12244
-0.0279936 0.0777789 -0.448524
-0.0163937 0.193532 -0.124175
0.0486179 0.0970797 0.0685056
0.0305778 0.0758143 0.0940166
-0.141684 -0.0645734 -0.0667403
-0.290907 -0.0989792 0.14772
0 0 0
-0.404525 0.30146 0.00853291
-0.0103848 0.0825536 0.0559702
-0.350011 0.313437 0.159024
-0.0285796 0.0870624 0.0774022
0.0328458 -0.0922089 -0.345447
0 0 0
0 0 0
-0.367992 -0.00260142 -0.17084
-0.107083 -0.0532069 -0.0994962
-0.297172 0.396907 -0.12232
-0.135559 -0.0637684 -0.562233
-0.365908 0.142099 -0.00952547
0 0 0
0 0 0
-0.012165 -0.00566056 -0.00750477
-0.114781 -0.132488 -0.00179628
0 0 0
0.0861349 -0.00210163 -0.289677
0 0 0
0 0 0
0 0 0
0.22912 0.0422825 -0.262372
0.173659 0.524607 -0.0800591
0.257245 0.0123703 0.152274
-0.0434664 0.260376 0.220989
-0.52736 0.18455 -0.167678
-0.187935 -0.0272439 -0.140711
-0.413958 -0.0141239 -0.100722
-0.529397 0.363552 0.0783215
-0.205158 -0.0234448 0.146678
0.0106895 -0.0630872 0.197083
0 0 0
-0.184506 -0.268384 -0.0646835
-0.0276376 -0.0181548 -0.10359
-0.0403121 -0.0180847 0.000586331
0 0 0
0.0143002 -0.0285717 0.00251647
-0.162566 0.347329 -0.189763
-0.105984 0.185028 -0.047059
-0.115078 0.0870346 -0.32795
0 0 0
0.0212441 0.530907 0.017109
0 0 0
-0.0903234 0.339249 0.0593037
0 0 0
0 0 0
-0.066573 -0.0813597 -0.0104309
-0.0777388 -0.276264 -0.021291
-0.178264 -0.131871 -0.26703
-0.300962 -0.0551493 -0.0985103
0.203358 0.00625431 0.1801
0 0 0
0.102665 0.712195 -0.0765643
0 0 0
-0.000786548 -0.000440982 -0.000631105
-0.396633 0.102576 0.0670061
-0.0325233 -0.194008 -0.100031
-0.000230154 0.0168289 -0.00712544
0.0454937 -0.0141764 0.0178641
0.236632 -0.358284 -0.336606
0.160703 0.0974455 0.178123
0.186426 -0.041851 0.277602
0.0204182 0.391394 0.0502506
-0.00436412 0.196534 -0.0772196
-0.156176 0.154992 -0.0356101
-0.266755 -0.316677 -0.390068
0.000436141 0.0837492 -0.0644226
-0.0383641 0.213188 0.133076
-0.0688106 -0.0404249 0.0722619
0.0700882 0.203016 -0.203664
-0.0406189 -0.138862 0.0446514
-0.049155 -0.00946384 0.160231
0 0 0
0 0 0
-0.0900553 0.118485 0.041588
0 0 0
0.0680376 0.426505 -0.0185871
-0.305021 -0.0799848 -0.120818
-0.0229886 0.00397457 -0.00207895
0.109601 0.269697 0.136276
-0.000686003 -0.0282178 -0.0991285
0 0 0
0 0 0
-0.0922644 0.0597094 -0.101571
-0.125866 -0.540632 -0.240957
0.335577 -0.0390853 -0.100445
0 0 0
0.05132 0.106787 -0.0614292
0.0182253 -0.175835 -0.211619
-0.0219227 0.490642 0.0955734
-8.68896e-05 0.160965 -0.0249791
0 0 0
-0.00111759 0.00125125 -0.00509196
0 0 0
-0.0707326 -0.219901 0.129237
-0.0223172 0.0114754 -0.00402632
-0.0923579 -0.0675541 0.000636654
0 0 0
0.132193 0.0470648 0.0758729
0.0240602 -0.033388 -0.0761804
0.0211205 -0.0349053 -0.0271601
0 0 0
-0.243393 0.196552 -0.0802647
0.0977689 -0.0276565 -0.105794
0.121649 -0.0159817 -0.316713
0.0517688 -0.0368887 -0.0251109
0.152023 -0.168287 0.0240973
-0.104432 0.0751874 0.0804743
-0.3021 0.104916 0.0490016
0.106496 -0.150734 -0.24482
0.030747 0.00280429 0.0507372
0 0 0
-0.0837807 -0.0157057 -0.0144089
0 0 0
0.0723644 0.0224822 -0.156405
0.244073 -0.167364 0.077334
0 0 0
0.166279 0.0908687 0.0200453
-0.050186 -0.0796644 0.0552704
0.0376162 -0.0745671 -0.0196181
0.00793643 -0.14102 0.292863
0.00370341 0.081112 -0.158452
0.1776 0.216561 0.0192745
0.280188 -0.201822 0.100668
0 0 0
0.0716381 0.197565 0.215271
0 0 0
0 0 0
-0.0788978 0.0270994 -0.0873524
-0.0647344 -0.00573091 -0.018194
0.0593976 -0.364929 -0.0107682
-0.0311075 -0.00253748 0.0573912
-0.149469 0.159461 0.00431082
0.0945528 0.030613 0.0617146
0 0 0
-0.153618 0.15484 0.234278
0 0 0
0 0 0
0 0 0
-6.65396e-05 0.0500534 0.0003377
-0.233559 -0.0289332 -0.246563
-0.193064 -0.232242 -0.0367267
-0.0808107 -0.0186819 -0.032745
-0.17873 -0.172937 0.0278364
-0.056249 -0.119976 -0.115206
-0.0422559 0.478849 0.00332437
-0.0174977 0.00612361 -0.0566927
0 0 0
0.143445 -0.030179 -0.00612454
0.0709022 0.00674069 0.293756
0.23253 0.173211 0.185591
0.126089 0.145043 -0.122867
0 0 0
0 0 0
0 0 0
-0.0305594 0.0955295 0.196841
0 0 0
-0.056733 -0.139529 -0.00209517
0.0542959 0.032474 -0.0409995
0.00663823 -0.00460155 -0.000663458
0.257099 0.135062 -0.0120647
0 0 0
-0.125071 -0.21886 -0.0875678
0 0 0
-0.207783 -0.0700651 -0.00607878
-0.0115528 0.0854334 -0.0199124
0 0 0
0 0 0
-0.135118 -0.490197 -0.198698
-0.180589 -0.233478 0.0013183
-0.299433 -0.0918838 -0.15744
-0.23075 -0.0777463 -0.19211
0 0 0
-0.123635 -0.0298649 0.0226927
-0.37506 -0.481505 -0.0199721
0.0838757 -0.0503594 0.186808
-0.00842631 0.199534 0.139853
-0.00393985 -0.00336933 -0.0140394
0.200884 0.00661445 0.123105
0 0 0
-0.0226055 0.260179 -0.203652
-0.100067 0.0594824 -0.0385395
0 0 0
0.0164969 0.0281075 -0.00761982
-0.139863 0.0915565 -0.447631
0.011965 -0.0258149 -0.0126195
0.0127164 -0.0622191 -0.0329353
0 0 0
0.119349 -0.0713167 -2.9021e-05
0.101013 -0.0906364 -0.306113
0.193467 0.149129 -0.185079
0 0 0
0.0657664 -0.111837 -0.100251
0.10892 -0.00659181 -0.163409
-0.12968 -0.149467 -0.117128
-0.0585053 -0.123682 0.0257966
0.0713552 -0.24325 -0.0810374
0.17074 0.0333731 -0.0270828
0 0 0
-0.138357 0.11308 0.140696
-0.057075 -0.170114 0.102994
-0.0256059 0.0234107 0.0269995
-0.13588 0.03211 -0.257742
-0.129622 0.0503912 0.109814
-0.139107 -0.158976 0.02129
0.111165 0.0560375 0.0268946
0.00283017 0.171535 0.0588013
-0.0963414 -0.325775 0.314726
-0.462538 -0.00103516 0.0383118
0.000841926 -0.0357195 -0.0789631
-0.26394 0.160465 -0.0170558
-0.0636629 -0.00223891 0.00317772
-0.0764291 0.169964 -0.278449
0.18718 0.0685974 -0.429082
-0.382419 0.0723556 -0.0246014
0.0325873 0.343701 -0.177269
-0.000319893 0.0916288 0.012682
0.491662 -0.251899 -0.0928862
0.105108 0.0631996 -0.113235
0.198533 -0.13916 -0.208887
0.0679491 0.075484 -0.0965645
0.165231 -0.00930169 -0.128401
-0.047501 0.165033 -0.347282
0 0 0
-0.161088 -0.0770447 -0.306199
-0.0494624 -0.227758 0.134092
0.00861787 0.296376 0.179757
0 0 0
0 0 0
0.0531984 0.0261279 0.00173523
-0.0751944 -0.174147 -0.130108
-0.284863 0.209383 -0.0208445
-0.0841874 0.198129 0.173543
-0.0241993 0.0256191 0.0422795
-0.0297661 0.0277784 0.0376658
-0.0794434 0.259284 0.000659795
-0.22267 -0.00858335 -0.188945
-0.17254 -0.0636168 0.0754868
0.0839506 -0.0686907 0.0454054
0 0 0
0 0 0
0.00391028 -0.0914992 -0.000683446
0.011499 -0.036743 -0.0911503
-0.00388068 -0.148384 -0.433784
-0.0491337 0.0152913 0.0540956
0.259855 0.214683 0.319046
0.197363 0.0395942 0.0930276
-0.171751 0.0869176 0.0632183
-0.284337 -0.209896 0.240948
0 0 0
0 0 0
0.0600819 0.00150273 0.0161534
0 0 0
-0.0686588 -0.0566963 0.00303542
0 0 0
-0.1368 0.0612406 -0.155212
-0.114765 -0.0280421 0.0837709
-0.249849 -0.154828 -0.0720311
0.0878326 -0.0400605 0.175057
0 0 0
0.102596 -0.123477 0.103325
0.142182 -0.177084 -0.078249
-0.0334487 -0.112887 0.104547
-0.00984926 0.0833157 0.269974
0 0 0
-0.108174 0.442343 0.131066
0.00104523 0.0620897 -0.0508951
-0.139176 0.16 0.36876
0 0 0
0.120605 0.0632827 -0.396647
0.0815493 0.038815 -0.0577198
0 0 0
0.0849936 -0.0506691 -0.187539
0.0564086 0.0359445 0.0219104
0.105795 -0.0993202 -0.181203
0.234171 0.187414 -0.144358
0 0 0
0.0906564 0.0432265 -0.0250306
0.0173469 0.00342594 0.0285418
-0.0494251 -0.00314312 -0.410111
-0.24345 -0.192916 0.0573232
-0.226463 -0.0583687 0.117803
0 0 0
-0.220067 0.501643 -0.113
-0.323856 0.0148201 0.225012
-0.161537 -0.137202 -0.00674367
-0.508787 -0.0239082 0.0154395
-0.356267 0.0342341 -0.00592975
-0.363804 0.0801164 -0.203302
-0.194242 0.269331 0.0516995
0 0 0
0.00874176 0.0194316 -0.137835
0 0 0
0.0760982 -0.224458 -0.00434795
-0.103941 -0.252561 -0.0616246
-0.0104818 0.0247549 0.0512191
0 0 0
0 0 0
0.397993 0.0932862 -0.441807
0.135277 0.0274167 0.164177
0 0 0
0 0 0
0.333484 -0.128909 0.0875432
0.0618564 -0.160922 0.00928056
0.378709 0.0262691 -0.151984
0 0 0
0.0246514 -0.0877768 -0.0816684
0 0 0
0.104911 0.217233 0.000904988
0.176712 -0.00126155 0.0541821
0.0685532 0.00647118 0.108333
0.243675 0.172909 -0.108253
0 0 0
-0.0998573 0.0691624 -0.112062
-0.555484 -0.17933 0.117651
-0.275893 -0.215762 -0.180119
0.0174051 0.00770627 0.0488663
-0.303801 0.107855 -0.0322309
0 0 0
-0.528165 -0.0315189 -0.333773
-0.0669545 0.082941 -0.0623873
0 0 0
-0.0255768 -0.341161 -0.0865409
0.0642189 -0.177758 -0.135044
0.233466 -0.208252 0.306994
-0.0266825 0.143764 -0.124197
0.396533 0.269832 -0.156458
-0.0403581 -0.109504 0.075174
0.0808011 0.0201105 -0.0344145
-0.0414268 -0.0564031 -0.0282991
0.254083 0.267895 0.393786
-0.00695768 -0.00398973 0.00509644
-0.0912074 0.266943 0.519444
0 0 0
0.088341 -0.167309 0.00791654
-0.0299258 -0.0779334 -0.159232
-0.148429 -0.144989 0.114942
0.236841 0.22834 0.0573417
0.0858396 -0.175531 -0.0394846
0.0835986 -0.0333599 0.11468
0 0 0
0.241982 0.344531 0.0764112
0.00849946 0.242752 -0.226951
-0.130753 0.307761 0.0616927
0.000196627 0.119017 -0.0390397
0.00654691 -0.0594522 -0.0680778
0.00106791 0.0882728 -0.106681
0 0 0
0 0 0
0.0150327 -0.115757 -0.178775
0 0 0
-0.0825679 0.00016953 -0.0130604
0 0 0
-0.0334386 0.0176458 -0.0864816
-0.100711 0.138223 0.19887
0.0320213 -0.0212503 -0.0255836
-0.00536135 -0.0156811 0.0545717
-0.00119708 -0.16601 -0.0580909
0.287237 0.397936 -0.160575
0.424524 -0.172755 -0.0300497
-0.185378 -0.00106434 0.261281
0.14369 0.304112 -0.0744846
0.103837 -0.0556094 0.204545
0 0 0
-0.0015297 0.00730616 -0.00223161
0 0 0
0.150008 -0.00826358 -0.0695093
0 0 0
-0.0869375 -0.0416765 0.26003
0.0143489 -0.0204758 0.0676498
0.198364 -0.0351977 -0.0560016
0.172144 -0.0781269 -0.0493525
0.0185395 0.0518346 0.105347
0.413273 0.277189 0.137432
0.239931 -0.0165865 0.012978
0.000558284 0.0290102 0.0140119
0.00824975 0.135149 -0.0110497
0.0150407 0.133311 0.529573
0.00151922 -0.0344253 -0.018431
0.261461 0.132874 -0.148446
0.125355 -0.0433562 0.0419594
-0.0885401 -0.000960053 0.0449359
-0.151652 -0.174526 -0.00839189
0.0574432 -0.0789477 0.000233009
0 0 0
0 0 0
0 0 0
-0.182405 0.421327 -0.0838665
0.00433142 -0.0641319 0.0877708
-0.132354 -0.156555 -0.0730068
-0.0743036 -0.0112293 0.0161548
-0.465794 0.0959892 -0.26753
0.0490507 -0.0704661 0.0411309
-0.1196 -9.43057e-05 -0.00172886
0.0773673 0.274193 0.0152748
0.266573 -0.167914 0.154314
0.117124 0.104956 -0.0906835
0.0792289 0.375984 0.122261
-0.0231359 -0.0541079 0.219294
-0.0976652 -0.0131979 0.104693
0.0473851 0.0269623 -0.0373231
-0.213995 -0.0484612 0.000396804
0.371326 -0.0107464 -0.154345
-0.000872143 -0.00604595 0.0923387
0.19847 -0.130879 0.128503
-0.0903403 0.0132292 0.315859
-0.0291022 -0.0214485 0.0629043
-0.141865 -0.0554872 -0.0586653
0.0118093 0.085231 0.0493175
0 0 0
0.3082 0.315165 -0.000492551
0.149659 0.0917589 0.0993281
0.0712171 0.156622 0.0118113
-0.000187714 -0.0166952 -0.00979026
0.290649 0.159297 -0.204882
0.124203 -0.067346 -0.138852
0 0 0
-0.125344 -0.0981528 0.0411782
0 0 0
-0.0533552 0.402852 0.136209
-0.0307235 -0.155663 -0.241172
-0.0446493 -0.00846174 0.0423132
0 0 0
0 0 0
-0.139685 -0.0754946 0.152136
-0.0133455 0.0102416 0.0323263
-0.231192 -0.029643 0.149744
-0.0674964 0.0164382 -0.0285528
-0.0878773 -0.472425 -0.315032
-0.108807 -0.000930689 -0.0474234
0.132499 -0.141164 0.148667
0.188519 -0.0928078 0.224002
0.133682 -0.026221 0.000168261
0 0 0
0 0 0
-0.117404 0.00377189 0.0972008
-0.0568514 0.0546996 -0.00458703
0 0 0
-0.120145 0.23287 -0.274454
0 0 0
-0.160279 -0.0789847 -0.0821041
0 0 0
0.061869 -0.00502035 0.106504
0 0 0
0.253566 -0.10334 0.47787
0 0 0
0 0 0
-0.137698 0.0877768 -0.0781436
0.0506857 -0.0506599 -0.0144117
0.146858 0.0492987 -0.359208
-0.229127 0.0728826 0.246712
-0.29673 0.0151082 -0.0298595
0.159616 0.013614 0.00416143
0 0 0
-0.0149576 -0.132134 -0.00178568
-0.0183863 -0.151341 0.0626586
-0.237776 0.0990794 0.0891519
-0.125539 -0.0312697 -0.00115989
0 0 0
0 0 0
0 0 0
0.155346 -0.0241107 -0.043924
-0.0585832 0.138569 -0.00609326
-0.1626 0.0874526 -0.0891154
0 0 0
0 0 0
-0.0457564 0.166887 0.316559
0 0 0
-0.303076 0.0981793 0.0811554
-0.0417058 0.0530087 0.000975034
-0.00823943 0.0466491 0.0243251
0 0 0
-0.311953 0.274874 0.142074
0 0 0
0.0573265 0.218207 -0.214469
0 0 0
0.387801 -0.0710408 0.239041
0 0 0
-0.408111 0.423174 0.24196
-0.240006 -0.144412 -0.0226399
0.235527 -0.223255 0.235168
-0.118468 -0.0932773 0.0050678
0.00397051 -0.279647 0.348815
0.0442763 0.0499057 0.0448633
0.0752183 0.0239184 -0.00136576
0.259508 0.163309 -0.0735733
0.0766565 -0.00675809 0.0516903
0.430618 -0.317273 0.1483
0 0 0
-0.120203 0.0566841 -0.232185
-0.214339 0.135758 0.0503049
0 0 0
0.141154 -0.0790519 -0.309182
0 0 0
0 0 0
0 0 0
0.137212 0.314992 0.186112
0.0826577 0.14542 -0.0579734
-0.281007 -0.13901 -0.188653
-0.0497634 -0.0593439 0.206226
-0.00275252 -0.016979 -0.00128957
0.0657826 -0.0306467 -0.329207
-0.0973484 -0.00967304 -0.0443432
-0.0324853 -0.0845566 0.0757946
-0.136449 -0.0399793 -0.154714
-0.0630356 0.206555 0.120951
-0.0283687 -0.0858142 0.12786
-0.0354647 0.0320434 -0.0167921
0.260622 -0.206181 0.26422
0.044852 0.130444 -0.0206286
0.0387109 0.13927 0.103231
0 0 0
0 0 0
-0.125375 0.338019 0.426636
0 0 0
0.133085 -0.0170134 -0.0244948
-0.065594 0.0358025 0.105539
0.0919819 0.198223 0.07239
0.0506655 0.0521798 0.054112
-0.0497561 -0.0261401 -0.00130278
0.0754511 -0.0601661 0.000582325
-0.00365761 -0.208421 -0.00582864
0.0276222 -0.0448769 0.0795842
0.180462 0.0690794 -0.00040025
0 0 0
0 0 0
0.0591524 0.143306 -0.0464665
0.000778696 -0.0229029 0.00437046
0 0 0
0.0261865 -0.026196 0.0308105
-0.124501 0.0148703 0.0570251
0 0 0
0 0 0
0.197336 -0.0882434 -0.294637
0.161111 -0.113837 -0.0329287
0.00142712 0.229328 -0.000726535
0.0750083 -0.423489 -0.13492
0 0 0
-0.0895075 0.0170912 0.0777848
0 0 0
0 0 0
-0.103504 -0.058001 -0.273975
0 0 0
0.102461 -0.221142 -0.263067
0 0 0
0.0754181 -0.152278 0.00081853
-0.0950833 -0.304821 -0.120517
-0.146494 0.00335339 -0.057767
0 0 0
0 0 0
0 0 0
0 0 0
0.315305 -0.050416 0.090627
0 0 0
0.18653 0.295692 -0.476097
0.0122644 0.0918153 -0.139376
0 0 0
0 0 0
0.19834 0.0501185 -0.0102374
0.00661174 -0.0486466 0.0833574
0 0 0
0 0 0
0.0102917 0.125691 -0.1536
0.115793 -0.12238 -0.0191409
0.00107372 -0.0209886 0.0342857
-0.205725 0.0158003 0.191036
-0.0721554 0.0733277 0.112608
-0.0677319 -0.14365 0.0548748
0.134546 0.11625 0.0244227
0 0 0
0.0507237 0.0811823 -0.22189
0.0395972 -0.0200937 0.0341455
0.0323874 0.155989 0.233592
0.0921598 -0.183909 0.37593
0 0 0
0 0 0
0 0 0
-0.000568957 0.0248823 0.0596314
0 0 0
-0.0706164 0.13237 -0.000376747
0.0512323 0.0145888 -0.0110543
0.314993 -0.179603 -0.139488
0.121202 -0.0254976 -0.178281
0.324489 -0.14002 0.0998231
0.0383696 -0.0315061 0.0233181
-0.0998628 0.343293 -0.2037
0.122592 0.173156 0.143251
0.0239908 0.000977505 0.00107646
0 0 0
0.140902 -0.107425 0.0130092
0 0 0
0 0 0
0 0 0
-0.218739 0.0440007 -0.0526555
0 0 0
-0.0315752 0.074782 -0.280446
0 0 0
0.191894 0.158568 0.0293809
0.131549 0.008487 0.0808527
0 0 0
-0.230593 -0.224666 0.243089
0 0 0
-0.0866112 0.051678 0.0277586
0.223226 0.127011 0.111628
0.16544 -0.0933803 -0.105291
0.00661526 0.19474 -0.0317099
0.0109348 0.114155 0.18368
0.00917997 0.069742 -0.226966
-0.0652472 -0.0466804 -0.230312
-0.0277967 -0.0259512 0.00680333
-0.117319 0.0932405 -0.101986
0.0142668 0.0245506 -0.37952
0.312921 -0.0960701 0.0650981
0.105325 -0.103535 -0.0577318
0.219871 -0.236974 0.170459
-0.004072 -0.087854 -0.014055
0.24979 -0.355793 -0.0374884
0 0 0
-0.023884 0.0825273 0.255351
0 0 0
0.0796014 -0.108953 0.0999172
0.278014 -0.204341 0.346393
0 0 0
0 0 0
0.0203453 0.00547832 -0.00162787
-0.0327811 -0.0700483 -0.00356559
0 0 0
0 0 0
0.0183216 -0.077018 0.139763
0 0 0
0 0 0
0 0 0
0 0 0
0 0 0
0 0 0
0 0 0
0 0 0
0 0 0
0 0 0
0 0 0
0 0 0
0 0 0
0 0 0
0 0 0
0 0 0
0 0 0
0 0 0
0 0 0
0 0 0
0 0 0
0 0 0
0 0 0
0 0 0
0 0 0
0 0 0
0 0 0
0 0 0
0 0 0
0 0 0
0 0 0
0 0 0
0 0 0
0 0 0
0 0 0
0 0 0
0 0 0
0 0 0
0 0 0
0 0 0
0 0 0
0 0 0
0 0 0
0 0 0
0 0 0
0 0 0
0 0 0
0 0 0
0 0 0
0 0 0
0 0 0
0 0 0
0 0 0
0 0 0
0 0 0
0 0 0
0 0 0
0 0 0
0 0 0
0 0 0
0 0 0
0 0 0
0 0 0
0 0 0
0.140249 0.0765954 -0.0114892
0.152654 0.0290162 -0.0399053
0 0 0
0.0842485 -0.0654459 -0.0776577
-0.0886925 0.184159 0.0988101
-0.00551267 -0.167337 -0.0191529
0.218774 -0.0295099 0.143663
-0.0352983 0.231037 -0.0259801
-0.047903 -0.21014 0.0936905
0.138228 -0.00383253 0.205954
-0.00227422 0.0177733 0.0301919
-0.0364056 0.0913332 -0.0287759
0.0138448 -0.104399 0.0282344
0 0 0
-0.0222029 -0.0747177 -0.0533623
-0.0492967 0.0133302 -0.217094
-0.108976 -0.0811858 0.0676823
0.168638 0.0408905 -0.0249263
0 0 0
-0.110711 0.179028 0.107062
0.103226 -0.0139549 0.220625
0.000149298 0.0355533 -0.119692
-0.00135878 0.0232036 0.0128031
0.0236892 0.0545809 -0.0839638
0.023363 -0.197512 0.0286204
-0.0226826 -0.015027 0.161932
0 0 0
-0.0091447 -0.190146 -0.0641585
-0.112083 0.0332136 -0.00361194
-0.000429985 0.00244003 -0.00441878
-0.0439875 0.024665 -0.0406668
-0.0099458 -0.154556 -0.0551012
-0.0845304 0.00227307 0.01501
-0.003696 -0.0437655 -0.0862313
0 0 0
-0.0115638 -0.0114961 0.0690224
0.0163026 0.0337524 -0.0290224
0 0 0
-0.0754385 -0.00497037 0.102928
-0.0118215 -0.105548 -0.0966447
-0.00541855 0.120689 0.0684239
-0.145067 0.0100575 -0.0138766
0 0 0
0.0626923 -0.0179397 -0.00513837
0.147218 -0.00443287 0.0262526
0.00705401 0.00941018 0.009414
-0.0284959 0.0115116 -0.00622841
-0.0584547 -0.0122921 -0.0211003
0.12292 0.0185738 0.142891
0.0334373 -0.0028372 -0.0525489
0 0 0
0.0324315 -0.0104381 -0.0882846
-0.00937712 0.0825458 -0.0183073
0 0 0
0.00419254 0.00747842 -0.109485
0.0344572 -0.0218682 -0.0664267
0.0476112 0.0366527 0.144634
0.0620449 -0.0106085 -0.0819881
0 0 0
-0.0266396 -0.146779 -0.0662866
-0.0197916 -0.000622298 -0.00369059
0 0 0
0.0822305 0.0331144 0.0420232
-0.0581255 -0.0026946 -0.0606972
0.0238058 -0.182894 -0.193687
-0.196153 0.100461 -0.336891
-0.00040386 0.0477503 -0.173691
-0.0893358 -0.17115 -0.0706944
0 0 0
0.000909605 -0.0306573 -0.00692572
-0.164569 0.0460076 0.14294
0.188623 -0.106992 0.359077
0.0445589 0.063457 -0.250072
0.279157 -0.000241544 -0.200485
0.0608338 0.0920303 -0.109212
-0.0610371 0.0579642 0.218444
0.140304 -0.0185091 -0.0372833
-0.00745205 0.0794122 0.0816601
0.322259 0.154105 -0.0867231
0.0503599 -0.0542416 -0.168176
-0.0211657 -0.110723 -0.000807288
0.169247 -0.110779 -0.0163587
0.146873 0.0502094 -0.084788
0 0 0
-0.289862 -0.0194353 0.148018
0 0 0
-0.163317 -0.267267 0.0574733
0.103904 0.0601973 0.13249
0.0179323 -0.308965 0.0710166
0.195511 -0.146303 0.40904
0 0 0
0.162758 -0.346476 0.130715
-0.217022 0.0220104 0.122092
-0.0133369 -0.0937265 -0.00767663
0.226539 0.0752873 0.0732723
0.0785159 0.0786256 -0.162245
0 0 0
-0.150791 -0.00729065 -0.38958
-0.0203059 0.398299 -0.395621
0.0202335 -0.0297201 -0.0502288
0 0 0
0 0 0
-0.087328 -0.0807843 -0.239909
0 0 0
0.203152 -0.228225 0.0950349
0.173316 0.0159679 0.0289454
0 0 0
0.0792989 -0.0411761 -0.00118905
-0.0326988 -0.0224488 -0.0490682
-0.442665 -0.0738183 0.301328
-0.277247 -0.0296059 0.252849
-0.294594 0.0528622 -0.34443
-0.116569 0.0231004 -0.168551
0 0 0
0 0 0
-0.215955 0.017145 0.12378
0.109373 -0.174837 0.0932958
-0.184125 0.17192 -0.117862
-0.0770615 0.186173 0.0651249
-0.141757 -0.320075 0.361498
-0.115288 -0.2301 -0.0284242
-0.0368216 -0.065163 -0.0431996
0.00872396 -0.105115 -0.0698869
-0.154007 -0.10139 -0.0196631
0.00291349 -0.13575 -0.206977
0.0102284 -0.0911861 0.156014
-0.0603732 -0.029917 0.00825911
0.0223834 0.0144453 0.0227446
0.0424258 0.651734 0.380268
0 0 0
0 0 0
0.0317711 0.00286964 -0.0752782
0.337992 -0.0625947 0.180518
0.430482 0.236406 0.302043
0.135606 -0.170894 -0.116804
0.056469 -0.148712 -0.0316894
0.254967 -0.165372 0.0684359
-0.124858 -0.0194305 0.254632
0.050797 0.256273 0.0726668
0 0 0
-0.241305 -0.216061 0.140273
-0.073856 -0.0525733 0.087141
0 0 0
0 0 0
-0.370784 -0.0519392 -0.372431
-0.0261844 0.00918197 0.00958219
0.0745698 0.217211 -0.525211
0 0 0
0.0692476 -0.665357 0.273634
0 0 0
-0.12398 -0.249942 0.367146
0 0 0
-0.256631 -0.237311 -0.059017
-0.0704536 -0.141178 -0.0197912
-0.0595929 -0.498299 -0.150307
-0.0681317 0.0151275 -0.292346
0 0 0
-0.0957118 0.163712 -0.0934657
-0.156821 -0.233577 -0.100274
0 0 0
0.0859094 0.250477 0.0366501
0.0899601 -0.0290471 0.143345
0 0 0
0.162959 0.0779508 0.561192
0 0 0
0.0500243 -0.122444 -0.037241
-0.000348307 0.12137 -0.162818
-0.268447 0.254393 0.363639
0 0 0
0 0 0
-0.0183907 0.0457248 -0.000580009
-0.196972 0.0916034 0.110306
-0.536562 -0.0697683 -0.0434692
-0.174034 -0.0556903 -0.166994
-0.248767 0.0281045 0.325143
0 0 0
-0.0804461 0.198087 -0.155943
0.0177938 -0.00769328 0.0262963
0.154491 -0.257261 -0.0891399
0.0136587 -0.0535754 -0.0309343
-0.0578886 -0.106397 -0.139997
0 0 0
-0.163139 -0.155446 0.0662939
0 0 0
-0.0728078 0.113388 -0.0816999
0 0 0
-0.300262 -0.217234 0.0505364
0.0778232 -0.137599 0.018303
0 0 0
0.000968557 0.0510217 0.271957