<?xml version="1.0"?>
<VTKFile type="RectilinearGrid">
<RectilinearGrid WholeExtent="0 32 0 32 0 32" Origin="0 0 0" Spacing="1 1 1">
<Piece Extent="0 32 0 32 0 32">
<PointData>
</PointData>
<Coordinates>
<DataArray type="Float32" format="ascii">
0 0.524874 1.04975 1.57462 2.0995 2.62437 3.14924 3.67412 4.19899 4.72386 5.24874 5.77361 6.29849 6.82336 7.34823 7.87311 8.39798 8.92285 9.44773 9.9726 10.4975 11.0224 11.5472 12.0721 12.597 13.1218 13.6467 14.1716 14.6965 15.2213 15.7462 16.2711 16.796 
</DataArray>
<DataArray type="Float32" format="ascii">
-5.03879 -3.62163 -2.20447 -0.787311 0.629849 2.04701 3.46417 4.88133 6.29849 7.71565 9.1328 10.55 11.9671 13.3843 14.8014 16.2186 17.6358 19.0529 20.4701 21.8872 23.3044 24.7216 26.1387 27.5559 28.973 30.3902 31.8074 33.2245 34.6417 36.0588 37.476 38.8931 40.3103 
</DataArray>
<DataArray type="Float32" format="ascii">
0 0.524874 1.04975 1.57462 2.0995 2.62437 3.14924 3.67412 4.19899 4.72386 5.24874 5.77361 6.29849 6.82336 7.34823 7.87311 8.39798 8.92285 9.44773 9.9726 10.4975 11.0224 11.5472 12.0721 12.597 13.1218 13.6467 14.1716 14.6965 15.2213 15.7462 16.2711 16.796 
</DataArray>
</Coordinates>
<CellData>
<DataArray type="Float32" Name="Vector" NumberOfComponents="3" format="ascii">
0 0 0
0 0 0
0 0 0
0 0 0
0 0 0
0 0 0
0 0 0
0 0 0
0 0 0
0 0 0
0 0 0
0 0 0
0 0 0
0 0 0
0 0 0
0 0 0
0 0 0
0 0 0
0 0 0
0 0 0
0 0 0
0 0 0
0 0 0
0 0 0
0 0 0
0 0 0
0 0 0
0 0 0
0 0 0
0 0 0
0 0 0
0 0 0
0 0 0
0 0 0
0 0 0
0 0 0
0 0 0
0 0 0
0 0 0
0 0 0
0 0 0
0 0 0
0 0 0
0 0 0
0 0 0
0 0 0
0 0 0
0 0 0
0 0 0
0 0 0
0 0 0
0 0 0
0 0 0
0 0 0
0 0 0
0 0 0
0 0 0
0 0 0
0 0 0
0 0 0
0 0 0
0 0 0
0 0 0
0 0 0
-0.0799726 -0.0457191 0.0652466
0.0269377 -0.11601 -0.108587
-0.0100796 0.0014745 -0.0147978
-0.076493 0.00125198 0.0159662
-0.0783569 -0.0762814 -0.0821315
-0.0126349 -0.0456518 0.00947885
0.0293721 0.000180418 0.0121945
-0.0654917 0.148861 -0.0202675
0.0476747 -0.0262748 0.0120582
0.0672054 -0.0673362 -0.0229835
0 0 0
0.0783899 0.0634147 2.53343e-05
-0.166572 -0.128209 -0.00940289
0 0 0
0.0827014 0.243584 0.00830769
0.108203 0.0749811 0.128376
0.107169 -0.131662 -0.100448
0.0675378 0.0438922 0.104071
0 0 0
-0.0522063 -0.203323 -0.00337439
-0.0435643 0.215932 0.0390706
0.0105353 -0.0072439 -0.00380991
-0.216407 -0.185162 0.0918649
-0.0484347 0.0954406 0.000104358
-0.00923806 0.122322 0.100967
-0.123032 -0.131025 -0.0958795
0 0 0
0.100033 0.0517969 0.0130446
-0.273551 0.092185 -0.0293299
-0.00558297 -0.031774 0.0498079
0.0119933 0.0237293 -0.0752263
-0.0910133 0.0373858 -0.0661709
0.0337652 -0.0294555 -0.0410102
-0.0791006 -0.0313423 0.0927141
0 0 0
0.343274 -0.31865 0.0101948
0.0367859 -0.0465785 0.000279106
0 0 0
0.0316937 0.00743174 -0.00402673
0 0 0
0 0 0
-0.0653447 0.267871 -0.0331248
0 0 0
-0.0072235 0.0732457 -0.00138851
-0.112145 0.0602111 0.00805577
0 0 0
-0.0567677 -0.0760429 0.024247
-0.0862456 0.115738 0.0100124
-0.0172943 -0.05372 0.0501898
0.027041 0.0192933 -0.00119988
0 0 0
0.274373 0.293531 0.00392111
0.00636935 0.0248597 -0.0411061
0 0 0
-0.0168211 0.0682232 -0.0478911
-0.033277 -0.00183402 -0.0569012
-0.00690087 0.0586647 -0.0492233
0.0409973 -0.100051 -0.0126645
0 0 0
-0.109878 0.00945753 -0.0318559
-0.0574841 0.207198 -0.00278087
0 0 0
-0.104807 -0.00244254 0.0253452
-0.0271891 0.208536 0.0466694
0.183944 -0.0160467 -0.106536
0.0418872 -0.187949 0.00173982
0.158155 0.00454203 -0.0371314
0 0 0
0.120493 -0.41925 -0.424137
0 0 0
-0.0105532 -0.0518804 -0.0689427
-0.0765162 -0.0945219 0.0484758
-0.115278 0.0396632 -0.192489
0.100687 0.0685262 0.2177
0.336347 -0.177555 -0.475449
0.0644024 0.154987 0.0637244
0.0286931 0.090151 0.165159
0 0 0
0.0739865 -0.214955 0.0797115
3.81202e-06 -0.0551014 0.0600546
0.00538025 -0.126021 0.101145
0.121229 0.0361907 -0.0237
-0.00776159 0.00301165 -0.00478516
0.171762 0.170779 -0.0503609
-0.126579 -0.00660278 0.0522428
0.0741938 0.058149 0.0983906
0.141262 0.249358 -9.543e-05
-0.0272027 0.0478192 0.0461211
-0.00674875 -0.000664244 -0.043089
0.138889 -0.159439 0.0363777
0 0 0
0.0545035 -0.0832962 -0.0164733
-0.179447 0.311107 -0.0909813
-1.529e-06 0.00169113 -0.0172471
0.0149142 -0.0646987 -0.165194
0.139019 0.130331 0.00722687
0.0374958 -0.103493 0.0298957
0.104722 0.10972 -0.0832744
0 0 0
0.336074 -0.0387726 -0.114515
0.212844 -0.127858 0.0220109
0 0 0
0.12731 0.189592 0.262198
0 0 0
0.218427 -0.307085 -0.36498
0 0 0
0.187178 0.382164 -0.122838
0.0605801 0.0227091 -0.0652384
0.103404 0.0591492 0.0330967
-0.02401 -0.0305385 0.030077
0.00109503 -0.0706194 -0.0285981
0 0 0
0 0 0
-0.159594 -0.0196669 -0.213217
0 0 0
-0.0246655 0.0505262 -0.123374
0.0405058 -0.0544614 -0.037888
0 0 0
0.0871117 -0.0663319 -0.0190024
0.109189 0.0979398 0.0708403
-0.0179761 -0.0896556 0.224332
-0.260136 0.263195 0.180187
0.00316853 0.0876153 0.0335419
0.00788608 0.760697 -0.0825285
0.141927 0.171764 -0.114129
0.19351 0.308592 0.000868056
0 0 0
0.0600116 -0.0347132 0.218334
-0.0400881 -0.0628735 -0.0168352
0.0491016 0.135072 0.00154918
0.000397 -0.0944861 0.103646
-0.0976779 -0.495162 0.0748102
0.288554 0.0277223 0.0197155
0.00955278 -0.00528473 -0.0100084
0.220488 0.0664218 -0.0202776
0 0 0
-0.246841 -0.482 -0.256999
0.000972268 0.0282456 0.0381115
0.241635 0.131167 0.104473
0 0 0
0.0216298 0.279047 -0.0417135
-0.0543084 0.201945 0.0986233
-0.195389 -0.0385446 0.0830315
0 0 0
0 0 0
0.0128014 -0.141195 -0.0729845
-0.0905083 -0.0450146 0.0600874
-0.0306834 -0.091698 -0.0112106
0 0 0
0.296088 0.0611089 -0.391867
0 0 0
0.161638 -0.40126 -0.466375
0 0 0
-0.0208277 0.127719 0.123959
0.111982 0.0607161 -0.0625322
0.271941 -0.188045 -0.0656588
0 0 0
0.391016 0.22646 -0.345271
0.254165 -0.0829831 0.0231228
0 0 0
0.0165319 0.0457341 -0.00999113
-0.22419 0.163726 0.201185
0 0 0
0.141803 -0.221887 -0.00854498
-0.124213 -0.162391 0.0931194
0.00306872 0.0960873 0.033507
0 0 0
0.0286417 -0.127713 -0.460495
0 0 0
0.0964543 0.0397216 0.00356095
-0.00387381 0.204703 -0.00976159
-0.226346 -0.136495 0.249015
-0.0414371 0.0317428 0.124763
0.024987 -0.192885 -0.195426
0.174271 -0.202606 0.041
0.144247 -0.0358566 0.0897104
-0.0589177 0.105754 0.270593
0 0 0
-0.289355 -0.192807 0.0199045
0.0552138 -0.0514176 0.00430808
0 0 0
0.0196422 0.15504 -0.106268
0 0 0
0.0688812 -0.224117 -0.217433
0 0 0
0.140839 0.120359 -0.0819987
0.0773132 -0.010891 0.129438
-0.0170187 0.0733562 0.0026429
0.0709592 -0.0900215 0.0017454
0 0 0
-0.037352 -0.108014 -0.0597908
0 0 0
0.0178283 0.371321 0.181035
0 0 0
0 0 0
-0.16788 -0.321443 -0.165414
-0.0740364 -0.291695 -0.195722
-0.130956 -0.00871894 0.00581956
0 0 0
0 0 0
0 0 0
0 0 0
0.0176026 -0.065141 0.024249
0 0 0
0 0 0
-0.0158986 -0.018085 0.0199068
-0.13374 -0.0204585 -0.0183496
-0.076353 -0.0956957 -0.266021
0 0 0
-0.236316 -0.295015 -0.148984
0.00516198 -0.0217387 0.0303485
-0.145977 -0.26061 -0.261321
-0.0520084 0.042382 0.0659196
0 0 0
0.174628 0.080732 -0.267749
-0.0736188 0.255619 0.00430619
-0.0523017 -0.289594 0.207903
-0.0343874 -0.140087 0.139441
0.0384948 0.125932 -0.139584
0.207176 -0.0532156 0.0665172
0.00627102 0.0280817 0.0677845
0.14299 0.0806246 0.205564
0.0184776 0.0104641 0.00082946
-0.259184 0.100387 0.049784
0 0 0
0.109128 0.0815538 0.199849
0 0 0
0.104527 0.228487 -0.232942
0.0605168 0.0560571 0.0740329
0.024832 0.345304 0.142872
0.00422261 0.331569 0.152298
-0.0243887 -0.00203949 -0.00793783
-0.0245004 0.000392954 -0.0211711
0 0 0
-0.0180027 -0.0320789 0.115366
0 0 0
0 0 0
0.134806 0.263608 0.0306184
0 0 0
-0.0195919 0.0129884 0.159687
0.000799651 0.0515692 -0.139856
0.0102437 -0.0572174 -0.178628
0.0435291 -0.13052 0.0158309
0 0 0
-0.351745 -0.00304621 -0.0957113
0 0 0
-0.115279 -0.0706388 0.0432232
0.0489447 0.067906 -0.0398464
0.0414392 0.0575558 -0.0195239
0.0271836 -0.113333 -0.106033
0.000152175 -0.00218104 0.00325416
-0.131192 0.0494979 0.244688
-0.0843907 -0.00349413 -0.0111667
-0.129706 0.0284795 0.348744
0 0 0
-0.0272875 -0.0299014 0.0453385
-0.0641668 0.0333253 0.0722244
-0.0968242 -0.113911 0.151306
-0.0363221 -0.263203 0.18793
-0.112472 0.163083 -0.0646119
-0.046671 0.00366711 -0.0745757
0 0 0
-0.0823954 0.15027 -0.109583
0.0937089 -0.0361052 0.0192974
0 0 0
-0.0344643 0.187953 0.219497
0.0476693 0.144648 0.114177
0 0 0
-0.0163574 0.0728956 -0.00115195
-0.18438 0.0126985 -0.293722
0 0 0
0 0 0
0 0 0
-0.00945621 -0.0466833 0.0663936
-0.0531907 -0.135096 0.222851
0 0 0
-0.170265 0.0129777 0.372269
0 0 0
-0.225095 0.102193 -4.02379e-05
0.0398265 0.0686809 -0.0411623
-0.00046495 0.00514198 -0.0097528
-0.278236 0.062505 0.0512683
-0.380661 -0.122537 -0.15632
0 0 0
0.071785 0.100823 -0.158188
0 0 0
-0.00452321 0.0324981 0.0265406
-0.000812577 -0.0957399 0.0324664
0.197246 0.0209749 -0.0270904
0.000138572 -0.0393182 0.0337985
0.240733 -0.121863 0.106262
0.015317 0.0262802 0.00341853
-0.0112776 0.215707 0.0875904
-0.0261545 0.0381302 -0.160331
0 0 0
-0.101605 -0.102382 0.0551913
-0.0105689 -0.00948275 0.0687246
0 0 0
-0.167903 -0.131095 -0.109204
0.0010495 -0.0162347 -0.254492
-0.143322 0.160458 -0.0664866
0 0 0
0 0 0
0.0909123 0.29416 -0.184994
0.259406 0.16398 -0.368812
-0.0142377 -0.00366953 0.000141798
-0.0102359 0.00936814 0.000451005
-0.235386 0.0133947 -0.0352254
-0.0563474 0.0218533 -0.0605481
-0.359703 0.138265 -0.15989
-0.21701 0.00123487 0.0586785
0 0 0
0.148075 -0.0817588 0.0122077
0.0875368 0.11081 -0.114923
-0.121747 0.032977 -0.062328
-0.14315 -0.0608071 0.112243
0 0 0
0.00782741 0.034313 -0.00034614
0.352047 0.394171 -0.152791
0.00463379 0.0550867 0.0861669
0 0 0
-0.0436708 -0.0342127 -0.0491929
-0.2017 -0.411838 0.0508746
-0.0347345 -0.0251754 0.348085
-0.050823 0.153086 0.106463
0.01408 0.312923 0.0282143
-0.193371 0.0937177 0.0067313
0.00144422 -0.0218426 -0.124009
-0.0200326 0.186129 0.0315173
0.0631298 -0.129805 -0.102598
0 0 0
0 0 0
0.0796091 0.0992304 0.0528314
-0.144429 0.549911 0.0451877
-0.271324 0.194969 0.164599
0.0715596 -0.257998 0.0411091
0 0 0
0.00523623 0.129586 -0.0988628
0 0 0
0.0740874 -0.120355 0.238788
0 0 0
-0.312439 -0.112987 0.0140136
-0.0578258 0.0280694 0.323032
0 0 0
0 0 0
-0.161402 -0.194052 0.0645233
0 0 0
-0.136085 -0.0800187 0.16281
0.317044 0.0573514 0.012467
0 0 0
-0.00801341 0.0912007 0.209656
-0.287662 0.118582 0.131388
-0.00300593 0.0445536 -0.037065
0.102698 -0.0154484 0.0356434
0 0 0
0 0 0
-0.204937 0.646656 -0.367847
0 0 0
-0.0586049 0.318312 0.162764
0 0 0
-0.0722993 -0.174181 0.493189
0.0490651 0.104254 -0.100925
-0.114281 0.0507811 -0.136454
-0.24095 0.142777 -0.0760043
-0.240598 0.155598 -0.216479
-0.114085 0.23377 0.148281
-0.0981619 -0.0486017 0.0312444
-0.021651 0.0973644 0.106318
0.107542 0.0901001 0.251379
0 0 0
0.240536 0.207295 0.289206
0 0 0
0.000970837 0.00568542 0.0379981
-0.035024 -0.132255 -0.0480878
-0.257267 0.0658506 0.586543
0 0 0
0 0 0
0.335994 -0.594155 -0.288331
0 0 0
0 0 0
-0.501982 0.33791 0.0485584
-0.0567832 -0.0650276 0.128815
-0.00142203 0.0124326 -0.0456578
0.057814 0.34793 -0.112795
0 0 0
-0.302263 0.0864785 0.109356
0 0 0
0 0 0
-0.185364 0.19528 0.11113
-0.0384037 -0.0195128 -0.119453
-0.056992 0.0496884 -0.0184041
0.198867 0.120166 -0.409569
0.0360515 -0.0879528 0.0401906
0.00381639 0.290228 -0.192377
0 0 0
0.248094 -0.285965 0.0783781
0 0 0
0.155344 -0.178083 -0.034128
0.10386 -0.147651 0.040636
0.0255854 0.0356337 0.0408709
0.522395 0.0746204 0.00326274
0.525541 -0.00613821 -0.0715018
0.473755 -0.16948 -0.0804002
0.201571 0.20899 -0.0981907
0.373168 -0.229676 -0.0494252
0 0 0
-0.0109344 0.0904558 0.122474
0 0 0
0 0 0
-0.228508 -0.2893 0.10213
0 0 0
0 0 0
0.0898576 0.132392 0.155453
0.201044 0.01428 0.0972647
-0.2077 -0.104013 0.166079
-0.504485 0.222313 0.362898
0.181109 -0.238551 0.169547
0.143744 -0.13396 0.141767
0.170624 -0.00102038 -0.365536
0.227521 0.0549793 -0.0263136
0.300193 0.237646 -0.0397445
0 0 0
0 0 0
0.258339 -0.0923307 0.173161
0.0764456 0.0171538 -0.0296421
0.220786 -0.084054 -0.054687
-0.000566919 -0.023727 -0.0002603
0 0 0
0.515808 -0.21368 0.179395
0.190492 -0.159896 0.0553772
0.0758772 -0.127003 0.119527
0.433974 -0.553931 -0.180307
0.266341 -0.294131 -0.0840901
0.0924273 -0.131176 0.163153
0 0 0
-0.262169 0.293914 0.184886
0.00172199 0.0491644 -0.0243354
-0.0719028 0.059695 0.0884837
0.0227842 -0.0120452 -0.00833772
0 0 0
0.128702 -0.0752129 -0.276928
0.0104542 0.134367 -0.0816753
-0.0991072 -0.00262927 0.040948
0 0 0
0 0 0
-0.0690104 0.0881446 -0.000889376
-0.0317869 0.0470966 -0.0316599
0.141188 0.164713 -0.0314243
0 0 0
-0.152975 0.214237 0.0114762
-0.0190413 -0.0384925 -0.24901
0.0204651 0.108147 0.00944802
0.297182 -0.306621 0.219391
0 0 0
0.187607 0.0897727 -0.0235638
0.174609 -0.187108 -0.144904
0 0 0
0.11364 0.0661476 0.0496515
0 0 0
-0.0485762 -0.0413737 -0.0328482
-0.0881035 0.122747 -0.179603
-0.00153378 0.0333221 -0.0843449
-0.160684 -0.340822 -0.441433
0 0 0
0.328747 -0.196988 0.131641
0 0 0
0 0 0
0.212856 0.0507558 -0.0775529
0.170104 0.236873 -0.23299
0 0 0
0.034568 -0.0286281 -0.0446561
0.16714 0.0671483 0.0752449
0.113925 0.054527 0.234418
0 0 0
-0.214464 0.166082 -0.108563
-0.235885 0.0253272 -0.198957
-0.317884 -0.0270368 -0.0964434
-0.0705702 0.0403289 0.123504
0 0 0
0.221234 -0.0550472 -0.310406
-0.00838259 -0.00552251 -0.00757475
0.0486155 -0.0676213 0.0284121
0.0677474 0.0727419 -0.165493
0 0 0
-0.0123996 0.0977746 0.00290841
0.0423664 0.000566458 -0.0469929
0 0 0
-0.236184 -0.0754737 0.259176
-0.0661948 -0.0150467 0.0932432
0 0 0
0.116822 -0.0285859 -0.0268011
0 0 0
0 0 0
0 0 0
0.225976 -0.244066 -0.117924
-0.0703077 -0.0726396 0.0042593
0 0 0
-0.0120053 0.00114022 0.106984
0.0398079 -0.341213 -0.355379
0.0049095 0.013822 0.0104893
0.0294381 0.000503552 0.0803833
0.0578335 -0.0941662 0.0010825
-0.0465094 -0.191578 0.253551
0.0705034 -0.0295104 0.0626396
0.0132673 -0.00919119 5.86397e-05
-0.0249799 0.384743 0.00539773
0 0 0
0.191884 0.233444 0.412663
0 0 0
-0.0181651 -0.00764404 -0.0259487
0 0 0
-0.201683 -0.115493 -0.0638505
-0.0421359 -0.0879562 -0.516364
-0.11092 -0.143094 0.0229957
-0.235788 0.0169855 -0.457661
-0.00215193 0.157726 -0.117337
0.180187 0.257497 -0.227808
0 0 0
-0.164787 -0.0441164 -0.202192
-0.0317022 -0.0252751 0.00374783
-0.163225 0.205371 0.0272059
-0.4044 -0.271667 -0.0366181
0 0 0
-0.199452 -0.0367819 -0.135788
-0.358067 0.132023 0.0922472
0 0 0
0.33071 0.0723934 -0.176645
0.161428 -0.0627533 0.31788
0.375711 -0.328493 0.0443832
0.073964 -0.367865 0.258498
0 0 0
0 0 0
-0.314617 0.0401301 0.0119302
-0.0960659 0.0179939 0.00541218
-0.000225481 -0.0443677 0.0854745
0.0800098 -0.160637 0.288319
0.000682925 0.10993 -0.0520878
0.0787458 0.299342 0.707111
0.0391796 0.11238 0.0121666
0.483481 -0.115774 0.14864
0 0 0
-0.201849 -0.0990206 -0.32962
0 0 0
0.245066 0.193385 0.116601
-0.0443132 0.206502 0.0222211
-0.0785571 0.0395674 0.000657637
-0.138049 -0.188608 -0.00643746
-0.505122 -0.342748 -0.339712
-0.448769 -0.025202 -0.145497
-0.229702 0.032085 -0.177693
-0.0973657 -0.0884888 0.174906
0.158571 -0.536071 0.0990507
0.0674946 -0.0767213 0.25495
-0.0035744 0.0373512 0.0189908
-0.0923127 0.187135 0.213456
-0.135686 0.0432708 -0.0177742
-0.277468 0.014939 0.143568
-0.0640605 -0.0626793 -0.0384816
-0.0553881 -0.081917 0.011839
-0.0309579 0.00187554 0.00044285
-0.26141 -0.0211728 0.156377
-0.141488 -0.294588 0.00605378
-0.000325281 -0.115011 -0.00120099
-0.0577031 0.0140368 0.0543169
0 0 0
0 0 0
0 0 0
-0.0410886 0.210864 0.0538136
-1.55674e-05 -0.055129 -0.0195199
-0.1149 -0.0474536 -0.148783
-0.123269 -0.200318 0.0239762
0 0 0
0 0 0
0 0 0
-0.256177 0.373765 0.0905001
0 0 0
-0.110379 0.0693825 0.0674668
0 0 0
0.12572 -0.0993369 0.0765994
0.00975625 -0.00324424 0.00810498
-0.106621 0.0570928 -0.088223
-0.19741 -0.233703 0.106577
0.000158913 -0.012423 -0.0751806
-0.188124 0.214564 0.0900667
0 0 0
-0.168589 0.527099 -0.183902
-0.154223 0.0231632 -0.184113
-0.521923 0.179036 0.160267
-0.0172104 -0.0900285 -0.0438727
-0.0212681 -0.0250596 -0.00376381
0.0758233 -0.601563 0.347708
0 0 0
0.0221595 -0.0392775 0.235803
-0.00238492 0.0584345 -0.0103215
0.0485486 -0.095115 0.201769
-0.31137 -0.0342162 -0.180252
0.0043011 -0.00877694 -0.00265877
0 0 0
0.133127 -0.100861 -0.179403
0.212966 0.138008 -0.00314007
0.0055595 0.0126901 -0.0120986
-0.00477809 -0.159139 -0.0745092
0.235974 -0.1332 0.0651538
0.0371162 0.128799 -0.0854133
0 0 0
0.000882979 0.186663 0.0541427
-0.119429 0.0977487 0.0283415
0 0 0
0.370983 -0.140441 -0.122111
0 0 0
0.114409 -0.426638 -0.271657
0.0239237 0.167081 0.0523234
0 0 0
0 0 0
0 0 0
0.0449799 0.12864 -0.148357
-0.12323 -0.0820945 -0.0521954
-0.102242 0.0638812 -0.189183
-0.143722 0.179986 0.0454271
-0.215285 -0.236998 -0.180558
-0.0651525 -0.167228 0.0635517
0.0574127 -0.0913161 -0.0796157
-0.000943287 0.274938 0.0197633
-0.395786 -0.131698 -0.0512567
-0.21893 0.0170585 -0.0790918
-0.0809659 -0.0245932 -0.215488
-0.0374332 0.0803375 0.246178
0.150622 -0.111688 -0.249072
-0.193742 0.0282961 -0.0580239
-0.000467044 -0.0310089 -0.148567
-0.271563 -0.0805125 0.0951672
-0.0295067 0.0210717 0.0540148
-0.0156861 -0.207139 -0.107181
0 0 0
-0.0955356 -0.0433418 0.00173734
-0.267414 -0.24052 -0.0167014
-6.66118e-05 -0.00853065 -0.00553304
-0.353806 -0.0233999 0.233177
-0.232943 0.0435858 -0.28402
0.0143012 -0.184067 0.0300167
0 0 0
0.153965 -0.408357 0.278317
-0.119443 -0.0812003 0.166248
0.114216 -0.0917276 0.0823994
-0.409995 -0.0663493 0.0745958
-0.211905 -0.0335226 0.0922896
0 0 0
-0.0322498 -0.0391523 -0.0169084
-0.0830452 -0.00638125 0.00128891
0.316414 0.0330855 -0.159382
0 0 0
-0.0201103 -0.0413159 -0.117432
0.188106 -0.326627 0.0469303
0.270656 -0.150408 0.228678
-0.244193 0.195495 0.0820713
0 0 0
-0.218866 0.00228408 -0.0170716
0.117274 -0.0974707 0.12814
0.207546 -0.220048 0.244363
0.135175 0.144549 0.164813
0.0306636 -0.164147 -0.128078
0 0 0
0.171259 0.0427146 -0.286175
-0.0399565 -0.175779 -0.154513
-0.14909 -0.229565 0.096516
0.0724705 -0.236567 -0.236312
-0.00319538 0.223849 0.024781
-0.233443 -0.0270575 -0.105446
-0.0477899 -0.407166 0.0634159
0.205129 -0.0100284 -0.0961329
0 0 0
-0.0701455 -0.293338 0.279398
-0.0887138 -0.0164502 -0.0851344
-0.037509 -0.0638796 -0.115307
-0.438507 -0.215596 0.0175897
-0.0949186 0.0366805 -0.195228
0 0 0
-0.0762149 -0.289431 0.0612802
0.184061 0.176695 0.302176
0.0206254 -0.151914 -0.173396
-0.189066 -0.0133722 -0.13159
0.0883355 0.252774 0.0780629
0 0 0
0.248183 -0.0369857 0.0692003
0 0 0
-0.11637 0.019013 0.111535
0.0952315 -0.00122514 0.143358
0 0 0
0.152452 -0.290539 -0.0890818
-0.0415075 0.0419362 -0.00727321
-0.190743 0.108714 0.305141
0 0 0
0 0 0
0 0 0
-0.178136 -0.375828 0.0331283
0 0 0
-0.0801734 -0.0328859 0.18885
0 0 0
0.289793 0.141175 0.00684533
0 0 0
-0.110599 0.166742 -0.171701
-0.304279 0.197637 -0.0247881
-0.149565 -0.232184 -0.00141927
-0.204797 -0.353062 -0.187323
0.104747 -0.159735 0.000953295
-0.165497 -0.0824538 0.00845435
-0.180759 -0.190991 0.0948242
-0.104688 -0.116513 -0.0290765
-0.0769727 0.013697 0.0193803
-0.401109 -0.0607219 -0.0424898
0.127253 0.210074 -0.0585137
0.118204 0.00621982 -0.229538
0.0508034 0.14989 0.171752
0.0984011 0.133003 -0.0766724
-0.0517491 -0.0210287 0.0284783
-0.0455196 -0.12634 0.169895
-0.117062 -0.107898 -0.0543668
-0.0200801 0.00107266 0.0500131
0.0985286 -0.0850963 0.0718133
0.149124 0.0721882 0.341532
0 0 0
-0.000642755 -0.0343409 0.098844
0.00736779 -0.149085 0.0197352
0.0997156 0.250271 -0.202177
0 0 0
0.093451 0.0362672 -0.0621043
0.00968098 -0.020256 0.0107259
0.382093 -0.128006 -0.333533
0.0892936 -0.0370178 0.164832
0 0 0
0.0478517 0.0799772 -0.135236
0.109198 0.0231088 -0.136727
-0.0348194 0.211532 0.0108627
-0.147117 -0.173496 -0.0228636
-0.187196 -0.413362 0.35858
0.00154491 -0.0737144 0.0664405
0.166632 0.0561082 0.146036
0.345293 -0.436891 -0.140748
0 0 0
0.113189 0.0610412 0.0998884
0.166682 0.0903229 -0.343696
0.000293911 0.00997899 -0.014064
-0.0184662 -0.0588973 -0.000762524
0 0 0
-0.280864 0.402155 -0.207444
-0.00200876 -0.131955 0.235887
-0.150279 0.41529 0.0925326
-0.0490137 -0.0728314 0.077943
0.02385 -0.00113135 -0.168296
-0.0104932 -0.0914069 0.0805811
0.021418 -0.0199047 -0.0573472
0.308515 -0.738155 -0.101069
0 0 0
0 0 0
0.0725163 -0.0901776 0.00162323
0.159534 -0.022167 0.0870947
0 0 0
0.167553 0.406727 0.296283
0 0 0
0.000366909 0.0569416 0.00083559
-0.231816 -0.0241743 0.0313061
-0.188168 0.0364618 -0.124895
-0.5105 -0.0279461 0.00388897
-0.289571 -0.013455 -0.0513162
-0.323867 -0.0145182 -0.189432
0.322756 0.220634 0.014303
0 0 0
-0.217772 0.249955 -0.0339404
0 0 0
-0.178018 0.0573791 -0.177715
-0.131159 0.0532846 -0.0986476
-0.199841 -0.050589 0.167074
-0.00468681 -0.131021 -0.328357
0 0 0
0.0482792 -0.171061 0.254868
-0.127454 0.0814826 -0.0343613
-0.0180581 0.0389881 0.0227543
-0.0563044 -0.0141106 0.00140122
0.00272552 0.0435578 -0.0058823
0.165672 0.0627149 0.128649
0.179807 -0.169507 -0.0832688
-0.032225 -0.553116 -0.0516775
-0.019977 -0.0361571 -0.0425842
0.0259464 -0.348548 -0.224258
0.0954241 0.0886628 -0.0851744
0.190478 0.0423878 0.0432479
0.227096 -0.0565363 -0.200044
-0.0209376 -0.0165948 -0.0502304
-0.172678 0.373258 -0.186937
-0.145025 -0.0169856 0.220947
0.139136 0.271087 -0.182846
0 0 0
-0.0461551 -0.0346967 -0.023485
-0.113333 -0.299818 -0.023201
0.139852 -0.099426 -0.000741753
0 0 0
-0.096765 0.0373155 -0.0331447
-0.0829981 -0.290166 -0.0338899
0 0 0
0 0 0
-0.100579 0.0584964 -0.123797
-0.0165393 0.0265577 -0.0420002
-0.0469305 0.219753 0.0577211
-0.185902 0.202882 0.152461
0 0 0
0.0055514 0.246595 0.00151623
0 0 0
0 0 0
0 0 0
0.103329 -0.106584 -0.23501
0 0 0
-0.379669 -0.271094 -0.488929
-0.15898 -0.0794506 0.106151
0.0799237 0.0175797 0.0490639
-0.0610541 -0.0864423 -0.0979171
0 0 0
0 0 0
-0.0285787 -0.147603 -0.026952
0 0 0
0.0553393 -0.178448 0.0442993
0.00264193 0.113776 -0.154649
0.0211632 -0.0087973 0.246364
0 0 0
-0.0861141 0.118755 -0.123267
0.113254 -0.0769305 -0.545335
0.0950037 0.0635351 0.0280672
-0.034892 -0.00255552 -0.183783
0.00692548 -0.190075 0.00038637
0 0 0
0 0 0
-0.0079298 -0.0729563 -0.074185
-0.264199 0.00868626 -0.0244444
-0.0236237 -0.0939879 -0.168556
0.219753 -0.33253 0.0593869
-0.0718464 -0.0508301 0.263685
-0.039412 0.352057 0.150972
0.172955 -0.525137 -0.0587296
0.00199968 -0.0862941 0.106516
-0.114515 0.165759 0.143681
0 0 0
-0.0573353 -0.340825 -0.0733662
0 0 0
-0.0279119 -0.407219 -0.309654
0 0 0
-0.0435595 -0.162078 0.163197
0.0391769 0.0521733 0.162863
-0.133454 -0.165298 0.0337739
0 0 0
-0.0924586 -0.177291 0.0116675
-0.192291 0.0448072 -0.107259
-0.155602 -0.543739 0.262647
-0.109827 -0.37282 0.109278
-0.0800214 -0.224495 -0.0676961
-0.130705 -0.135167 -0.00208872
0.0453733 -0.0331938 0.0609763
0.0756642 0.0874623 -0.0577912
-0.181698 0.0154833 0.0215472
-0.313455 0.0476795 0.279273
0.0271141 -0.0335103 -0.018281
-0.0603649 0.0761114 0.154118
0 0 0
0 0 0
0 0 0
0 0 0
0.0956889 -0.0234003 0.0264083
0 0 0
-0.0665529 0.0425497 0.1087
0.154196 -0.00544595 0.133005
-0.0230425 -0.480813 -0.317167
0 0 0
0.0328784 -0.222699 0.112261
0 0 0
-0.151569 0.407582 -0.000326168
-0.0419083 0.123279 -0.27404
-0.0117767 -0.0106699 0.401248
0.106447 0.101881 0.060674
0.0749528 0.0846184 0.0968919
0.0723443 0.0627479 0.0371115
0.115237 0.227322 -0.105949
0 0 0
-0.13074 -0.23279 -0.015698
0 0 0
-0.0835597 -0.50128 0.405454
0 0 0
0.0418347 -0.304288 0.195904
0 0 0
0 0 0
0.0242938 -0.0813983 0.168368
-0.0294284 0.315176 0.169601
0.0501073 0.0686787 -0.11041
0.140211 -0.59729 -0.145909
-0.000827654 -0.022986 -0.0189181
-7.58455e-05 -0.138949 0.225836
-0.0581458 -0.0939279 0.0929335
0 0 0
0 0 0
0 0 0
0 0 0
-0.00402546 -0.232976 0.102103
0.0794987 -0.111124 -0.0741599
0 0 0
0.146997 -0.193223 0.325161
-0.0737674 -0.104395 -0.283741
0.0458095 -0.0139213 0.246188
0.0808867 0.012255 0.0509779
-0.0278675 -0.105439 0.197171
-0.119755 0.156461 0.0664803
-0.0108508 -0.116945 0.0785575
0 0 0
0 0 0
-0.0970004 0.0723314 -0.00820114
0 0 0
-0.00361018 -0.140291 0.0912597
-0.0763778 -0.174278 -0.0238575
0 0 0
-0.127578 0.0100958 0.00462515
0 0 0
0.000207834 0.169496 -0.130168
0.0367209 -0.00822556 -0.0602278
0.158181 -0.311121 0.061515
0 0 0
0 0 0
0.0346189 -0.0155196 -0.0484827
0.21762 0.0125731 0.177545
0.301112 -0.0206396 -0.0707403
0.198383 -0.227949 0.171344
0.125698 0.150266 -0.106293
0.211886 -0.00680124 -0.0122903
-0.030406 -5.70829e-05 -0.000465893
0.0405494 0.26286 -0.412925
0.278536 -0.00192458 -0.0889947
0.00148732 -0.264676 -0.134619
-0.145695 0.0898198 0.115279
-0.00648386 0.0024132 0.0220654
0.0199426 -0.115242 -0.121948
0.0103195 0.124569 -0.133187
0.0446081 -0.0741413 0.00201784
0 0 0
0.0136788 -0.133388 -0.0544255
-0.00358329 0.0270436 -0.337569
-0.146049 0.0509417 0.218375
-0.0409219 -0.0328027 0.0377236
0.208891 -0.0392408 -0.0733356
0.0912169 0.0681737 -0.06256
0.150516 -0.331219 0.0839209
-0.00287319 0.160695 0.0610077
0 0 0
0 0 0
0.187475 -0.0264625 0.00124106
0 0 0
0.249213 -0.0183683 -0.286769
0.0120111 -0.177366 0.029193
0.168754 0.0596347 0.028003
0 0 0
0.0349566 0.0289228 -0.230325
-0.00553831 -0.0317071 0.022488
-0.0969175 0.133484 0.14511
-0.376485 0.0177867 0.0747842
0.0548054 0.1745 0.0168195
0.0378235 -0.0443111 0.0832663
0 0 0
0 0 0
0 0 0
0 0 0
0 0 0
0 0 0
0 0 0
0 0 0
0 0 0
0 0 0
0 0 0
0 0 0
0 0 0
0 0 0
0 0 0
0 0 0
0 0 0
0 0 0
0 0 0
0 0 0
0 0 0
0 0 0
0 0 0
0 0 0
0 0 0
0 0 0
0 0 0
0 0 0
0 0 0
0 0 0
0 0 0
0 0 0
0 0 0
0 0 0
0 0 0
0 0 0
0 0 0
0 0 0
0 0 0
0 0 0
0 0 0
0 0 0
0 0 0
0 0 0
0 0 0
0 0 0
0 0 0
0 0 0
0 0 0
0 0 0
0 0 0
0 0 0
0 0 0
0 0 0
0 0 0
0 0 0
0 0 0
0 0 0
0 0 0
0 0 0
0 0 0
0 0 0
0 0 0
0 0 0
-0.000865191 -0.206367 0.312576
-0.0179516 -0.00799419 0.144473
0.00794373 -0.0699696 -0.0535863
0.159212 0.179576 0.201656
0.00895446 0.0148524 0.129012
0 0 0
-0.0861754 -0.114621 -0.0146858
-0.0422226 -0.0633186 0.101167
-0.00927753 -0.00749067 -0.0485999
-0.204101 -0.0209642 -0.0908987
0 0 0
0.000356612 0.079897 -0.0356675
-0.108767 0.00138462 -0.0297568
0 0 0
0.0852649 0.0651449 -0.0851529
-0.00294647 -0.00315833 0.123609
0.100516 0.0243326 -0.199188
-0.174079 -0.0669301 0.0262605
0 0 0
0.0484767 0.0320632 0.145332
0.103924 0.0222599 0.147462
0 0 0
-0.0531199 -0.0342939 0.201078
-0.00233442 0.102802 -0.0353628
0.0179897 -0.0716153 0.0588327
0.00294542 -0.0226826 0.137605
0 0 0
0.0838331 -0.116249 -0.0787267
-0.142113 0.0242808 -0.0522087
-0.0836307 0.037681 0.0218758
-0.148155 -0.159086 0.0230392
0.0530214 0.0748458 -0.281938
0 0 0
-0.0145425 0.0684944 0.0440314
-0.0139858 0.000706649 -0.0108273
-0.0760307 0.0173801 -0.0288268
-0.00528984 0.0340845 0.0289057
0 0 0
0.0284296 0.00114244 0.0611519
-0.0189071 -0.13535 0.189978
-0.036491 0.205524 -0.140061
0.11478 -0.00689848 0.083402
0 0 0
-0.00494622 0.0252426 -0.0410218
0.01353 -0.00363163 0.0385641
0 0 0
-0.0565835 0.0156429 0.0503385
0.0187119 -0.0254185 0.0764212
-0.0798256 0.0252746 -0.0743347
0.0330156 -0.0286421 0.0218665
0 0 0
-0.183138 0.00112001 -0.0869113
-0.000795826 -0.0269533 0.0141412
0 0 0
-0.0178326 -0.00382401 -0.18357
0.0813827 -0.0403137 0.176811
0.0117505 0.0561915 -0.0635284
-0.0428696 -0.00246157 -0.283587
0 0 0
0.0166317 -0.00854664 -0.0238057
0.113115 -0.00225202 0.00119579
0 0 0
-0.0404484 0.150475 -0.0721028
0 0 0
-0.182186 -0.00568489 -0.334865
0.000415676 -0.0478592 -0.0248602
0.0919793 -0.0745361 0.218737
0.0958835 0.0844841 0.005741
-0.186073 0.239337 -0.111003
0.00402518 0.0476262 0.112227
-0.109075 -0.068654 -0.216388
0.0743503 0.0356605 0.109021
-0.063734 -0.0659721 -0.112309
0 0 0
0.0684393 0.151615 -0.277199
0 0 0
-0.0428895 -0.00566673 0.010033
-0.0052519 0.0165842 0.251011
-0.161901 -0.26347 0.0690513
-0.0287239 -0.169419 -0.0715175
-0.0602651 0.138393 0.175814
0 0 0
-0.107221 -0.0950898 -0.0460633
0.23838 -0.0919785 0.107085
0.000335474 -0.101541 -0.283893
-0.0662514 -0.0267499 0.446299
0.153781 -0.160538 0.194287
-0.0671263 0.0286982 0.240167
0.000421997 -0.109571 0.0257655
0.117544 0.148125 0.202788
0 0 0
-0.00584215 0.156947 -0.223683
0.148841 0.144837 -0.111437
0.147998 0.0705191 -0.18066
0.104459 -0.0274035 -0.119148
0.00760632 0.235758 0.13773
0.0486543 -0.122174 0.161591
0.492572 -0.139641 -0.0321174
0.353962 0.135681 -0.0242858
0 0 0
0 0 0
0 0 0
-0.0934745 -0.22617 0.254607
0.157005 0.0544648 -0.0768653
0.125021 -0.035202 -0.428153
-0.138282 -0.229152 0.23483
-0.132381 0.0804757 -0.00257386
0.0110805 -0.164078 -0.471655
0.116148 -0.221623 -0.0355417
0.031718 -0.500437 0.00812208
-0.0856941 0.0113983 0.0546159
-0.131917 -0.00388472 0.00695122
0.160685 -0.0683555 0.0311266
0 0 0
-0.0294966 -0.000215023 -0.140134
0.112643 -0.318342 -0.0913832
0.0978126 0.0405063 -0.0438414
0.225138 0.157902 -0.0681333
-0.243491 0.135952 -0.149902
0 0 0
-0.0955446 -0.027918 0.043711
0.0911904 0.145451 -0.0232644
0.0892477 -0.174116 -0.0817556
0 0 0
-0.0360031 0.192171 -0.195325
0.00168448 -0.124783 8.69959e-05
0.0122798 -0.0295771 -0.0106232
0.326374 -0.260336 0.0303387
-0.00298984 0.00891008 0.0192224
-0.0765443 0.137567 0.297916
0 0 0
0 0 0
0.000615743 0.0103924 0.428607
0 0 0
-0.00626376 0.00580422 -0.00452903
0.00415034 -0.00530691 -0.00369805
0.0852029 -0.184619 -0.130844
0 0 0
-0.0162483 -0.266893 -0.000857414
-0.0219144 0.0949319 0.133053
-0.0314521 0.0236287 -0.0214552
-0.159954 0.264509 0.0227684
0.0324145 0.0257681 -0.0281807
-0.190195 -0.0163338 0.162409
-0.0260044 -0.14236 -0.080884
-0.0901234 -0.18511 -0.414357
-0.013106 -0.0440397 -0.0334093
-0.00933363 -0.216368 -0.521586
0 0 0
0 0 0
0 0 0
-0.121926 0.542128 0.0757967
-0.103395 -0.0178365 0.0318229
-0.0270243 0.492157 0.0468419
-0.00124353 0.00452737 0.0236542
0.131416 -0.104451 -0.0253132
-0.186046 0.0282797 0.148943
0.0569437 -0.162911 -0.0753284
0.0112332 -0.13082 0.0863396
0.180031 -0.0541293 0.0983197
0 0 0
-0.012311 -0.0334506 0.0105423
-0.123646 0.0270811 -0.000933137
-0.31257 -0.29487 -0.0672381
-0.126276 -0.0657351 0.0707206
0 0 0
-0.0432765 0.267785 -0.106196
-0.114734 -0.028654 -0.173888
0 0 0
-0.0485652 -0.019909 0.0356337
0 0 0
-0.104718 0.0875318 0.298671
0.00110543 0.0492759 -0.00955764
0.341171 0.222389 0.0459929
0 0 0
0 0 0
-0.0129249 0.0512718 0.167767
0.00118357 0.0610705 0.185971
0 0 0
-0.12838 -0.345089 5.1837e-05
0.230692 -0.0255118 -0.0671049
0.154971 -0.10689 -0.11747
0.0680987 0.0487693 -0.258001
0.058429 -0.034041 -0.0881991
0.00127 -0.140778 0.176022