<?xml version="1.0"?>
<VTKFile type="RectilinearGrid">
<RectilinearGrid WholeExtent="0 32 0 32 0 32" Origin="0 0 0" Spacing="1 1 1">
<Piece Extent="0 32 0 32 0 32">
<PointData>
</PointData>
<Coordinates>
<DataArray type="Float32" format="ascii">
0 0.524874 1.04975 1.57462 2.0995 2.62437 3.14924 3.67412 4.19899 4.72386 5.24874 5.77361 6.29849 6.82336 7.34823 7.87311 8.39798 8.92285 9.44773 9.9726 10.4975 11.0224 11.5472 12.0721 12.597 13.1218 13.6467 14.1716 14.6965 15.2213 15.7462 16.2711 16.796 
</DataArray>
<DataArray type="Float32" format="ascii">
-5.03879 -3.62163 -2.20447 -0.787311 0.629849 2.04701 3.46417 4.88133 6.29849 7.71565 9.1328 10.55 11.9671 13.3843 14.8014 16.2186 17.6358 19.0529 20.4701 21.8872 23.3044 24.7216 26.1387 27.5559 28.973 30.3902 31.8074 33.2245 34.6417 36.0588 37.476 38.8931 40.3103 
</DataArray>
<DataArray type="Float32" format="ascii">
0 0.524874 1.04975 1.57462 2.0995 2.62437 3.14924 3.67412 4.19899 4.72386 5.24874 5.77361 6.29849 6.82336 7.34823 7.87311 8.39798 8.92285 9.44773 9.9726 10.4975 11.0224 11.5472 12.0721 12.597 13.1218 13.6467 14.1716 14.6965 15.2213 15.7462 16.2711 16.796 
</DataArray>
</Coordinates>
<CellData>
<DataArray type="Float32" Name="Vector" NumberOfComponents="3" format="ascii">
0 0 0
0 0 0
0 0 0
0 0 0
0 0 0
0 0 0
0 0 0
0 0 0
0 0 0
0 0 0
0 0 0
0 0 0
0 0 0
0 0 0
0 0 0
0 0 0
0 0 0
0 0 0
0 0 0
0 0 0
0 0 0
0 0 0
0 0 0
0 0 0
0 0 0
0 0 0
0 0 0
0 0 0
0 0 0
0 0 0
0 0 0
0 0 0
0 0 0
0 0 0
0 0 0
0 0 0
0 0 0
0 0 0
0 0 0
0 0 0
0 0 0
0 0 0
0 0 0
0 0 0
0 0 0
0 0 0
0 0 0
0 0 0
0 0 0
0 0 0
0 0 0
0 0 0
0 0 0
0 0 0
0 0 0
0 0 0
0 0 0
0 0 0
0 0 0
0 0 0
0 0 0
0 0 0
0 0 0
0 0 0
0.162661 -0.0546701 -0.0459405
0.0208737 0.0413519 -0.0186135
0 0 0
0.0132203 -0.0588946 -0.0186837
-0.0188451 0.0309103 -0.0272076
0 0 0
-0.110506 -0.0881402 0.0416048
0.0720066 -0.0643735 0.157797
0.121888 0.152662 -0.0255211
0.200899 0.00831616 -0.0772267
0 0 0
0.135503 0.072423 -0.0852148
-0.130978 -0.0227554 -0.0185429
-0.00116941 0.0096606 0.00554014
-0.00592724 -0.173779 -0.0326724
-0.150702 0.0577825 -0.0784887
0.00154107 -0.0673573 0.0797586
-0.0252209 -0.0964576 0.0442989
0 0 0
-0.28779 0.106128 -0.0303846
-0.0590655 0.00597762 -0.0544424
0 0 0
-0.227394 -0.0172664 -0.0182871
-0.0537945 0.0288828 -0.0291845
-0.0139392 -0.0195666 -0.0142283
0.225605 0.0560234 -0.000260139
0 0 0
-0.0410237 -0.0528781 -0.0826252
0.139222 -0.0694947 -0.00233559
0 0 0
0.199823 -0.144339 -0.0500515
0.0495706 -0.0434347 0.0535503
-0.0338717 0.211259 -0.210955
-0.000460558 -0.00244758 -0.0120102
0 0 0
0.247203 -0.0465496 -0.0191962
0.0476508 -0.0313586 0.00729766
0 0 0
0.0254142 -0.162922 -0.0327106
-0.00686703 0.0160002 -0.0197529
0.00283947 0.00211033 -0.0548588
0.0955613 0.0355671 0.00197122
0 0 0
-0.0282636 -0.0369875 0.0280993
0.175664 0.0715026 0.0502839
0 0 0
0.0552135 -0.0881415 0.0374918
-0.1219 -0.229613 -0.115031
-0.188549 0.287626 0.0994403
0.08434 -0.159198 0.121973
0 0 0
0.0716036 0.104322 0.0656902
0 0 0
0 0 0
-0.2784 -0.192621 0.022454
0.0145025 -0.0300149 0.00903071
-0.0238422 -0.0143355 0.0229828
-0.0498135 0.0772337 -0.0147103
0 0 0
-0.0326897 -0.00138321 0.0233571
0.0168885 -0.0401378 -0.00397747
0 0 0
-0.168604 -0.0392088 0.0342051
0.0786427 0.0986325 0.131775
0 0 0
-0.154462 0.0677415 0.000814508
0 0 0
-0.155947 -0.0315243 -0.0246089
-0.00180761 -0.0726799 0.155752
-0.0446288 0.0688598 0.0633983
0 0 0
-0.281087 0.0481349 -0.128343
-0.0160632 -0.0516317 -0.0834251
-0.2288 -0.0416989 -0.00274585
-0.0352236 0.0494236 -0.068378
-0.0986585 -0.0793636 -0.0959772
0.178135 -0.0569362 0.0703453
0 0 0
0 0 0
0 0 0
-0.074705 0.159192 0.342627
0.153915 0.124324 0.0307291
-0.000177837 -0.134913 -0.00772358
0.211862 -0.0336331 0.166671
0.0386209 -0.0140567 0.0195432
-0.260947 0.636986 0.240804
-0.000575169 0.00342553 0.0142495
-0.0215999 -0.168364 -0.0512228
-0.0528529 0.0634096 0.142342
-0.122599 -0.0415226 0.197618
-0.274196 0.224111 -0.155206
0.0107529 -0.149404 -0.0153206
0.0286049 0.198465 0.020268
-0.00113599 0.00512356 -0.00807949
0.0477648 0.256889 -0.0122741
-0.0354907 0.058056 -0.000787861
-0.345844 0.11367 -0.0695607
-0.110301 -0.0702475 0.135058
0 0 0
0.132804 -0.166278 0.371249
0 0 0
0.0404694 -0.116408 -0.250086
0 0 0
-0.124581 0.0448268 -0.0162091
-0.212179 -0.179762 -0.138569
-0.151041 0.00145631 -0.296475
-0.0458958 -0.282994 0.0953482
0.000632069 -0.0937068 0.165936
-0.269909 0.270181 0.269668
-0.20309 0.113765 -0.050868
0.147658 0.282015 0.282766
0 0 0
0 0 0
0.0642845 -0.0966458 0.129843
0.203935 0.572676 0.217124
0.0955849 0.120326 -0.526643
0 0 0
-0.206826 0.353665 0.305825
-0.152343 0.0617279 0.0592157
-0.415744 0.53497 -0.215445
-0.492183 -0.101542 0.278367
-0.0671939 0.00161346 0.0466671
-0.0614295 0.0779697 -0.193327
-0.00144356 0.0474642 -0.039079
0 0 0
-0.236515 0.172443 0.112598
-0.0951687 0.0904713 -0.0712001
-0.431867 0.113559 -0.0563921
0 0 0
-0.178698 -0.0168342 0.154907
-0.191144 0.223481 -0.160042
-0.0322664 0.0216675 0.115525
0 0 0
0 0 0
0.00130141 0.260859 0.391207
0.119486 -0.0807511 -0.0743829
0.190609 0.026811 -0.227803
0 0 0
0.181517 -0.0142649 0.0577122
0.0671517 0.12172 -0.0926756
0.206277 -0.17047 0.0246924
0.255565 -0.339352 0.183272
-0.344194 0.105199 -0.0405842
0.0409461 0.164951 -0.209708
0.000172532 0.0552612 0.038345
0.150348 0.146808 -0.327201
0 0 0
0.0680767 0.228305 -0.356935
0.108075 0.0418722 0.0419997
0.13316 0.178153 -0.166554
0.19854 0.386777 -0.347934
0.0998825 0.193309 -0.0741502
0.168776 -0.248338 -0.229712
0 0 0
0.0432822 -0.428074 -0.524461
-0.0309632 0.101113 -0.120173
0.00239887 -0.0529575 0.0240824
-0.14681 0.347776 0.163796
-0.0664461 -0.0216218 -0.106828
-0.0334905 0.181417 0.00105802
0.0382675 0.0923048 0.00487569
0.0359678 0.164205 -0.00161235
-0.0814031 0.0369214 0.126837
0.000486905 0.126868 -0.135277
-0.306005 0.319224 -0.105109
-0.0508536 0.240679 -0.381351
0.053319 0.0377921 0.0562979
0.078226 0.188631 0.357517
0.0530057 0.168316 -0.199845
0.086366 0.191422 -0.282968
-0.000462734 -0.010571 0.0608559
-0.145148 0.325564 0.0103263
0.094011 -0.00401369 -0.0218721
0.162098 0.23543 0.017386
0 0 0
0 0 0
0.0298207 -0.072498 0.0640346
0.118641 -0.023228 0.105806
0.311059 -0.0759525 0.311633
0.15857 0.0703324 0.031039
0.25009 -0.205969 0.101221
0 0 0
0 0 0
-0.121193 -0.0543901 -0.12231
0 0 0
0 0 0
0.00734525 -0.044886 0.000609051
0.0954926 0.127417 -0.198211
-0.00192711 -0.0310044 0.0173827
0 0 0
0 0 0
0.0138541 0.103829 0.0579465
0.0694426 0.227782 -0.146294
-0.0291206 -0.0988804 -0.266472
0 0 0
-0.0111588 0.136112 -0.104878
-0.0434251 -0.459027 -0.0434292
-0.0176248 -0.0112511 0.152733
0 0 0
0.332932 0.22324 0.434128
0 0 0
0.267164 0.243768 0.170693
0 0 0
0.0454952 0.0708777 -0.0603849
0 0 0
-0.0737767 0.0649215 0.056836
0.00425564 0.0170946 0.00623765
0.123065 -0.0242376 -0.100516
0 0 0
0.0717687 -0.139622 -0.0553021
0.116061 -0.252101 -0.0243201
0.399576 -0.157632 0.0277426
0.175611 -0.352009 0.109576
0.392993 -0.0512142 -0.291125
0 0 0
0.269242 -0.26656 -0.0726303
0.116566 0.0547643 -0.0599512
0.046307 0.0752328 -0.227446
-0.244974 0.44098 -0.000944051
0.0665564 0.276375 0.179178
0.00130354 0.0400287 0.105946
0.00251607 0.0627267 0.013305
0.0482386 -0.282956 0.0316351
0.120882 -0.0939975 0.084046
-0.221524 -0.0234887 0.206278
0 0 0
0.103375 0.43348 -0.138337
0 0 0
0.295381 -0.421371 -0.0515341
0 0 0
-0.01838 -0.026317 0.0320748
-0.279669 0.117135 0.192931
0 0 0
-0.163064 -0.00394306 0.0411192
0 0 0
0.000392613 -0.00169165 -0.00737226
0 0 0
-0.105323 -0.17427 0.448901
-0.0277553 -0.194349 -0.227694
-0.0305486 0.280753 0.0600135
0.0686095 0.354523 -0.381871
0.00393579 -0.0248625 -0.0552758
0.153974 -0.222614 -0.0381137
0.232918 -0.0613295 -0.176643
0 0 0
0 0 0
0.000655695 -0.193195 -0.289947
0.0347773 0.0652031 -0.0102689
0.124893 -0.0461333 -0.146641
0.0734869 0.196909 0.00124663
0.0336396 -0.0654145 -0.0919144
-0.275222 0.454416 -0.0523014
0 0 0
0.0140215 -0.0140149 0.00149925
-0.0266451 -0.0766606 0.0558562
-0.0600001 -0.0955173 0.00814309
0 0 0
0.101461 0.0775066 -0.000472593
0.107009 -0.146426 -0.0885056
0 0 0
0.313473 0.221812 0.0668035
-0.00230549 -0.378433 0.0779234
0 0 0
0 0 0
-0.0541693 -0.26694 0.0382796
0.00181321 -0.0293967 0.258555
0.14209 -0.0416755 -0.0452283
0.129345 0.00697407 0.207615
-0.0178568 0.159538 -0.0397591
0.0457194 0.439616 -0.222533
0.0781552 0.0402285 0.00173385
-0.133715 0.28867 -0.187247
0.0231711 -0.000769932 -0.172904
0.0151737 0.135898 -0.11604
-0.138054 -0.0756991 0.015404
0.126272 -0.12216 0.179297
-0.386309 -0.176127 -0.394762
-0.000596724 0.0106445 -0.00113697
0.120208 0.294517 -0.251117
0 0 0
0.101292 -0.199622 -0.181688
0.0246711 -0.0827063 0.140601
0.297449 -0.140584 0.117921
-0.078694 -0.243309 -0.0482731
0.232514 -0.122565 -0.222371
0.0147201 -0.0888217 -0.0819449
0.401087 -0.0835731 -0.262043
-0.133892 0.125849 -0.0670572
0 0 0
0 0 0
-0.113995 -0.175526 -0.0841102
-0.169293 -0.0967752 -0.0366269
0 0 0
0.0566939 0.206719 0.306198
-0.00195509 -0.0436923 0.094749
0 0 0
0.112569 -0.0159472 0.0288423
0.0201119 -0.000423285 0.127426
0.0097593 -0.0644992 0.144882
-0.0831442 -0.0341019 0.103352
-0.210213 0.0326966 -0.00118962
0 0 0
-0.616128 0.10643 -0.383527
-0.0669215 -0.114459 0.0369812
-0.0943267 -0.294029 -0.142253
0 0 0
0.11627 -0.175658 -0.116803
0.470843 -0.115727 0.0417758
0 0 0
0 0 0
0.0857437 -0.311137 -0.297158
0 0 0
-0.252813 -0.15502 -0.00480247
-0.152777 0.0895453 0.268039
-0.0566193 0.00396245 -0.0404753
0.0753551 -0.0203588 -0.081671
0.0686143 0.0912824 0.329071
0.171727 -0.0245293 0.168485
0.0374374 -0.0697296 0.0507779
0.0731229 0.159283 -0.232138
-0.195104 0.130756 0.0416912
0.0816348 0.013532 0.000620468
0.187164 -0.134611 -0.316178
0.202242 0.282953 -0.0998024
0.0595169 -0.0861861 0.0358258
0.313263 -0.102588 0.127775
0.00180539 -0.187431 -0.00627391
-0.00262016 0.0562657 0.00456883
0.259768 0.135618 0.227162
-0.201861 -0.216258 0.0543345
0 0 0
0 0 0
-0.0965833 -0.00652232 -0.00212596
-0.00900215 0.0395968 -0.116254
-0.0762325 -0.0552513 0.305685
0 0 0
0.122595 -0.213218 -0.344738
0.00199744 -0.0351808 -0.0274968
0.0432024 -0.147595 -0.183489
-0.0182768 -0.0850449 -0.0210573
-0.266278 0.0295664 0.0333908
0.0964277 0.0586724 -0.0912339
0.080371 0.156735 0.0910992
-0.209061 0.479398 0.171887
-0.0368075 -0.250695 0.0621327
-0.160513 0.159769 -0.485054
0 0 0
-0.429755 -0.0781704 -0.152457
-0.47881 -0.0405117 0.30765
0 0 0
0 0 0
0 0 0
-0.0313535 0.043488 0.00583931
-0.0445179 -0.0573671 0.098396
-0.450008 -0.104233 -0.0648466
0 0 0
0.255497 -0.465581 0.12066
0.181317 -0.0749783 -0.461345
0 0 0
0.0679148 -0.384109 -0.113101
0.0605931 0.0895319 0.135555
-0.127734 -0.110425 -0.156811
0 0 0
-0.202796 0.00185424 0.116682
-0.215053 -0.188699 -0.424741
0.0274475 -0.00949322 -0.0245665
0.0773397 -0.203762 0.162526
0 0 0
0.0575398 -0.242585 0.0594071
0.0729945 -0.0527832 0.11955
-0.0297063 -0.181002 0.0716439
-0.060607 -0.126206 0.177605
-0.000380077 -0.0633621 -0.00232074
-0.0970998 -0.0859047 0.00235873
0 0 0
-0.0257937 -0.0544899 -0.00925055
0.163142 0.252166 -0.0359007
0 0 0
-0.370148 0.183271 0.104309
-0.03678 -0.110948 -0.0724077
-0.0274814 0.177004 -0.163098
-0.252141 0.0951881 -0.278806
-0.0432099 0.167116 0.159307
-0.243288 0.202235 -0.197057
0 0 0
-0.00577501 0.13221 0.238954
-0.00685356 0.00831878 -0.000206138
-0.474623 -0.277295 0.232158
-0.173666 -0.358934 -0.242757
-0.244461 -0.10111 0.151337
-0.21513 -0.104113 -0.382789
-0.043446 -0.232934 -0.00354624
0.104746 0.141176 0.0287556
0.0259625 0.0671906 0.00183251
0 0 0
-0.147124 -0.141698 0.199272
0 0 0
-0.114678 -0.2623 -0.23255
0.00333555 -0.0332293 0.0805871
0.0706831 -0.35283 0.00580334
0 0 0
0.275411 0.279553 -0.121826
0.204242 0.464782 0.202665
0 0 0
0.21344 0.177814 0.29679
0.0102689 0.0272814 -0.0565353
-0.0196961 0.109006 -0.217013
0 0 0
0.00627188 0.00401828 0.104364
0.0450417 0.139919 0.0257845
0.130838 0.29236 0.395906
-0.0183636 0.0187482 0.00297927
-0.328708 0.223537 -0.262635
0 0 0
0.114477 0.133529 -0.117913
0.0423533 -0.102741 -0.320181
0.000949181 0.00899054 0.0417323
0.0133357 -0.104046 -0.0570887
0 0 0
0.191494 -0.392289 -0.0197891
-0.0203972 -0.0149847 0.000790945
-0.133718 0.172252 -0.000591336
-0.0881253 -0.160948 0.0770884
-0.189456 -0.257466 -0.267045
-0.0926887 0.0655949 0.0492844
0.00154615 0.252756 -0.253493
0.123632 0.152134 -0.0574344
-0.0210825 0.00860845 0.0262894
0.131458 0.0350793 -0.214039
-0.127526 -0.0146531 -0.00729735
-0.110385 -0.367038 0.262155
-0.139385 -0.110032 0.254657
-0.100329 0.520217 -0.165936
0.00128978 0.0393228 0.0225595
-0.0938778 -0.32489 0.0491447
-0.00100895 -0.103711 0.0246671
-0.10797 0.200776 0.192328
0 0 0
0.0107406 0.011647 -0.00193498
0 0 0
-0.178971 0.221441 0.324465
-0.0599858 -0.0220888 0.030839
-0.18832 0.677222 0.31075
-0.0672036 0.219252 0.491554
-0.176958 0.133942 -0.00295683
-0.303598 -0.113245 0.053794
-0.310085 0.0657517 -0.0827374
-0.0755967 0.159119 0.0534253
-0.0112529 -0.232566 0.347524
-0.0643945 -0.105044 -0.135871
-0.12899 0.0882341 -0.0690329
-0.0727376 0.0452393 0.0874532
-0.015984 0.336367 -0.143293
0 0 0
0 0 0
0 0 0
0.158203 0.180324 -0.14785
0 0 0
0 0 0
0 0 0
0 0 0
0 0 0
0 0 0
0 0 0
-0.176043 0.211913 -0.273753
-0.0243611 0.482866 0.0751396
0.00176938 -0.250385 -0.025498
-0.117973 0.0555868 0.102719
0.000521547 -0.17138 0.0269821
-0.109807 0.0784801 0.421851
-0.0408369 0.00381517 0.0919247
0 0 0
0.0810198 0.0577783 -0.0638525
-0.00380482 0.137529 -0.321682
-0.261968 -0.126646 0.0201712
-0.00540263 0.146978 -0.0216854
-0.229531 -0.0122211 0.000962297
0 0 0
0.0199815 -0.0605334 -0.365725
0 0 0
0.118961 0.154646 -0.140373
0.162639 -0.0912693 0.0783353
0.030338 0.0752335 -0.233598
-0.0817842 0.0881735 -0.147932
-0.0469508 -0.0102404 0.00664489
-0.212166 0.0622788 0.467369
0 0 0
-0.0690093 0.00727109 0.0735318
0 0 0
0.0691344 -0.148432 0.0276622
-0.0744809 -0.0248255 0.131339
0.0226996 0.0660144 -0.0183816
0.0566053 0.337232 0.0791583
0.00133992 -0.0471016 -0.0556701
0 0 0
0.0451821 0.0749136 -0.0913099
-0.0427504 0.0258233 0.0955603
-0.0283657 -0.0229556 -0.0846259
0.424266 0.164981 0.472085
0.0488104 0.118076 0.103959
0.0474818 -0.150094 0.0022262
-0.0242196 0.0120643 0.0526709
0 0 0
0 0 0
-0.127167 0.344297 -0.0647062
0 0 0
-0.0678991 0.138145 0.435331
0.0175546 -0.0880719 0.0597195
0.26897 0.0350301 0.161252
0 0 0
-0.0534711 -0.0718761 -0.193524
-0.0857996 0.110257 -0.089625
0 0 0
0.109707 -0.105307 -0.177112
-0.015856 0.00789964 -0.282358
-0.0626405 0.0655372 0.0527657
0.147763 0.0155527 0.466267
0 0 0
-0.0229207 -0.0379026 0.0947231
0.146563 0.199205 0.409817
-0.0131741 -0.00675451 0.0316757
0 0 0
-0.15125 0.141686 -0.298779
-0.0332968 0.111904 -0.0251381
0.216926 0.0937916 -0.118213
0.192294 -0.0355576 0.0802034
0.148239 -0.372202 -0.152931
0.190584 0.331706 -0.0377969
0.379536 0.118535 0.121125
0 0 0
-0.0120411 -0.135514 0.0353288
0 0 0
-0.0170223 -0.04273 -0.301136
0 0 0
0.0601679 0.0736088 0.00228228
0 0 0
-0.0543054 0.0551046 0.0442945
-0.0165332 0.0573143 -0.0266979
0.404387 0.114835 -0.0588361
0.263992 0.197118 0.105315
0.0999115 0.0970599 0.204528
0.0993689 0.182756 0.209379
-0.00154057 0.0907001 0.0190429
0.291977 -0.0391165 0.142314
0.217975 0.0271552 -0.051028
0 0 0
-0.0080999 0.143772 -0.242012
0 0 0
0 0 0
-0.0153089 0.0721642 -0.0668277
-0.036938 -0.00148305 -0.00212054
0 0 0
0.0461822 -0.0642762 0.00112105
0 0 0
0 0 0
0 0 0
-0.215969 -0.0888459 -0.082624
0.0490321 0.192574 0.15465
0.373068 -0.311934 -0.20057
0.00772574 0.0414671 0.0367158
0.170034 0.182716 -0.0510753
-0.0760537 0.218807 -0.290432
0.172257 -0.113911 -0.0840814
0.443126 -0.332153 0.357848
0 0 0
0 0 0
-0.174565 0.29273 -0.0490799
-0.0709555 0.129742 -0.000653871
0 0 0
0 0 0
-0.175765 -0.115471 -0.059253
0 0 0
0 0 0
0.0348394 0.142208 -0.164026
0.303834 -0.155126 -0.230725
0.0359781 0.0469487 -0.0229108
0.266548 -0.201801 0.338205
0 0 0
-0.0171327 0.118938 -0.0386955
-0.0142232 -0.032313 0.106626
0.0356076 0.127226 0.00173997
0.0584378 0.0299907 -0.138317
0 0 0
0 0 0
-0.0968844 0.185175 0.103425
-0.0129299 -0.00357327 -0.00632274
-0.177282 0.0677497 0.103396
0 0 0
0.17429 0.403937 -0.0264095
0 0 0
0.0983266 0.189234 -0.435993
0.000354734 -0.0197389 -0.02345
0.0769681 0.177557 0.386911
0.0165257 0.00367407 -0.0215193
0.346784 0.265092 -0.245086
0.492172 0.0806084 -0.0366442
0 0 0
-0.145661 -0.0198259 0.0834698
-0.0600626 -0.199637 -0.337582
0 0 0
0 0 0
0.0638409 -0.0488017 0.0440521
0.025758 -0.139298 -0.284665
-0.00867405 -0.0991428 -0.319349
0 0 0
0.0537696 0.00201248 0.275857
0.000270468 0.0030039 -0.0117457
0.0894896 0.000152249 0.0198405
-0.0974542 0.00489304 0.111641
0 0 0
0.0016824 0.19603 0.182569
0.129217 -0.0361006 -0.0558392
0 0 0
-0.0567072 -0.197577 0.23371
0 0 0
-0.364615 0.0651106 -0.107874
-0.153875 0.0320445 -0.178625
0.0676514 0.00654135 -0.0133171
0.0459952 0.133336 0.00170496
0 0 0
-0.387548 0.257534 0.0840942
-0.165083 -0.170415 0.038957
-0.00341028 -0.0736143 -0.0870727
0 0 0
0.15374 0.204254 -0.261999
0 0 0
-0.0536635 -0.100879 0.185157
0.00344792 -0.0954542 0.206963
0.229162 0.183768 0.142979
0.00189628 0.0273971 -0.0657395
-0.310757 0.487377 -0.242306
0 0 0
-0.0124301 -0.166534 -0.179079
0 0 0
-0.21384 -0.00580021 -0.211836
-0.0547532 -0.00259338 -0.010659
-0.0938276 -0.0450458 -0.0492711
-0.0689507 -0.22963 -0.229257
0 0 0
0.0532181 -0.0299345 0.0877718
-0.251724 -0.250484 0.0707216
-0.195011 -0.073783 -0.143445
-0.671147 -0.46798 -0.258632
-0.00764767 0.169035 0.0117765
-0.0816856 -0.0671909 -0.305836
0.00354534 0.0566406 -0.225636
0 0 0
-0.0215046 -0.0803321 -0.0926042
0 0 0
3.11139e-05 -0.0314102 0.350696
-0.112113 -0.156419 0.125115
-0.0189967 0.00827902 -0.00155242
-0.132621 0.0992651 -0.130857
-0.0357612 -0.131517 -0.0894666
-0.234596 0.0620149 0.107009
0.129534 -0.129161 0.169003
-0.85775 -0.0163093 -0.662517
-0.45361 0.0833201 0.160193
-0.224634 0.0202559 -0.00459117
0.000385395 0.078199 0.178997
0 0 0
-0.100276 0.00278035 0.229082
0.170032 -0.104702 0.0282881
0.0129797 0.00475228 -0.0338069
0.128688 -0.511181 0.336155
0 0 0
0.00610254 0.177199 -0.121449
-0.210419 0.259217 -0.101648
-0.354133 -0.0298447 -0.00161367
-0.4516 -0.180641 0.0141152
-0.0623248 0.0892049 0.0539073
0 0 0
-0.348972 -0.135294 0.146193
0.027871 0.0711936 -0.140493
-0.0598192 -0.187958 -0.221636
-0.0784493 0.0155641 0.0335967
0 0 0
0 0 0
0.383562 0.0315267 -0.29877
0.0733061 0.13974 0.0337028
0.0514799 -0.351053 -0.310868
-0.0294663 -0.0394318 0.034765
0.0811035 0.137749 0.252693
0 0 0
0.200305 0.156804 -0.0325242
0 0 0
-0.0590953 0.041868 0.131545
0.221896 0.0739854 0.171224
-0.00566644 -0.128855 -0.0530471
-0.0452394 0.101461 -0.133078
-0.264426 -0.387884 0.0802365
-0.220841 0.244799 0.0845601
-0.525305 -0.285253 0.0536517
-0.5167 -0.469823 0.00778602
-0.0384347 -0.0827307 0.101194
-0.0836826 -0.32981 0.148503
-0.00505974 -0.0177617 -0.0100137
0.0137174 -0.143959 -0.00346165
0 0 0
-0.121865 -0.0543233 0.0371143
0 0 0
0 0 0
0.00552296 -0.0269826 0.0504652
-0.0797241 -0.0543133 0.00478272
-0.120515 -0.0311266 -0.138567
0 0 0
0.30799 -0.065778 0.174069
0.01398 -0.103501 0.0245341
-0.0402348 -1.35526e-05 0.091625
-0.030475 -0.109704 0.00211604
0 0 0
0.0482106 0.372589 0.0368087
0.0441148 0.0394593 0.0313626
-0.203554 -0.496744 0.11039
0.0046811 -0.147047 -0.0103927
0.0102321 -0.0842593 -0.00552721
0.00317573 0.00672096 0.00421914
-0.0164122 0.0678503 -0.362633
0.157513 0.0522653 -0.285229
0 0 0
-0.0526049 -0.00143403 0.112498
-0.0994253 -0.134911 -0.21748
0 0 0
0.092334 -0.211909 -0.0937038
0.139752 0.0164865 -0.0191248
0.0273868 0.0316035 0.044893
0 0 0
0.0242172 -0.0313133 0.0847386
0 0 0
-0.123316 0.0539565 0.0673741
-0.207893 -0.114275 0.0512598
-0.178516 0.0634064 0.262619
-0.251571 0.178592 -0.032876
-0.0975079 -0.151284 -0.0339303
-0.0690318 0.0706686 7.58915e-05
0.00178893 0.022114 -0.0766034
-0.140629 0.674907 -0.1948
-0.0317099 -0.142409 0.187118
-0.336596 -0.188192 0.454124
-0.110582 -0.123969 -0.0281729
0.35833 -0.142984 -0.0233713
-0.256454 0.0601938 0.0663896
-0.00260248 -0.00247021 0.0492331
0 0 0
0 0 0
-0.216886 -0.0966813 0.182821
-0.0104711 -0.0187094 0.0347713
3.85841e-05 0.354693 -0.0747909
0.0593555 -0.0860232 0.146826
0 0 0
0 0 0
0.0748363 -0.197626 0.386508
0 0 0
0.0616882 0.0397041 -0.00295495
-0.00818737 0.14076 0.00212329
0.0768646 0.000151399 0.257023
0 0 0
0.245224 0.0941416 0.195801
0 0 0
0.0142162 0.0162283 0.0236753
0.202055 0.0121318 0.355868
-0.0662438 -0.0258804 0.118026
-0.0594058 0.114366 0.220699
0 0 0
-0.0643858 -0.148407 -0.138161
0.225233 -0.352449 0.0485569
0.127611 0.0203759 -0.045601
0.0764453 0.161988 -0.0145787
-0.0797577 0.252125 -0.0895955
-0.0645139 -0.0110673 -0.275733
-0.000853745 0.0823993 -0.00295826
-0.0771817 0.132395 0.217651
-0.0957636 0.218599 -0.0688909
-0.197651 0.133991 0.0159629
-0.19722 0.314049 0.0191277
0 0 0
-0.212103 -0.232235 0.231126
0.0536919 -0.217404 0.120805
-0.234497 0.0123442 0.0459996
-0.198314 -0.127943 0.193289
-0.177433 0.0927245 0.154929
0.107083 -0.00491242 0.0101611
0.0113376 0.279673 -0.380512
0 0 0
0 0 0
0.056867 0.122033 -0.164541
0 0 0
0.180061 -0.193572 -0.0820591
0.0173483 0.0252773 -0.00809213
0.299282 0.0225344 -0.0579993
0.0166528 0.0416726 0.0427109
0.0434764 0.00865037 0.213392
-0.00031623 0.0350427 0.0327682
-0.0540179 0.269414 0.0177734
0 0 0
-0.00532664 0.0393127 -0.105348
0 0 0
-0.205243 0.269992 -0.195619
-0.235171 0.162387 0.012324
-0.0519925 -0.15819 -0.0687626
0.107194 -0.159414 -0.477645
0.080273 -0.0101909 -0.0466691
-0.353618 0.212772 0.134885
-0.204868 -0.29249 0.168845
-0.0065367 0.000883705 -0.000418448
-0.113934 0.254732 0.184285
-0.00486233 0.00591167 0.0472719
0.00880625 -0.0289739 -0.100179
0 0 0
-0.202506 0.0675853 0.23972
0.0418185 0.0455809 -0.0241057
-0.167515 -0.0597816 0.154187
0.0501055 -0.0108743 -0.00305893
-0.0366367 -0.0857542 -0.0214588
0.000232095 -0.0437806 -0.156114
0.0723971 0.0254111 -0.0361105
0 0 0
0 0 0
0 0 0
-0.00699461 -0.385322 0.12489
-0.0890273 -0.0537235 -0.130115
-0.0532836 0.00549979 0.0643992
-0.151856 0.0263915 0.0595919
0 0 0
0.146801 0.162791 0.218716
0.0161786 0.0696902 0.022844
0.22647 0.582873 0.104582
0.0502923 -0.333736 -0.179155
-0.164025 0.00285513 -0.00560934
0.0279047 0.186172 -0.0638757
0 0 0
-0.00491968 -0.061299 0.0691072
-0.135997 0.0381488 0.00298039
0.0704967 -0.110174 0.0626883
-0.0815353 0.0602758 -0.0172681
0 0 0
-0.182388 -0.439129 0.234815
-0.153597 0.0937964 -0.193776
-0.326782 -0.203303 0.0242143
-0.00337441 -0.0766504 -0.0413629
-0.523512 -0.0881706 0.262706
-0.0836141 0.07251 0.102425
0.131111 0.0154705 0.115463
0.0272307 0.00230387 -0.0529132
0.0334322 -0.327546 -0.0309559
0 0 0
-0.212004 0.387185 0.164853
-0.187743 0.00708703 -0.147776
-0.256617 0.116948 -0.0985195
0 0 0
-0.290282 -0.146779 -0.381623
0 0 0
-0.297356 -0.156875 -0.106176
-0.154821 -0.555257 0.0510465
0 0 0
-0.39087 -0.054622 0.134356
0.00279803 -0.10042 -0.0455312
-0.0738255 -0.300339 -0.265688
-0.0557443 0.0528249 0.049052
-0.0359343 0.0192773 -0.0445954
-0.172777 0.00932929 0.16047
-0.052409 -0.0130381 0.177908
-0.159614 -0.110577 0.337597
-0.0882166 0.0297512 0.0816419
0 0 0
0.078707 0.0494022 -0.23208
0 0 0
0.18167 0.0845161 -0.478307
-0.113689 -0.106579 0.0351248
0.043209 0.0993659 0.242325
-0.19144 -0.156601 0.211201
-0.401777 0.0977581 0.22769
-0.038603 -0.213256 -0.109037
-0.329418 -0.00350169 0.228995
0 0 0
0 0 0
-0.0488485 0.0376811 0.0371479
0.0551834 0.121033 0.0671008
0.0973991 0.0444401 0.114069
0.112183 0.0600378 0.0738415
0 0 0
-0.0642556 0.151951 0.0206391
-0.0885345 -0.226409 0.111267
0 0 0
0.0338969 -0.198198 -0.334665
-0.016081 -0.0737004 0.0105657
-0.0529941 -0.17364 0.211254
0 0 0
-0.151746 0.0072542 -0.0410889
0 0 0
-0.0562823 0.258657 -0.00131879
0.0365124 0.000342846 -0.021003
-0.0147802 -0.200966 2.13871e-05
0 0 0
-0.0458685 -0.17865 -0.143618
0.00461552 -0.11669 0.00223215
-0.0994228 0.0311066 -0.354966
0.0231971 0.0750573 0.103177
0.156465 -0.0763238 -0.102305
-0.00594506 -0.246014 0.0480408
-0.0677075 -0.0296621 -0.120089
0 0 0
-0.219605 -0.0265375 0.202566
0 0 0
-0.222722 -0.595824 0.0397781
0.000959856 -0.0469826 0.14049
0.0375944 -0.0210218 0.0485372
-0.0707947 0.14376 -0.292972
0.0679779 -0.192125 0.00495977
0 0 0
-0.0034525 0.0179836 0.000297677
0 0 0
-0.0765663 0.530845 0.0288217
0 0 0
-0.0366642 0.152099 0.146791
0 0 0
0.00171364 -0.233441 -0.21454
0.0152287 0.00392924 -0.00607578
-0.218968 -0.357278 0.00206335
0 0 0
0.06544 -0.0772474 -0.138006
0.0221895 0.0155537 -0.138425
-0.0546901 -0.0149754 0.0441226
-0.0104206 -0.00585932 -0.012013
0 0 0
-0.0761908 0.192046 -0.124832
0.189379 0.0547443 0.369968
0 0 0
0.00344916 -0.0297072 -0.00983816
0.0805252 -0.0305202 0.16965
0 0 0
0.0774229 -0.0587365 -0.264149
0 0 0
-0.15687 0.290481 -0.439567
-0.0561838 0.125395 -0.237611
0.0398352 -0.206524 0.00225399
-0.214748 0.0745603 0.00461374
0 0 0
0.112432 -0.034169 -0.114326
0.0941254 0.0393792 -0.00152191
0.0484657 -0.107871 -0.254408
0 0 0
-0.0696166 0.393518 -0.0731598
0 0 0
-0.111111 0.0841247 0.245733
0 0 0
-0.036286 0.298166 0.133431
0.276641 0.295472 0.00755551
0 0 0
-0.0600345 -0.0916662 0.00138741
0 0 0
0.0546246 -0.287002 -0.338842
0.0289347 -0.00583384 0.00046689
-0.182391 0.116217 -0.0670835
0.0609666 -0.0192895 0.282388
0.0569405 0.407835 -0.270873
0 0 0
-0.0546526 -0.016029 -0.140598
-0.00501049 0.0519187 0.0733483
0.00123057 0.0746124 0.110252
0 0 0
0 0 0
0 0 0
0 0 0
0 0 0
0 0 0
0 0 0
0 0 0
0 0 0
0 0 0
0 0 0
0 0 0
0 0 0
0 0 0
0 0 0
0 0 0
0 0 0
0 0 0
0 0 0
0 0 0
0 0 0
0 0 0
0 0 0
0 0 0
0 0 0
0 0 0
0 0 0
0 0 0
0 0 0
0 0 0
0 0 0
0 0 0
0 0 0
0 0 0
0 0 0
0 0 0
0 0 0
0 0 0
0 0 0
0 0 0
0 0 0
0 0 0
0 0 0
0 0 0
0 0 0
0 0 0
0 0 0
0 0 0
0 0 0
0 0 0
0 0 0
0 0 0
0 0 0
0 0 0
0 0 0
0 0 0
0 0 0
0 0 0
0 0 0
0 0 0
0 0 0
0 0 0
0 0 0
0 0 0
0.0720208 -0.0732464 -0.159008
0.107688 -0.0756042 0.0902247
-0.00206133 0.0461944 -0.0319073
0.023447 -0.109945 -0.0150126
0.0721242 0.171011 0.0765807
0 0 0
0.154624 0.0402725 -0.0721726
-0.00797224 0.0249342 -0.14006
-0.102201 0.0131621 0.109127
0.0193025 -0.1625 -0.114048
0.00108774 0.0365097 -0.0305336
0.0119777 -0.0531286 0.191287
-0.166004 0.0647634 0.0228089
2.16876e-05 0.00513242 0.00257471
-0.106996 0.0885506 -0.0534638
0.0312978 -0.0775744 0.175172
0.0604941 0.019546 -0.104344
-0.0938397 0.019973 -0.0443176
0.00259008 -0.0512533 0.00240448
0.181318 0.100204 -0.126564
-0.0188562 0.0116612 0.00451203
0.00431821 0.0119964 -0.0646664
0.10689 0.123986 -0.0167392
0.00590524 0.12951 -0.144671
0.00533936 -0.121783 -0.0984741
0.046025 0.0145559 -0.0578452
0 0 0
-0.0701848 -0.0849531 -0.141068
0.177897 0.0448736 -0.0124689
0.00661277 -0.0230389 0.0551279
-0.0304852 -0.128419 0.15178
0.0120287 0.110124 0.152378
-0.00162778 0.0023483 -0.0476164
0.071393 0.0194292 0.1331
0 0 0
0.00901122 -0.00146211 -0.00146579
-0.0577116 -0.0713814 -0.00226389
0 0 0
0.0566045 -0.000662165 0.0564084
-0.00187711 -0.197186 0.298513
0.0514836 0.219432 -0.271996
-0.0962116 -9.58207e-05 0.192371
0 0 0
-0.0516725 0.0344127 0.021875
-0.11669 -0.00658723 0.0744732
0 0 0
0.0842125 -0.0878627 -0.017538
-0.0577965 -0.0498721 -0.0770875
-0.0829949 0.0472445 -0.026032
0.0254138 -0.0199432 0.0735552
0 0 0
-0.112227 -0.00163503 0.0750277
0.049397 0.0402855 0.0330365
0 0 0
0.0889004 0.0344719 -0.0912315
0.00752428 -0.236755 -0.0159202
-0.00320827 0.176819 -0.0259354
0.00138141 0.00170715 -0.0263887
0.0105292 0.123795 0.260992
0.0750383 0.0147099 -0.305574
-0.0575928 -0.1272 0.080271
0 0 0
0.0184751 0.0502474 -0.0116609
-0.0183598 0.00137442 0.0594628
0.242286 0.01832 -0.0143814
-0.0184992 -0.27178 -0.169709
0 0 0
-0.00325822 -0.061023 0.0742122
-0.229307 0.0231233 0.180386
-0.322231 0.0514422 0.144524
-0.00362153 0.536139 -0.0495268
0 0 0
0.066599 -0.00612402 -0.18998
-0.342183 0.356965 0.241457
0.0575259 0.00955004 0.0660825
-0.000777836 -0.0921452 -0.311044
-0.00113983 -0.205038 0.00300951
0.000764476 0.0656713 -0.0276174
0.105599 0.230288 0.304966
-0.127454 -0.0345889 -0.144495
-0.203835 -0.664516 0.232643
0 0 0
0 0 0
0.0493173 0.380844 0.5342
0 0 0
0 0 0
0.0618778 0.447768 -0.000827326
0 0 0
0 0 0
0 0 0
0.125675 -0.179101 0.0040181
-0.188254 0.0976107 0.142135
-0.103074 -0.574743 -0.774329
0.000201976 -0.113996 0.0139078
-0.256089 0.290724 -0.157167
-0.0343041 -0.110254 -0.346997
-0.133858 0.289131 -0.0215306
0.00755391 0.0032816 -0.0232194
-0.138084 -0.122064 0.252841
-0.253907 0.0994759 0.0578365
-0.000937829 -0.0899909 0.0243577
-0.157425 -0.166398 -0.141396
-0.10862 0.210247 0.0237077
-0.0569714 -0.109917 -0.00413818
0.0720989 0.0285192 -0.000493267
-0.0422101 0.0393238 -0.0233019
-0.0802694 0.0716318 0.024169
-0.00038766 0.0953054 0.0571381
-0.359847 0.372047 0.185526
0.0802809 -0.0611576 0.140679
0 0 0
-0.0459215 -0.126361 -0.578914
0.155332 0.402025 0.0974698
0 0 0
0.0529981 0.0722388 0.076138
-0.00225784 0.533945 -0.017788
0 0 0
0.152196 0.238824 0.0975387
0 0 0
0 0 0
-0.213206 0.0838472 -0.00572809
0 0 0
-0.0603067 -0.110826 -0.234259
-0.002572 -0.030057 0.0442821
0.0224707 -0.231878 -0.0323191
-0.112715 -0.0984241 0.113751
0 0 0
-0.0552889 -0.0148867 -0.0793716
-0.0409405 0.0761851 -0.0644061
-0.167696 -0.334708 0.210604
0.0525427 -0.150525 0.00983382
0 0 0
-0.153521 0.0144945 -0.0395169
0.0288895 -0.0633332 0.00469842
-0.0871927 0.0337377 0.0521592
0.153651 -0.0683053 0.00310514
0 0 0
0 0 0
0.0503874 0.0528958 0.00527782
-0.0410084 0.0197944 -0.00819711
0.109552 -0.00236231 -0.0214089
-0.359049 -0.493594 0.0896775
-0.183829 -0.142875 -0.0456408
-0.374362 0.224149 0.00375381
-0.0315535 0.0245713 0.000823882
-0.0953867 0.109728 -0.12436
0 0 0
-0.0853366 -0.0254018 -0.289236
0.151545 -0.0420392 -0.156885
0.17072 0.0696937 -0.366945
0 0 0
0 0 0
0 0 0
0.219451 -0.00428712 -0.0803782
0.0931918 0.0769143 -0.197952
-0.207129 0.368102 0.0333636
-0.238771 -0.366411 0.0666178
-0.273948 0.241954 0.0863721
0 0 0
-0.46118 -0.0825311 0.0257835
0 0 0
0.38619 0.125555 0.000449942
0.102005 -0.0595216 0.0271714
0.00346692 0.0817694 -0.180501
0 0 0
-0.0184831 0.0778081 -0.120825
0 0 0
0 0 0
0.328441 -0.491848 0.010667
0 0 0
0.0804899 0.302575 0.095461
0 0 0
0.378823 0.196054 -0.281441
-0.131113 0.594937 -0.22303
0.0791769 0.0786613 0.0682491