<?xml version="1.0"?>
<VTKFile type="RectilinearGrid">
<RectilinearGrid WholeExtent="0 32 0 32 0 32" Origin="0 0 0" Spacing="1 1 1">
<Piece Extent="0 32 0 32 0 32">
<PointData>
</PointData>
<Coordinates>
<DataArray type="Float32" format="ascii">
0 0.524874 1.04975 1.57462 2.0995 2.62437 3.14924 3.67412 4.19899 4.72386 5.24874 5.77361 6.29849 6.82336 7.34823 7.87311 8.39798 8.92285 9.44773 9.9726 10.4975 11.0224 11.5472 12.0721 12.597 13.1218 13.6467 14.1716 14.6965 15.2213 15.7462 16.2711 16.796 
</DataArray>
<DataArray type="Float32" format="ascii">
-5.03879 -3.62163 -2.20447 -0.787311 0.629849 2.04701 3.46417 4.88133 6.29849 7.71565 9.1328 10.55 11.9671 13.3843 14.8014 16.2186 17.6358 19.0529 20.4701 21.8872 23.3044 24.7216 26.1387 27.5559 28.973 30.3902 31.8074 33.2245 34.6417 36.0588 37.476 38.8931 40.3103 
</DataArray>
<DataArray type="Float32" format="ascii">
0 0.524874 1.04975 1.57462 2.0995 2.62437 3.14924 3.67412 4.19899 4.72386 5.24874 5.77361 6.29849 6.82336 7.34823 7.87311 8.39798 8.92285 9.44773 9.9726 10.4975 11.0224 11.5472 12.0721 12.597 13.1218 13.6467 14.1716 14.6965 15.2213 15.7462 16.2711 16.796 
</DataArray>
</Coordinates>
<CellData>
<DataArray type="Float32" Name="Vector" NumberOfComponents="3" format="ascii">
0 0 0
0 0 0
0 0 0
0 0 0
0 0 0
0 0 0
0 0 0
0 0 0
0 0 0
0 0 0
0 0 0
0 0 0
0 0 0
0 0 0
0 0 0
0 0 0
0 0 0
0 0 0
0 0 0
0 0 0
0 0 0
0 0 0
0 0 0
0 0 0
0 0 0
0 0 0
0 0 0
0 0 0
0 0 0
0 0 0
0 0 0
0 0 0
0 0 0
0 0 0
0 0 0
0 0 0
0 0 0
0 0 0
0 0 0
0 0 0
0 0 0
0 0 0
0 0 0
0 0 0
0 0 0
0 0 0
0 0 0
0 0 0
0 0 0
0 0 0
0 0 0
0 0 0
0 0 0
0 0 0
0 0 0
0 0 0
0 0 0
0 0 0
0 0 0
0 0 0
0 0 0
0 0 0
0 0 0
0 0 0
0.0560079 0.102484 -0.14274
0.0540817 -0.0324357 0.0322265
0 0 0
0.232858 -0.0459029 -0.0373769
-0.0415495 -0.107047 -0.0422254
0 0 0
0.312195 -0.217087 0.000150887
-0.0725537 0.0395043 0.00701043
0.0738427 -0.109952 -0.0348828
0.0371599 -0.162175 -0.0159928
0 0 0
-0.107699 0.206993 -0.0607253
0.195572 0.107339 0.0191983
-0.00293098 0.0233889 -0.0765235
0.165556 -0.207051 -0.0899684
-0.0967815 -0.107042 -0.0862349
0.0426015 0.0634554 0.0483825
-0.151322 -0.0383049 0.0317544
0 0 0
-0.171752 0.135085 0.00667298
-0.0413687 -0.186229 0.0301189
0 0 0
0.145444 0.300647 -0.0104712
-0.100159 -0.0282151 -0.0312025
-0.0615437 -0.0671401 0.0465363
0.00759997 -0.0224549 -0.0293812
-0.0236091 0.0506819 0.0360772
-0.246881 -0.166551 -0.0485728
-0.307494 0.237407 0.0813645
-0.000492058 0.00351843 0.0243111
0.00304423 -0.110858 -0.00731876
-0.000894686 -0.201332 0.0437548
0.154491 -0.28844 -0.163262
-0.0825424 -0.0015192 -0.0156098
-0.119955 0.0411105 -0.0762978
-0.405516 -0.124034 0.0774634
-0.128691 -0.0180745 0.150827
0 0 0
-0.0483837 -0.166271 -0.052951
0.0785925 0.00582213 0.0235049
0 0 0
0.134252 -0.19952 0.0240004
0 0 0
0.043186 0.021054 0.0272383
0.00283896 0.0738875 0.00270954
0 0 0
0.0547247 -0.04512 0.0915323
-0.325036 -0.188189 -0.0972984
-0.280345 0.167887 0.127733
0.0195138 0.0121226 -0.031727
0 0 0
0.250533 0.312803 0.000737974
0.0112902 -0.0863304 0.138252
0 0 0
-0.0278748 -0.00409042 0.0564039
0 0 0
-0.00771025 -0.0091463 0.0135973
0.409983 -0.160105 0.0570879
0 0 0
0.0070638 -0.0568603 0.0709502
-0.236865 -0.122386 0.0406689
0 0 0
-0.066963 0.0364271 0.0603847
0.0864889 0.0969923 0.203346
0 0 0
-0.0790633 -0.273058 -0.291012
0.000789807 -0.0047912 0.0612494
0.304588 -0.155066 -0.059501
-0.0254215 -0.15539 0.221389
-0.000477966 -0.162255 -0.0551749
0.312571 0.419055 0.449775
0.233051 0.125784 -0.217759
0.0647587 0.071047 -0.00808455
0.00324289 -0.161764 0.412423
0.089761 0.095787 0.0460406
-0.13647 -0.229153 0.0638341
-0.013101 -0.030487 -0.0689502
-0.371104 0.0237734 0.293722
-0.336236 0.0908577 0.0978349
0.137473 -0.150083 0.106802
0.350016 0.506722 0.0880105
0.0660709 0.0730782 0.114884
-0.16483 0.25046 -0.12351
-0.0392333 0.349908 -0.131038
-0.0907072 -0.117909 0.13433
0 0 0
0 0 0
0.0658542 -0.0451497 0.102886
0.0614134 0.0518427 -0.0452993
0.204615 0.0614601 -0.0568669
-0.0841396 -0.00846112 -0.149138
0 0 0
0.099723 -0.0513904 0.000180798
0 0 0
0.053137 0.307239 0.313897
0.465179 -0.185222 0.284608
0 0 0
-0.0385874 0.0242306 -0.104386
0 0 0
-0.0148563 0.00486423 -0.00481774
0 0 0
-0.173675 -0.0385463 0.136616
0.283895 0.1328 0.236779
0.197441 0.856278 -0.157578
-0.0190195 0.0111139 0.00331036
0.306195 0.161067 -0.169969
0.0295778 0.119348 -0.363612
0 0 0
-0.0033073 -0.00440945 -0.11793
0 0 0
0.0311723 -0.000249268 -0.0115519
0.508638 0.529209 -0.094394
-0.00152146 0.306302 0.180937
0.109525 0.266244 0.0823427
-0.00367513 0.130589 -0.00571371
0.22316 0.0667675 -0.101342
0.13749 -0.0145033 0.315658
0.153328 -0.316875 0.00515564
0.194387 0.0618811 -0.0555051
0.0334563 -0.0477224 -0.10379
0 0 0
0.0597725 -0.150759 0.000146855
0.42114 0.0251653 -0.288425
-0.392449 -0.0171592 -0.0784167
0 0 0
-0.255254 -0.126676 0.134093
0 0 0
0 0 0
-0.013078 0.0522666 -0.0285973
-0.272585 -0.231045 -0.134146
-0.22397 -0.0558918 -0.118799
-0.199972 0.220927 -0.164365
-0.101832 -0.0271518 0.000961009
-0.00849117 8.11441e-05 -0.0368237
-0.0306096 -0.140765 0.0705798
0.0398702 0.0388458 -0.00837957
0.420285 0.351626 -0.335593
0 0 0
0.318955 0.177409 -0.161698
0 0 0
0.193203 0.0837126 0.248126
0.283867 0.0669518 -0.293549
0.0108205 0.00824564 -0.00723506
-0.0163375 0.19599 0.105085
0.203778 -0.0359575 0.231841
0.288107 -0.0812135 0.000868406
0.147972 0.0312512 0.236412
0.274546 -0.153242 -0.0880667
0.304218 0.181522 0.212615
0 0 0
0.224541 0.0596749 -0.00278448
0.334771 0.0568956 0.165528
-0.00888201 -0.0387757 0.0197761
0 0 0
0 0 0
0.0503272 0.0462421 0.00299147
0.35496 -0.0992554 -0.206814
-0.255064 -0.127463 -0.399881
0 0 0
-0.0741737 -0.121482 0.0987978
0 0 0
0 0 0
-0.0602335 0.143079 -0.267909
0 0 0
0 0 0
-0.648737 -0.136817 0.326664
-0.156501 -0.0401196 0.0118898
0 0 0
0 0 0
0.0514615 -0.00994406 -0.150821
0 0 0
0.273433 -0.535131 -0.057626
0.00803345 -0.000870276 0.0210063
-0.250958 -0.18737 0.00321876
0.0111937 0.0954391 0.022984
0.14041 0.0814498 0.297866
0.225223 0.112719 0.215048
0.188592 0.197537 0.0598854
0.520906 -0.0102842 0.019266
0.133858 -0.0205985 0.322038
-0.000393375 0.0116088 0.163934
0.000740616 -0.0457732 0.0217606
0.372522 -0.317391 -0.169143
0.0486143 -0.0252992 0.0507992
0.509275 -0.0444942 0.17881
0.203493 0.203407 0.0515457
0.526186 0.409211 -0.0220017
0.41232 0.0489458 0.113481
0.0140855 -0.0758581 -0.0921783
0.210129 0.131369 0.0954784
0 0 0
-0.0854845 -0.250134 -0.517716
0.11695 0.0999949 -0.16497
0.0905049 0.0698843 -0.224936
-0.0479293 -0.16489 -0.157298
0.170267 -0.253068 -0.25977
-0.120197 0.0328812 0.201066
-0.00417098 0.298142 -0.0781337
0.0232795 -0.0228883 -0.131511
0 0 0
0.103874 -0.0522987 -0.012422
0 0 0
0.0228492 -0.206202 -0.169267
0 0 0
0 0 0
0 0 0
0.0129108 0.065274 -0.00158965
0.106707 0.0133603 0.000951581
0 0 0
-0.136486 -0.238758 0.186598
0 0 0
0.419453 0.17458 -0.00959287
0.286288 -0.0441926 0.0447229
0.341279 0.601301 0.412892
-0.13301 -0.181906 -0.147035
-0.0171583 -0.0244173 0.0216
0.00662488 -0.0993193 -0.0192588
0.0992412 0.294999 -0.00666838
0.288923 0.120978 -0.0356285
0 0 0
0 0 0
0 0 0
0.0525746 0.336153 -0.48186
0.154935 0.173903 -0.157182
-0.0422039 -0.395045 0.0329998
0.0220793 -0.0173074 0.00371428
0.160055 -0.0301587 -0.0548981
-0.0203026 -0.00257079 -0.00635879
-0.0686616 0.0551858 -0.0693587
-0.0101778 0.00292058 -0.00924297
0.0698936 -0.0630711 -0.152424
0.194961 0.0683979 0.0567908
0 0 0
-0.142092 0.0242656 0.123477
0 0 0
-0.00289834 -0.038622 0.00019771
0 0 0
-0.341531 -0.126476 -0.103609
-0.223274 0.227644 0.135238
-0.16169 -0.156006 -0.109364
-0.212983 -0.191846 -0.319588
-0.00256313 -0.0123129 -0.00361959
-0.0371558 0.339539 0.00737926
0.347043 -0.0990711 -0.422201
0.0297047 0.173852 -0.000611426
-0.146248 -0.214457 0.15906
-0.0528278 0.0700676 0.242425
-0.0187973 -0.0937062 0.00445715
0 0 0
0.228718 -0.144961 0.065801
-0.179661 0.464621 0.0710559
0.133194 0.0700024 0.0817449
0.223795 0.0700733 -0.443423
0.0190368 -0.209408 -0.217149
0.154765 -0.267455 -0.0378182
0 0 0
0.3145 -0.333665 -0.138779
0.0475343 -0.284548 0.274792
-0.145102 -0.308875 -0.120581
-0.0487783 0.544942 -0.269598
0.0369461 -0.0406305 -0.160951
0.0537788 0.0425394 0.190858
-0.124576 0.0663657 0.0305276
-0.118103 0.03359 -0.0457307
0 0 0
0.104748 -0.0631018 0.00217596
0 0 0
-0.0495149 -0.0288731 0.0856833
-0.00197479 -0.138833 -0.12145
0.000406029 0.235045 -0.114261
-0.0299073 0.0426883 0.0449201
-0.575179 0.0464501 -0.00395184
-0.413605 -0.0568043 0.19603
0 0 0
-0.0658985 0.0503585 -0.372942
0 0 0
0.221061 0.0668906 0.000409233
0 0 0
-0.133831 -0.12494 0.0334938
-0.258063 -0.068707 -0.0549368
-0.0416369 -0.106323 -0.00273887
-0.303122 -0.243371 0.0228484
0.204375 0.124218 -0.112393
0 0 0
-0.00871368 0.00213391 -0.251866
-0.0961191 0.355815 0.0557922
-0.10084 0.0766139 0.0957887
0.0655411 -0.375815 -0.2244
-0.467241 -0.231787 0.192761
-0.136155 -0.00528052 -0.343973
0.222765 0.0231959 -0.0242621
-0.181389 0.0883405 0.00597562
0.123603 0.0403263 -0.183556
0.192758 -0.118042 -0.0108925
-0.184548 -0.217746 -0.0157478
-0.0587658 0.0411077 -0.0595847
0 0 0
0 0 0
-0.115052 -0.225852 -0.00294381
-0.0753589 9.83807e-05 -0.0295034
0.186513 -0.529492 -0.034433
0.121838 0.171771 0.301481
0 0 0
0.132151 -0.0298448 0.0764157
-0.00829299 0.243289 0.195987
-0.179438 0.29696 -0.521956
-0.294705 -0.0445258 -0.00214554
-0.288227 0.203272 -0.0901326
0.108551 -0.0185301 -0.238523
-0.482359 -0.162031 -0.247484
-0.117966 0.0446533 -0.0621401
-0.52469 0.0523353 -0.157298
-0.323695 0.152292 -0.146711
-0.0703245 -0.0753508 0.00244478
0.00237478 0.0204691 -0.018483
0.0127587 -0.340618 -0.125899
0.25094 0.0557944 -0.0367951
0.0474191 0.000287451 0.0914862
0.129629 0.793541 0.237965
0 0 0
0.0186275 -0.253916 0.00868808
0.243156 0.19461 -0.279099
0.115795 -0.031373 -0.0575602
0.348028 0.028695 0.07024
0.162413 0.0270685 -0.109711
0.318197 -0.0820897 0.0674737
0 0 0
0 0 0
0.07642 -0.185166 -0.144024
0.0523169 -0.0977435 0.194451
0 0 0
0.215521 0.0230725 -0.100464
0 0 0
0 0 0
-0.125219 0.162521 0.0507124
0.2736 0.0351688 -0.121263
0 0 0
-0.170974 0.255701 0.0416253
-0.0115615 -0.00538532 -0.185104
-0.20312 0.468808 0.0205817
0 0 0
-0.00647375 0.0243268 -0.0845299
0 0 0
-0.0230879 -0.00314198 -0.00733136
-0.022756 0.151868 -0.2047
-0.111678 0.0957392 0.00814598
-0.0533023 0.165506 0.119499
0 0 0
-0.0299299 -0.51065 -0.000933862
0 0 0
0.144698 0.385364 -0.181541
0 0 0
0.0810043 -0.0963781 0.0497913
0 0 0
0.0852869 -0.0555183 0.0533102
0 0 0
-0.116316 0.112037 0.121549
0.000556814 0.0801575 -0.0755172
-0.181771 0.0292203 -0.144376
-0.00164467 -0.0104576 0.00938748
0.137929 -0.397752 -0.0493673
0.0773161 -0.0408997 0.147301
-0.086798 0.00904597 0.100879
0.122624 -0.173968 -0.219642
0.195498 0.174394 0.215382
0.241209 -0.124843 0.27151
-0.0164273 -0.0472363 0.0459732
-0.0964256 -0.159238 -0.291887
0.00530635 0.126029 0.00952602
0.037367 0.167893 0.147953
-0.0560744 -0.0457979 0.0547028
-0.0997802 -0.00535113 -0.0736235
0 0 0
0 0 0
0.0440838 0.75448 -0.111621
-0.00027596 -0.122824 -0.118757
-0.196722 0.22876 -0.175934
-0.0267444 0.242245 -0.118466
0.0235774 0.0394252 0.000751109
-0.0585108 0.0640032 -0.139942
0 0 0
-0.0611378 0.0334519 -0.303176
-0.174747 -0.543864 0.238742
-0.0387271 -0.210258 -0.00126982
0.230934 -0.104789 0.0013765
0 0 0
-0.177208 0.219096 0.000848952
0 0 0
0 0 0
-0.0634984 -0.00487836 -0.000200009
-0.00149114 0.053575 -0.10707
0 0 0
-0.198557 -0.5746 -0.106888
0 0 0
0.0104964 0.0334222 -0.30347
-0.125375 -0.110965 -0.0238914
-0.0298945 0.036283 0.191727
0 0 0
0 0 0
0.0751551 0.126723 0.122044
-0.00574194 -0.0043834 -0.0478344
-0.00957236 0.282385 -0.0567073
0.0264463 0.0554121 0.0472142
0.0037996 0.0190532 -0.0508426
0 0 0
-0.44201 0.414907 0.189271
0 0 0
-0.0472591 -0.0144622 -0.0013784
-0.00410306 -0.00372612 0.00460116
-0.153636 0.479241 -0.0959852
0 0 0
-0.165094 0.206237 0.190076
0 0 0
0.447405 0.0438226 -0.113823
0 0 0
0.482543 -0.503685 0.232365
-0.193053 -0.380051 0.0290166
-0.0427307 0.0127798 0.0115241
0.102448 -0.0649352 0.240659
-0.0448379 0.0628358 -0.00119829
0.155834 -0.0344837 0.104845
0 0 0
-0.062766 -0.0281272 -0.0897288
-0.00448498 -0.131146 0.161376
-0.0527627 -0.0254789 -0.417031
0 0 0
-0.0515668 -0.247879 -0.111759
-0.00411552 0.0405339 0.293518
-0.00720112 0.00996493 0.01233
-0.00261551 -0.005169 -0.0140051
-0.0328023 0.33919 0.34485
0 0 0
-0.0105849 0.0366051 0.0810832
-0.06472 0.121938 0.171595
-0.00472326 -0.0145796 -0.0367205
-0.226272 0.167236 0.155837
0.315262 0.0626942 0.226565
0.138463 -0.131736 -0.289403
0 0 0
0.0959305 -0.00516772 -0.295734
0.0846403 -0.00100284 0.0427376
0.096904 0.0772156 -0.000360623
0 0 0
0.00615764 0.207766 0.000561467
0 0 0
-0.014116 0.00804775 0.179122
0.0175477 -0.0985821 0.0373484
-0.0250146 -0.276978 -0.132444
0 0 0
-0.366417 -0.402747 -0.0112313
-0.116441 -0.0487074 -0.0382506
-0.256087 -0.552511 0.0225108
0 0 0
-0.26195 -0.159899 0.0348143
-0.00167944 -0.160749 0.0109212
0 0 0
0 0 0
0.0316865 0.224133 0.00410433
0.403065 -0.319366 -0.193347
0 0 0
0.0153154 -0.063163 -0.0859629
-0.0848634 0.0978503 0.000697396
0.0154045 -0.0465882 -0.0280453
0 0 0
0.0312897 0.318979 -0.0464264
0 0 0
0 0 0
0.234557 0.381799 0.00224798
0.0732335 0.153794 0.0874962
0.115726 -0.143407 -0.165959
0 0 0
0 0 0
0.123489 -0.202221 0.228977
0.0984229 -0.0957983 0.0538287
0.00680442 -0.0790177 -0.038531
0 0 0
0.0481214 0.114879 0.0943774
-0.0936631 -0.0253092 -0.0320375
0.0436935 -0.354169 0.136763
0.0554565 -0.11823 -0.0177455
-0.182779 -0.367084 -0.0148309
-0.00581502 -0.0449279 -0.225733
0.0223712 -0.158378 0.0813246
-0.0046324 0.114067 0.0897433
-0.123083 0.030782 0.235719
-0.0912064 0.0595995 0.285201
0.0538933 0.0230957 0.0249766
-0.155346 -0.107512 -0.202807
-0.232442 0.371055 -0.332734
0.058027 -0.127208 -0.0414186
0 0 0
-0.112408 -0.0568578 -0.00889476
0.147791 0.0100673 0.116715
0.261817 0.308689 -0.282082
-0.171443 -0.155835 0.160512
0 0 0
0 0 0
-0.0224575 0.247085 0.0184397
0 0 0
-0.0567288 -0.207205 -0.000621016
0.0512451 0.421437 -0.147099
0.0714789 0.372438 -0.179293
-0.070363 0.00389024 -0.227202
0 0 0
0 0 0
0 0 0
0.0614375 0.0824397 -0.289664
0.0718559 -0.133279 -0.112618
0.0199647 -0.0105677 -0.113876
0.145204 -0.00206016 -0.0782058
0.166133 -0.107386 0.00438633
0 0 0
0 0 0
0.024407 -0.0596177 -0.16773
-0.0587272 0.122192 0.0821383
-0.140904 0.100337 -0.153957
-0.0547796 0.0916339 0.0376071
0.00543343 0.00334016 -0.236899
0.179055 0.108862 -0.00882653
-0.0148947 0.154451 -0.0265034
-0.203622 0.294162 0.0863311
0 0 0
0.293177 0.0546702 -0.153282
0.0894912 0.0471652 0.0640437
0.233427 -0.498377 -0.167827
0 0 0
-0.0129491 -0.0603323 -0.00433678
-0.215798 0.152858 0.0578602
0 0 0
0.119607 -0.238839 0.491339
-0.343484 0.0677635 -0.201172
-0.0498599 -0.0922971 0.0365689
-0.13489 -0.186448 0.2542
-0.022795 -0.19027 -0.00208126
0.0847032 -0.044896 -0.0676907
0.0895337 0.10737 -0.0622198
0.0883644 -0.00184832 -0.442075
0.0768537 -0.374043 0.0720814
-0.0460233 -0.167721 -0.201256
-0.0136663 -0.0215212 0.00775599
-0.152969 -0.0173118 0.056859
-0.0670877 -0.128424 -0.179598
-0.00137523 -0.0560066 0.0479841
0.284416 0.346609 -0.306811
-0.0108224 0.0184262 -0.0503572
0 0 0
-0.176046 0.132844 0.0216625
-0.0883008 -0.0211488 -0.0748192
0 0 0
-0.0455911 -0.0339118 -0.138447
-0.308047 -0.0656514 0.285536
0 0 0
0 0 0
-0.054621 0.0905057 -0.0785792
-0.213236 0.225163 -0.318729
2.35956e-05 0.00760518 0.0189672
-0.0767508 0.0361146 0.00695804
0.00294721 0.156227 -0.00955154
-0.0227171 0.0843618 0.193782
0.215441 0.0715909 0.00479707
0 0 0
0 0 0
-0.184992 -0.164764 0.147534
-0.255687 -0.177839 -0.0946563
0.0286135 -0.119308 0.0209878
0 0 0
0.0655099 0.0178079 -0.241221
-0.0275726 -0.21431 -0.180979
0.0185587 -0.0530131 0.0161871
-0.33797 -0.156352 0.143426
-0.102676 -0.30284 -0.00251101
-0.00960361 -0.0144883 0.0069956
-0.214893 0.0400835 0.166483
-0.317693 -0.0384284 -0.322867
-0.218474 -0.205173 0.0505911
-0.323098 0.157581 -0.392367
0.00214438 0.0112908 -0.0923259
0.023889 -0.0244264 -0.0313613
-0.00529441 0.0342373 -0.0355695
-0.00128446 0.0448273 0.250225
0 0 0
0 0 0
0.176145 0.644201 0.282189
0 0 0
0 0 0
0.0222704 -0.0436605 -0.00100011
-0.203993 0.108434 0.0499721
-0.0477923 0.079529 0.135292
0.00445786 0.0664374 0.208805
0 0 0
-0.267147 0.122038 0.277978
0 0 0
0.112576 0.0883277 -0.054542
-0.087381 -0.208247 0.305587
-0.0914821 -0.186618 0.00732107
0 0 0
0.00306294 0.027394 -0.218445
0.0963728 -0.764206 -0.0647558
0.0498261 -0.14375 0.0951141
0.550916 -0.344873 0.00446142
0 0 0
0.0218649 -0.192604 0.050562
0 0 0
0 0 0
0 0 0
0 0 0
0 0 0
0.132223 0.0628893 0.172149
0 0 0
0 0 0
0.269077 0.0423337 0.0674693
0.0648859 -0.116346 -0.0148011
0 0 0
-0.0632529 0.428896 -0.081318
-0.00429595 0.0633955 0.136273
0 0 0
0.402762 0.0762545 -0.00216324
-0.00243991 -0.0101012 0.00129218
0 0 0
-0.0615573 0.185241 -0.0174839
-0.138285 0.0541467 0.106368
0.0383724 0.0784019 -0.110237
0.25126 -0.108159 -0.156721
0 0 0
0.0124724 -0.0974855 -0.00905337
-0.00108776 -0.0690794 -0.0668292
0.431469 -0.564001 -0.153564
-0.00578205 -0.190936 0.153091
0.346049 -0.698222 -0.206831
0.0509646 -0.011742 -0.0415031
0 0 0
0.00365934 0.0225136 -0.000594939
0.0134912 -0.469787 -0.0769449
-0.0353547 -0.0105671 -0.0521575
0 0 0
-0.100631 0.217846 -0.00334196
0 0 0
0.0104686 -0.160138 -0.00109099
0 0 0
0.553528 0.448717 -0.0288959
-0.0100178 0.64211 0.325994
-0.154778 0.0442614 0.307049
-0.0399432 0.11584 -0.030081
0.0803747 -0.197312 0.28932
0 0 0
-0.418083 0.0264952 -0.258724
-0.0300898 -0.0186257 -0.0224249
0 0 0
0 0 0
0.102825 0.00486886 -0.00311642
-0.0124969 0.00525487 -7.12258e-06
0 0 0
-0.187202 0.141707 -0.11967
-0.0158396 0.000798849 -0.0102905
0.163117 0.0865026 0.0658269
0 0 0
0.19605 -0.128224 0.462519
0 0 0
0.553652 -0.728026 0.143628
0 0 0
0.075906 -0.413361 0.0820999
0.178024 -0.0867934 -0.0864392
0 0 0
0 0 0
0.338003 0.0186258 -0.00667785
0.00260748 -0.00420199 0.00435935
0.0417165 0.000146303 0.0166744
-0.00046903 -0.0167483 0.0318411
0.0275508 -0.000510068 0.000299506
0.000856242 -0.221348 0.109184
-0.0244272 0.0330835 -0.1038
-0.228642 0.189341 0.117061
-0.0118689 0.121884 -0.0714467
0.0102 -0.286725 0.0142043
0.0234967 0.041305 0.178787
0.170874 -0.0568213 -0.0595158
0.358488 0.127295 -0.216098
0 0 0
0.196483 -0.417141 0.170941
-0.0349215 0.0179242 -0.00125261
-0.139759 -0.516243 -0.0232296
-0.219937 0.175216 -0.0129124
-0.0916122 -0.255916 -0.393434
0 0 0
-0.0102367 0.160573 0.0214166
0.0018256 -0.000930022 0.151068
0.0269977 0.150455 -0.344434
-0.000921784 -0.135754 0.00451772
-0.0053814 -0.0536109 0.137973
0 0 0
0 0 0
0.0856092 -0.275411 0.167525
0.000877994 0.0453943 0.0553567
-0.33453 -0.120648 0.244469
-0.076764 -0.0229021 0.0241955
-0.212742 -0.163539 -0.139725
-0.260228 0.0242532 0.147247
0.000473942 0.0456054 -0.052651
0.142306 0.0443459 -0.00113277
-0.119574 -0.00975048 0.151958
0 0 0
0.0198805 0.00264118 -0.00567178
0.151072 -0.1422 0.00433896
-0.293712 0.455908 -0.0269104
-0.140148 -0.0367094 0.184879
0 0 0
0 0 0
-0.0799081 0.0680389 -0.260283
0 0 0
-0.0073594 0.0477703 -0.356574
-0.00147501 -0.0497221 -0.0886985
0.0366052 -0.0673086 -0.317356
-0.00525994 -0.135982 -0.128541
0 0 0
-0.0497295 -0.0316933 -0.0964048
-0.0968465 0.11273 0.00684976
-0.0317207 0.0211555 -0.00692616
0 0 0
0.134875 0.331453 -0.0587548
0 0 0
0.0628973 0.0142934 -0.202592
0.279431 0.0199889 -0.104846
0.000374831 0.12874 -0.219753
-0.207639 -0.0356111 -0.00349093
-0.00649382 0.000454737 0.0202249
-0.0568141 -0.119877 0.496244
-0.000514299 0.152201 -0.104001
-0.00789058 -0.0415824 -0.161734
-0.0478456 -0.0068037 -0.0763703
0.248263 -0.384823 -0.475222
0.0739785 -0.00801248 0.0226943
0.109073 0.0040975 -0.0289191
0 0 0
-0.0365533 -0.013714 0.000502447
0.0214604 0.0965058 0.437616
-0.211168 -0.149548 0.0640868
-0.0196153 0.0553686 0.388891
0 0 0
-0.0930886 -0.0242962 0.0261027
0.245448 -0.0387874 0.063232
-0.054633 -0.278759 -0.17229
0.0135438 -0.258905 -0.0174076
0 0 0
0.0681292 0.029932 0.0394814
0.0730541 -0.0259017 0.0166954
0.0874333 0.0734007 0.0618128
-0.0199133 0.227951 0.0573903
0.0083137 -0.0675389 0.0821763
0.0483487 -0.0858917 0.20868
0.00128126 -0.0759652 0.105415
-0.0376349 0.0751397 -0.236834
0 0 0
-0.12854 0.606428 -0.0895273
-0.00170174 0.00495754 0.0111784
-0.262713 0.108939 0.343086
-0.0236126 0.0490665 0.038177
0.0197727 -0.0588388 0.14155
-0.087061 -0.00280051 0.0712004
0 0 0
-0.0623172 -0.0327799 0.0381881
-0.169118 0.11339 -0.289591
-0.179062 -0.202918 -0.000262003
-0.244314 -0.201749 0.0236752
0 0 0
-0.0106598 0.0549495 0.259891
-0.315863 -0.146497 -0.285637
-0.131483 0.0921934 -0.114743
0 0 0
0 0 0
-0.0555501 0.0409553 -0.00352714
0 0 0
-0.0776906 -0.0527564 0.0201999
0.0367088 0.0125079 -0.00305642
0.0722819 0.108551 -0.195404
0 0 0
-0.170531 -0.349085 -0.103314
0.0708197 -0.0495738 0.140144
0.0220568 0.0262054 0.0659036
0 0 0
-0.196755 -0.020843 0.0933402
-0.165906 0.124749 -0.0518431
-0.155873 0.0167965 -0.296209
-0.273372 -0.157535 0.421565
0.0496614 -0.00670977 0.00334396
0.13796 0.0333919 0.00700898
-0.100408 0.294741 -0.00163716
0.412459 0.246324 0.15673
0.038579 0.163117 0.00306265
-0.0624672 -0.179775 0.0520621
-0.0484391 0.0737596 0.0283485
0 0 0
0.105925 0.167423 -0.193952
0 0 0
0 0 0
-0.277592 0.0158388 -0.247102
-0.00123309 0.0223809 -0.0016092
-0.1728 -0.195032 -0.0932937
0.148985 -0.00374 0.0691671
0.109217 -0.176953 -0.0525169
0.295404 0.0651832 0.212443
-0.0718977 0.174191 0.313883
-0.130605 -0.234952 0.326466
0 0 0
0.0644342 -0.280516 0.160277
-0.0118971 -0.0301204 -0.0138935
0.0600329 0.221406 -0.0863692
-0.030793 0.00332433 0.0304825
-0.0742388 0.185385 0.487007
0.0254299 -0.115846 0.410924
0 0 0
-0.0542395 0.0801241 -0.160064
-0.0234098 -0.146624 0.230664
0.0907662 0.194654 -0.208765
0.164995 0.0924606 0.195247
0 0 0
0.00831789 0.302395 0.10735
0 0 0
-0.00635336 0.00753105 -0.00620872
0 0 0
-0.0442986 -0.0454705 -0.150419
0 0 0
-0.00545776 0.00753445 0.119692
7.2799e-05 0.0581295 0.236625
0.0617715 0.0943214 -0.26809
-0.0495494 0.0939557 -0.172713
0 0 0
0.0149348 0.23685 0.0515802
0.0665711 -0.0799871 0.0283051
0.236826 -0.354075 0.110633
0 0 0
-0.0709715 0.00653872 0.222241
-0.0996503 0.0848804 0.154448
-0.28067 0.308205 -0.23453
0 0 0
0 0 0
-0.0334614 0.0784432 0.0203822
-0.00190253 0.166315 -0.0333531
0.303821 0.188032 0.435054
0.357908 0.266682 -0.0354436
0.253045 0.0987526 0.114832
0.0376871 -0.0049055 0.0319282
0 0 0
0 0 0
0.00671917 -0.00407226 -0.0094093
-0.293897 -0.227582 0.00347104
-0.12689 -0.039991 -0.00995251
-0.082054 -0.121325 -0.00423642
0 0 0
0.0300683 -0.0416672 0.357781
-0.139656 0.0514596 -0.211639
0.0820321 -0.0153394 8.14405e-05
0.0277294 0.00227825 -0.00276162
0.368135 0.0672342 -0.15197
0 0 0
-0.275389 0.365816 -0.027317
-0.1569 0.102055 -0.250841
0.00494163 0.0463353 -0.2378
-0.113607 0.343039 0.08659
0 0 0
0 0 0
0.283551 0.250775 -0.12981
0.120663 -0.00671887 0.161699
-0.213732 -0.206492 -0.244099
0 0 0
-0.22155 0.284355 0.279415
0.0170806 0.485369 0.230115
-0.0399155 0.0310955 -0.0215573
0 0 0
-0.118073 0.291612 0.00494576
0 0 0
0.00318555 0.0150693 -0.00871053
0 0 0
-0.000291728 -0.106327 -0.398321
0.0259162 -0.00194038 -0.00464774
0.269273 -0.306836 -0.0965666
0 0 0
-0.0930924 -0.160674 0.37327
-0.246645 -0.0916461 -0.102709
0 0 0
0 0 0
0.310862 0.0769575 0.193446
0.0538832 -0.0623 -0.0163145
0.159904 -0.144667 0.0935019
0 0 0
0 0 0
-0.00259615 0.0902988 -0.141766
0.00458782 0.255384 -0.1653
0 0 0
0.0756641 0.362433 0.11624
0 0 0
0 0 0
-0.235394 -0.0485459 0.13808
-0.002278 0.166116 0.241498
0 0 0
0.113703 0.230801 -0.132457
0.0702867 -0.0346878 0.344316
0.170338 -0.0808285 0.0679279
0.100133 -0.0517269 -0.0689292
-0.0125656 -0.00515838 0.01307
0 0 0
-0.142994 0.141545 -0.0102051
-0.12562 -0.0960842 0.267897
0.0623346 -0.00386601 -0.0484725
-0.360508 -0.187823 0.0822936
0 0 0
-0.155212 -0.185169 -0.330649
-0.0421109 0.0100426 -0.0790028
0 0 0
0 0 0
0.0293052 -0.0219391 -0.0437126
-0.0873276 -0.00880065 -0.00660292
0.0748145 0.272743 0.00388325
0.0473886 -0.0131853 0.0160062
0.0145627 -0.0106166 0.00856756
-0.0254225 -0.197374 0.0819624
0 0 0
0.0223119 0.0444612 -0.116176
-0.188116 0.0246568 0.117521
0.104963 0.211151 0.00960192
0 0 0
0 0 0
-0.308525 0.118534 -0.256726
-0.202952 0.10903 -0.0665886
0.0164214 0.0412948 0.215585
0.000156963 -0.000472845 -0.0430882
0.203986 -0.0439319 0.403675
0 0 0
0 0 0
0.0356539 -0.102475 -0.00509882
-0.00197893 0.138981 0.0252455
-0.210186 -0.0224506 -0.28712
0 0 0
0.00179319 0.0268966 -0.034914
-0.0798852 -0.0401792 0.0408967
0.149201 0.0427039 0.276179
0 0 0
0.232468 -0.0145173 0.111465
0.118753 -0.0221166 -0.0758066
0 0 0
-0.0597177 -0.286323 0.0955902
0 0 0
-0.0465876 0.131342 0.00147159
0.00898119 0.0189301 0.000291096
-0.0992145 -0.100276 -0.153724
-0.000176916 0.0265569 0.0801691
-0.199817 -0.0566317 0.249057
-0.109739 -0.130157 -0.125044
0.0750686 -0.0115155 0.0651886
-0.0776475 -0.0544409 0.0578329
-0.070269 -0.16709 -0.0136692
-0.125885 0.069148 0.20558
0.145881 -0.189916 -0.143159
0.0894342 0.0450113 0.118332
0.186588 0.0734147 0.00144488
0.0656033 0.29677 -0.128552
0.0502655 0.134599 0.156031
0.189935 -0.192351 0.132013
0 0 0
0.0799135 0.0400907 -0.00040464
-0.0473702 -0.00444516 0.000356984
0 0 0
0 0 0
0 0 0
0 0 0
0 0 0
0 0 0
0 0 0
0 0 0
0 0 0
0 0 0
0 0 0
0 0 0
0 0 0
0 0 0
0 0 0
0 0 0
0 0 0
0 0 0
0 0 0
0 0 0
0 0 0
0 0 0
0 0 0
0 0 0
0 0 0
0 0 0
0 0 0
0 0 0
0 0 0
0 0 0
0 0 0
0 0 0
0 0 0
0 0 0
0 0 0
0 0 0
0 0 0
0 0 0
0 0 0
0 0 0
0 0 0
0 0 0
0 0 0
0 0 0
0 0 0
0 0 0
0 0 0
0 0 0
0 0 0
0 0 0
0 0 0
0 0 0
0 0 0
0 0 0
0 0 0
0 0 0
0 0 0
0 0 0
0 0 0
0 0 0
0 0 0
0 0 0
0 0 0
0 0 0
0.0374204 0.00996441 0.0514665
-0.174772 -0.0730518 0.12307
0 0 0
-0.0423013 -0.123834 -0.107181
0.049257 -0.048572 0.104439
0 0 0
-0.0354986 0.00637043 -0.223788
0.00200579 -0.108213 0.0389021
0.000845622 0.065436 0.0716631
-0.137971 -0.0544355 -0.154172
-2.84483e-06 0.0110686 0.0474023
-0.0168054 0.0611061 -0.138575
0.116073 0.0327821 -0.0166962
0 0 0
0.118139 -0.0508314 -0.0618664
0.00243213 -0.0603955 0.228283
0.00691429 0.0569911 -0.0990831
-0.0272744 -0.0829571 0.00480746
0 0 0
-0.103233 -0.0957387 -0.0832582
0.126701 0.101159 -0.0236028
0 0 0
-0.0634603 0.0590566 -0.195354
0.0121517 -0.0930247 0.162279
-0.00450012 0.0813294 -0.126996
0.372242 -0.0134411 -0.0360836
0.00496057 -0.164311 -0.254095
0.0377466 0.243656 0.272729
-0.119931 0.00734923 0.213719
0 0 0
0.13446 0.0944257 0.108869
-0.0290426 -0.000593819 -0.0811908
-0.0344288 -0.00320915 0.017978
0.00118683 0.114967 -0.0106088
0 0 0
-0.0500355 -0.0289333 0.0666505
-0.0559263 -0.0132939 0.0407106
0 0 0
0.031417 0.00717469 0.234152
-0.029888 -0.0774859 0.100537
0.00484767 0.131075 -0.179396
-0.0582407 -0.0847763 0.143182
0 0 0
0.0493807 -0.0459319 0.0401655
-0.0581192 0.0241166 0.0363296
0 0 0
-0.036452 -0.0303013 0.113841
0.064636 0.0564965 -0.0504463
-0.010037 0.00132553 0.0188264
0.00306915 -0.0135115 0.030341
0 0 0
0.00306057 0.00223892 0.133908
-0.0353709 0.0210661 -0.00292765
0 0 0
0.0470784 -0.00307121 0.0694445
-0.086618 0.0110203 0.00435596
-0.026055 -0.0563944 -0.0383857
-0.254551 0.00510943 0.0542107
0 0 0
-0.012656 0.0154726 0.0100651
0.0100326 0.000314921 -0.0822
0 0 0
0.0399294 -0.0214535 0.0262829
0.0493487 0.00035073 -0.0127308
0.338317 0.322478 -0.323357
0.156591 0.0889547 -0.121162
0.227166 -0.0425778 -0.106799
-0.0130079 0.121652 0.213809
0.17067 0.29266 -0.00255323
5.75896e-06 -0.00445406 -0.00379388
0.0983895 -0.126085 -0.32992
0.0117374 -0.0850722 0.0481151
0.264651 0.0114712 -0.0558639
0.155391 -0.0799017 0.157166
0 0 0
0.264743 -0.00163635 0.160078
0.115184 -0.0286153 0.0896218
0.171004 0.0845532 0.225562
0.163275 0.0118881 -0.137132
-0.0871611 0.158778 -0.237451
0.000148679 0.0141871 -0.151109
0.00160646 0.519097 0.00784964
-0.00247401 0.113769 0.11696
0.0732365 0.0520023 -0.377663
-0.117089 0.282662 0.179315
0.00122199 -0.213176 -0.0784236
0.00234595 0.248851 0.018678
0.175199 -0.294955 -0.0720108
0.108289 -0.21044 0.0423516
0.293596 0.117431 -0.265591
0.222336 0.198947 0.153301
-0.0895235 -0.365294 -0.0022346
-0.270306 0.0431073 -0.0629674
-0.304809 -0.126152 -0.416804
0.152176 -0.17247 -0.0425263
0.283841 0.0317703 0.38322
0 0 0
-0.0955004 -0.36322 0.0679588
0.0357068 0.100677 0.438862
0.345441 0.0791439 -0.416175
0 0 0
0 0 0
0 0 0
0 0 0
0 0 0
-0.0906426 0.0815497 -0.0279955
0.0213124 0.0230903 -0.112174
0 0 0
0.158389 0.054867 0.0306651
4.5817e-05 -0.0013038 -0.00469423
0 0 0
-0.016759 0.253188 0.143407
-0.000346533 0.0613393 0.251135
0.0633669 0.0795988 0.0104234
0.0396311 -0.00546769 0.00575873
0 0 0
0.254348 0.0452982 -0.114877
0.401345 0.404153 0.195265
0.23958 0.0614033 0.118408
0.11538 -0.204714 -0.0321451
0.0739456 -0.0593807 0.0421645
0.532521 -0.421503 0.175508
0.104198 -0.334499 -0.240614
0 0 0
-0.159161 0.276688 0.168776
-0.0941077 -0.0152339 0.0281532
0.0257053 -0.0546921 0.016113
-0.000841625 -0.275008 -0.011648
0.0995505 0.0532249 -0.0100493
0.00433608 0.019485 -0.000189966
-0.168731 -0.0240819 -0.0239433
-0.429983 -0.0688388 0.121352
-0.190737 0.319389 0.0162575
0 0 0
0 0 0
0.307965 0.142106 -0.0632876
0.112122 0.063729 -0.1582
0.22283 -0.0280307 -0.0963012
0.00471481 -0.0107336 0.112265
0.0574966 0.088294 0.0115059
0.109291 -0.0375278 0.0644622
-0.00849117 -0.0543407 -0.123943
-0.0117274 0.049742 -0.278476
-0.136536 0.0184694 0.158346
0.00898808 -0.00527288 0.00420481
0.195216 0.107585 0.0836924
0.375922 0.160018 0.242771
0.0322818 -0.141754 0.0601263
0 0 0
0.180359 0.005064 0.148275
0 0 0
0 0 0
0.551438 -0.359214 -0.0364568
0.367553 -0.0985299 -0.126975
0.352964 0.397346 0.228464
0.20192 0.204485 0.372738
0 0 0
0.051118 -0.104908 0.0180781
-0.124538 -0.606735 -0.191591
0.0726878 -0.375669 0.165756
-0.283142 0.140509 0.0364639
0 0 0
0 0 0
-0.168769 0.370443 -0.218653
-0.2361 -0.151114 0.0145248
-0.113261 -0.0346361 0.246903
0 0 0
-0.323778 -0.319815 0.0807114
0.165529 0.0774975 -0.190217
0.0925911 0.00709821 -0.131412
0 0 0
-0.048871 -0.198116 -0.0977396
-0.00705764 -0.0225153 0.115896
0 0 0
0.306189 -0.0312898 0.101267
0.0761708 0.158458 -0.00778457
0.325005 -0.0922119 0.0281377
0.0431296 0.0828053 0.127662