<?xml version="1.0"?>
<VTKFile type="RectilinearGrid">
<RectilinearGrid WholeExtent="0 32 0 32 0 32" Origin="0 0 0" Spacing="1 1 1">
<Piece Extent="0 32 0 32 0 32">
<PointData>
</PointData>
<Coordinates>
<DataArray type="Float32" format="ascii">
0 0.524874 1.04975 1.57462 2.0995 2.62437 3.14924 3.67412 4.19899 4.72386 5.24874 5.77361 6.29849 6.82336 7.34823 7.87311 8.39798 8.92285 9.44773 9.9726 10.4975 11.0224 11.5472 12.0721 12.597 13.1218 13.6467 14.1716 14.6965 15.2213 15.7462 16.2711 16.796 
</DataArray>
<DataArray type="Float32" format="ascii">
-5.03879 -3.62163 -2.20447 -0.787311 0.629849 2.04701 3.46417 4.88133 6.29849 7.71565 9.1328 10.55 11.9671 13.3843 14.8014 16.2186 17.6358 19.0529 20.4701 21.8872 23.3044 24.7216 26.1387 27.5559 28.973 30.3902 31.8074 33.2245 34.6417 36.0588 37.476 38.8931 40.3103 
</DataArray>
<DataArray type="Float32" format="ascii">
0 0.524874 1.04975 1.57462 2.0995 2.62437 3.14924 3.67412 4.19899 4.72386 5.24874 5.77361 6.29849 6.82336 7.34823 7.87311 8.39798 8.92285 9.44773 9.9726 10.4975 11.0224 11.5472 12.0721 12.597 13.1218 13.6467 14.1716 14.6965 15.2213 15.7462 16.2711 16.796 
</DataArray>
</Coordinates>
<CellData>
<DataArray type="Float32" Name="Vector" NumberOfComponents="3" format="ascii">
0 0 0
0 0 0
0 0 0
0 0 0
0 0 0
0 0 0
0 0 0
0 0 0
0 0 0
0 0 0
0 0 0
0 0 0
0 0 0
0 0 0
0 0 0
0 0 0
0 0 0
0 0 0
0 0 0
0 0 0
0 0 0
0 0 0
0 0 0
0 0 0
0 0 0
0 0 0
0 0 0
0 0 0
0 0 0
0 0 0
0 0 0
0 0 0
0 0 0
0 0 0
0 0 0
0 0 0
0 0 0
0 0 0
0 0 0
0 0 0
0 0 0
0 0 0
0 0 0
0 0 0
0 0 0
0 0 0
0 0 0
0 0 0
0 0 0
0 0 0
0 0 0
0 0 0
0 0 0
0 0 0
0 0 0
0 0 0
0 0 0
0 0 0
0 0 0
0 0 0
0 0 0
0 0 0
0 0 0
0 0 0
0.000244938 -0.00668795 0.0302626
0.000428021 0.0699433 0.0135178
0 0 0
0.257252 0.0133744 -0.00826449
-0.103057 -0.108724 -0.0115312
0 0 0
0.0309516 0.17971 -0.0201436
-0.0593255 -0.104 -0.165011
-0.0220018 -0.0871873 0.100307
-0.0180202 0.273041 -0.00552706
0 0 0
-0.0504766 -0.208804 -0.100991
0.316243 -0.0762682 0.0757076
0.00545852 0.0177546 -0.0619622
0.111082 -0.121842 -0.0353552
-0.0623626 -0.011529 -0.0464222
-0.0725539 0.226092 0.0493939
0.0568071 0.0356892 -0.0455475
0 0 0
0.0325331 0.0678261 0.0289472
-0.0104146 -0.177558 -0.00116612
0.00945933 0.0148807 -0.014951
0.291273 0.0934315 0.0367924
-0.0569106 -0.040933 -0.128868
-0.00770934 -0.0769677 0.0723238
0.0124533 -0.0263001 0.104417
0 0 0
-0.141969 0.0340135 0.000622295
-0.12383 -0.127993 -0.00253053
0 0 0
-0.140462 0.0294258 0.0636593
-0.000703907 -0.126595 -0.00872918
0.0218007 0.00851884 -0.114285
-0.158454 -0.000888209 0.0259173
-0.00793797 -0.0202194 -0.116661
-0.313487 0.0466765 0.160615
0.0270585 -0.014818 0.00332039
0 0 0
-0.169375 -0.0995217 0.0753216
-0.027632 -0.0198336 -0.000373598
-0.0198873 0.0194005 0.0653994
0.0637408 0.0618105 0.0161292
0 0 0
-0.00879273 0.0529434 0.0768245
-0.0321818 -0.0121108 -0.00718847
0 0 0
-0.00681728 -0.0241642 0.0293445
-0.0453454 -0.281268 0.0958794
0.0505804 0.206487 -0.0573845
-0.204147 0.0137482 0.0506094
0 0 0
0.212494 0.208389 -0.0348634
0 0 0
0 0 0
0.117027 0.0492036 0.00473886
0.0257569 -0.0416922 0.0477707
0.00380866 -0.013455 0.0110572
-0.0907366 -0.027914 -0.000227615
0 0 0
-0.0149795 0.00615173 -0.0320956
0.0986686 -0.0288867 0.016257
0.00161209 -0.0169055 -0.0209182
-0.0819355 0.090351 0.0106065
0.0468331 0.0527812 0.107296
0.312195 0.111527 -0.289351
0.414251 -0.0432717 0.00554416
0.604812 0.427811 -0.0906696
0.065491 0.0650164 -0.0670041
-0.0104987 0.0132031 0.09501
0.00223622 -0.276576 -0.0468818
-0.246295 0.304378 0.0381528
0.0268926 0.123558 0.155037
0.283654 0.00152895 0.0145529
-0.165972 0.385206 -0.0607699
0.0081886 0.00233036 -0.000828109
-0.038082 0.0921879 0.00418668
0.122657 -0.529184 -0.0681226
0 0 0
-0.0802105 -0.167117 4.31328e-05
0.0290805 0.0541007 -0.0131083
0.0665709 0.0556596 -0.0862726
0.19956 -0.135485 0.231087
0.231094 -0.229318 -0.0834072
0 0 0
0.316147 -0.0642935 -0.185278
0 0 0
0.00509097 0.00489343 -0.0112372
0.165014 0.0755923 -0.101645
0.326476 0.297961 0.0611736
0.0835004 -0.431008 -0.14327
0 0 0
-0.126973 -0.0938246 0.0139252
0 0 0
-0.0375116 -0.0192272 0.0440028
-0.265824 0.307797 -0.0548217
-0.250779 0.263638 0.470581
0 0 0
-0.283337 0.398295 -0.105306
-0.194055 0.193417 -0.146807
-0.091248 0.140887 -0.141634
0.00254042 0.0946846 -0.228828
0.0480285 0.00344647 0.0946157
0.0305852 -0.430545 0.197011
0.0612775 0.00761632 0.0451671
-0.00274534 0.355508 -0.0404238
0.150772 0.0603985 -0.0115903
-0.0701507 0.443289 -0.162745
0.00756581 0.000998405 -0.180472
-0.124383 -0.0854706 0.153325
-0.142549 0.30039 -0.282804
0.0257573 -0.13246 0.010014
0 0 0
-0.0154998 -0.0482523 -0.0084088
-0.166078 0.043518 0.127449
0.277918 0.00388723 0.210485
-0.0845886 0.0620171 -0.126021
0.240795 0.0498929 -0.234817
-0.303566 -0.184715 -0.0456741
-0.144582 -0.157842 -0.135519
-0.257552 0.117801 0.0121919
-0.366052 -0.112621 0.202337
-0.00875452 -0.192059 -0.0673452
-0.522292 -0.111025 0.13077
-0.210287 0.32602 -0.22146
-0.111463 -0.00552802 0.069015
0 0 0
0 0 0
-0.0334913 0.229812 0.0582346
-0.11668 0.686097 -0.255603
0.0987742 -0.222257 0.116777
-0.144819 -0.139898 -0.0657104
0 0 0
-0.0767792 -0.07708 -0.0904291
0 0 0
0 0 0
-0.352588 0.279721 0.413354
-0.212747 -0.0824339 -0.390651
-0.240666 0.488668 -0.111675
0 0 0
-0.267759 0.147177 -0.0721264
0.269605 -0.0962076 -0.00371987
0.220062 -0.0111083 -0.000381823
0.0220328 -0.0377018 -0.00977977
0.412201 -0.228556 -0.0338505
-0.00158921 -0.0323971 0.00376293
0.0927135 0.0884953 0.0973213
0.0884947 -0.0549741 -0.00602235
0 0 0
0.134648 0.0992026 0.0983415
0 0 0
0 0 0
-0.28732 -0.552212 0.142592
0 0 0
-0.148605 -0.304145 -0.286272
-0.206195 0.0421511 0.075674
-0.379832 -0.208247 -0.0178131
-0.358409 0.253951 -0.242657
-0.217427 -0.05293 0.368104
-0.0849441 0.28216 -0.00607377
0 0 0
-0.0364301 0.0356894 -0.221955
0 0 0
0.00940451 0.098471 -0.0903207
-0.4412 -0.378407 -0.101589
-0.175033 -0.279604 -0.335841
-0.0155693 -0.038951 0.386851
0.0470626 -0.106912 -0.0695543
0.0950305 -0.0381981 0.300492
0 0 0
-0.283942 0.0648639 -0.0564747
-0.501362 -0.111354 -0.0762247
-0.033208 0.0543122 -0.0592825
-0.129238 -0.271322 -0.0748493
0.00172661 -0.145552 -0.107357
-0.214086 -0.364705 -0.14302
0 0 0
0.083678 -0.00340886 0.228454
0.0633282 0.0156821 -0.0689751
0.0915611 0.0101681 -0.00661044
0.312053 -0.274361 0.341465
-0.0286004 0.205635 0.0344625
-0.0447618 0.0368802 -0.0369787
0 0 0
0.0536048 -0.070759 -0.118355
0.000351732 -0.0353574 -0.0501124
0.240024 0.257011 -0.0849396
-0.116282 0.127339 0.00669348
0.202179 -0.20227 0.0946934
0.0350502 0.0109023 0.0487676
-0.00614886 -0.0701023 -0.0467083
-0.000207373 0.0358622 -0.0316368
-0.317774 0.342033 -0.424935
0.22556 0.283095 0.270327
0 0 0
0.466771 0.0157022 0.425436
0.100666 0.190499 -0.110397
0.112815 0.0913501 0.0465052
0.0907002 -0.0945045 -0.118078
-0.0974134 -0.00509243 -0.200208
-0.148434 0.0609446 -0.0567852
0.20638 -0.0342566 -0.138041
-0.00934162 0.188108 -0.261888
-0.201653 0.0509294 -0.47874
-0.00605373 -0.115936 0.00561653
0 0 0
0.0232767 -0.198276 -0.00624598
-0.00499585 0.0809502 0.00304452
0 0 0
-0.311233 0.0186987 -0.226546
-0.227251 0.047698 0.0111995
-0.514012 0.0989553 -0.278587
-0.199368 -0.00438049 -0.0345533
0 0 0
-0.0147971 -0.0131333 -0.00252998
0.0161391 0.0607425 0.0282085
0.526209 0.160273 -0.0440606
0.483596 0.109466 -0.0859016
0.283013 -0.250023 0.147549
0.148464 -0.104446 -0.248656
0.434604 0.0295739 -0.261063
0.378526 0.355922 -0.496697
0.120983 -0.204834 0.0765649
-0.037206 0.283961 0.155876
0 0 0
0 0 0
0.0361115 0.193988 0.00216618
0.0281221 0.0310363 -0.0777703
0.203615 0.307586 -0.288683
0.0175606 0.059271 -0.0205041
0 0 0
0.0795229 0.00342101 -0.0617242
-0.0539007 0.0560502 0.106104
-0.334073 -0.03892 -0.277498
0 0 0
0 0 0
0.0169747 0.085805 -0.00113098
0.116171 -0.188613 -0.0737356
0.0487865 -0.0159277 0.0682877
0 0 0
0.0435213 0.0557022 -0.0365714
0.114463 -0.850071 -0.367517
0.0922206 0.0679939 0.0547023
0 0 0
0.0160456 0.0947325 -0.155567
0.0860357 0.0879375 -0.0814474
0.00638478 -0.00100033 0.00160994
0 0 0
0 0 0
0.294029 0.114439 -0.27838
0 0 0
-0.02282 -0.258535 -0.293817
-0.00219129 -0.00920245 0.0663558
-0.569078 -0.0603896 -0.164317
-0.298246 0.267496 -0.120546
0.022342 0.143712 -0.0739122
0.202617 -0.00153961 0.449947
0.23952 -0.34217 -0.204216
0 0 0
0.00969899 0.476923 0.0790305
0 0 0
0.2503 -0.294759 0.521901
0 0 0
0.248389 0.160128 0.161788
-0.000529832 0.180208 -0.0790815
0.302093 -0.0244185 0.00638019
-0.00250765 0.00757312 -8.61624e-05
0.503239 0.238712 -0.219463
0.506181 -0.106045 -0.190148
0.0979625 -0.116896 -0.0681166
0.325038 0.184714 0.136934
0 0 0
0.330993 -0.471422 0.18691
0.125969 0.0374328 0.175967
0 0 0
0 0 0
0.325201 -0.256177 -0.0533333
0.0514474 -0.0149196 0.0695229
0 0 0
0.307421 0.000105734 -0.122378
0.105807 0.0826844 -0.0315653
0.0363262 -0.016062 0.0142877
0.127751 0.157854 0.217386
-0.134683 0.269697 -0.259458
-0.281681 -0.330204 -0.0958158
-0.00701758 0.00150701 0.00612963
0 0 0
0.0512504 -0.25135 0.000398537
-0.0241472 -0.028266 -0.0137081
0.244871 0.127042 -0.164664
0 0 0
0.240292 -0.257121 0.0318416
0.0439235 0.159503 -0.176021
-0.13537 0.0295165 0.191764
-0.120765 -0.31078 -0.182718
-0.134843 0.125539 0.0117729
-0.0368159 -0.22114 -0.0406176
0 0 0
0.266008 -0.361249 -0.102313
0 0 0
0.666834 0.214662 -0.297738
0.186303 -0.151608 -0.0199218
0.0607481 0.0442952 -0.075595
0.0916441 -0.332814 0.074434
0.0276402 -0.203201 0.171132
-0.0149893 -0.0360021 -0.0343436
0.278801 -0.216522 0.120991
0.274504 0.210319 -0.123057
0.00683641 -0.0276273 -0.0697632
0.165946 -0.104578 0.0813766
0.240198 0.248578 -0.0371992
0 0 0
-0.175383 -0.387337 0.260797
-0.0282498 -0.0962198 0.114273
-0.0945143 -0.103655 0.19071
0.203466 -0.161411 0.148416
0 0 0
0.00856897 0.0384233 -0.00124617
0.134135 0.246167 -0.400197
0.0378061 -0.00493727 0.0161215
0.0952886 -0.00230962 -0.103639
0.197173 -0.189483 -0.163485
0.155191 0.259448 -0.377306
0 0 0
-0.0690684 0.43055 0.147351
0 0 0
0.248604 -0.185374 0.00620609
0 0 0
0.0905213 -0.202572 -0.145516
0 0 0
-0.255506 -0.283774 0.250135
0.021192 -0.0638334 0.0106467
0.0455545 -0.0395314 -0.0605313
0.155008 -0.051346 -0.125373
0 0 0
-0.00205668 0.0600895 0.055453
0.0332723 0.00148048 0.0195161
0.0146777 -0.0850532 0.237612
0 0 0
-0.131619 0.161297 0.133737
0 0 0
0 0 0
0 0 0
0 0 0
-0.301876 0.0731732 -0.120482
0 0 0
-0.342229 -0.214967 0.351517
0 0 0
-0.0276341 -0.567295 -0.0654461
0.190222 -0.216553 0.0243915
-0.209833 -0.0136342 0.0555167
-0.0587615 0.0100075 -0.0275204
0.116325 0.479515 0.0201347
0.000611283 -0.00293224 -0.0440427
0 0 0
0.142328 -0.0446896 -0.191192
0.248335 -0.115417 0.187922
0.209198 0.0825348 0.0152661
0.168206 0.190201 -0.124335
0.234902 0.0589461 -0.236727
0.0516543 -0.0740162 -0.066366
-0.0293707 -0.0206378 0.0172896
0 0 0
0.0662776 0.0297052 -0.0579369
0 0 0
-0.19103 -0.0147315 0.0248803
0 0 0
0.0530549 0.0795021 0.150378
0.0397694 0.0922951 -0.347606
0.0272228 0.0393052 -0.11235
0 0 0
0 0 0
-0.190472 0.0853074 -0.119202
0.0817926 -0.102103 0.0998806
-0.413531 0.0781741 0.189869
-0.0841519 0.0634192 -0.0758665
0.185994 0.175962 0.325301
0.10421 0.29658 0.157253
-0.172035 -0.243557 -0.000199184
0 0 0
0.197674 -0.0747362 0.0920548
-0.0120531 -0.000270893 -0.0266672
0.143361 -0.01998 -0.717034
0.00852204 -0.077021 -0.0237252
0.0469938 -0.0894577 -0.0967671
0 0 0
-0.126859 0.128637 -0.0151664
0.0403575 -0.199378 0.101807
0.0472815 0.363078 0.000499193
-0.331577 0.279202 -0.333995
0.0618075 -0.00197874 -0.0428533
0 0 0
-0.109494 -0.0423946 -0.176512
-0.189735 -0.0597433 0.0666698
-0.0266658 0.00159974 -0.0785669
-0.111681 0.221681 -0.0393141
0 0 0
0.0779967 -0.19642 -0.345135
0.0166839 -0.249451 -0.0171691
-0.173177 0.08843 0.0335452
-0.271333 0.146618 0.0615003
-0.105599 0.207838 -0.047628
-0.0144833 0.213874 -0.299101
0 0 0
-0.267729 0.0709019 -0.0657282
0 0 0
-0.103004 -0.0927514 -0.235631
0 0 0
-0.0814706 0.180308 -0.34707
-0.261683 0.292641 0.0485728
-0.115233 -0.0207698 0.111774
-0.175728 -0.368513 0.0471449
-0.0768005 0.120271 0.274953
-0.000839152 -0.137752 -0.168224
-0.426672 -0.12793 0.068726
-0.0179848 0.021713 -0.0446649
0.0173438 0.0996839 -0.274819
-0.0244416 0.0389711 0.156297
-0.0014541 -0.0233131 0.00311277
0 0 0
0.0691195 0.0426754 0.00569055
0 0 0
0.142945 -0.195305 0.194487
0 0 0
0 0 0
-0.0685873 0.00219804 -0.306951
-0.314235 0.25862 -0.36672
0.036822 -0.08874 -0.165094
-0.020378 -0.030609 -0.000482466
-0.0870158 -0.136659 -0.0714207
-0.0139291 -0.258676 -0.143005
-0.0392568 0.0668736 -0.128401
0.271818 -0.0578437 -0.232757
0.0858964 0.199789 0.0887289
0 0 0
0.00285152 0.00687779 0.00482929
0.0980462 0.00896299 0.0520337
0.032702 0.0616202 0.0679181
0 0 0
-0.105278 0.0153976 0.128212
-0.00777784 0.193503 -0.181022
-0.189489 0.389717 0.00424816
0 0 0
-0.14203 -0.00724698 -0.0301411
0 0 0
0.0332953 -0.119129 0.0680526
0 0 0
-0.0377367 0.0166877 0.000507959
-0.0824377 0.1725 0.228975
0 0 0
0.0144533 0.110322 0.179916
0 0 0
0.0819639 -0.188524 0.138776
-0.000578367 0.157015 0.0465105
0.0288323 0.105512 0.023473
-0.0887149 0.304652 0.155621
-0.134191 0.196485 0.0652707
-0.154863 0.388195 -0.522848
-0.0177525 0.0261179 -0.0477427
-0.0277596 0.323758 -0.184094
-0.0247366 -0.200442 0.313214
0.0703338 -0.283643 -0.272325
0 0 0
-0.111384 0.38853 -0.525274
0.240237 -0.0369826 0.329227
0.0470297 0.198471 0.00896095
0.0909636 -0.0649314 0.365081
-0.278191 0.210839 0.0868597
0.00463841 0.0996756 -0.0650251
-0.110523 0.00838002 0.070843
-0.0127002 0.0211072 0.00457844
-0.0238084 0.0191035 -0.0491503
0.13808 0.199541 -0.126027
0.245289 0.109316 0.0282793
0 0 0
0.0111831 0.0695252 -0.000660364
-0.0988033 -0.32898 0.155858
0 0 0
-0.0967854 -0.1442 -0.137529
0 0 0
-0.120935 -0.0184396 0.102722
-0.1247 0.0564813 -0.170504
0.0597125 -0.070819 -0.112122
0.00419771 -0.0383677 -0.208979
0.0716341 0.0355126 0.140067
0.137602 0.019745 0.36966
0.00202112 -0.00228769 0.0280005
0.128018 0.297244 0.29819
0.092488 0.110982 -0.0135501
0.0358071 0.080032 0.00620378
0.0237898 0.225233 -0.000675432
-0.149923 0.550674 -0.284138
0 0 0
0 0 0
0 0 0
0.0029199 0.00149495 -0.0449625
0 0 0
0.097902 0.220317 0.294199
0.0676494 0.146233 0.0755085
-0.0236208 -0.0893763 -0.0360874
-0.308335 -0.0464053 -0.18451
0 0 0
-0.433423 -0.337075 -0.0800479
-0.0148712 -0.130938 -0.19988
-0.0711843 -0.294475 -0.0380871
0.336425 0.116944 -0.317923
-0.105647 0.260966 0.0310118
0 0 0
-0.0527115 -0.0576133 0.0661853
0.00128734 -0.495612 0.0737144
-0.250818 0.0907148 -0.0948302
0 0 0
0 0 0
0 0 0
0 0 0
-0.0437928 0.367054 -0.158973
-0.0631378 -0.143854 -0.0403246
0 0 0
0 0 0
0.23688 0.220685 -0.000351032
0 0 0
-0.0303076 0.0405762 -0.150223
-0.15234 0.0582386 -0.290033
0 0 0
0 0 0
-0.156565 0.0255064 0.417662
-0.154323 0.100496 -0.180129
-0.0209339 -0.00890711 0.328527
-0.194134 0.282446 -0.0459327
-0.00929113 0.138625 0.213088
0 0 0
0.277384 0.00915305 -0.164693
0.27161 -0.0219154 -0.116011
0 0 0
0 0 0
0 0 0
-0.128849 -0.107738 0.115091
0 0 0
-0.0267066 0.00561543 0.0697146
-0.00549979 0.0342573 0.00689998
-0.143993 0.208369 -0.00436043
-0.202591 0.039389 -0.0901385
0 0 0
-0.410821 -0.14166 -0.449302
-0.202154 -0.145465 -0.0075334
0.0036677 0.0174329 0.000753289
-0.365619 -0.172827 0.0542987
0.0114647 0.0185651 -0.0488753
-0.00934114 -0.00550857 0.0410976
0.0362806 -0.0855545 -0.0409743
0.145785 0.106949 0.10776
0.440018 0.702651 0.310432
0 0 0
-0.234677 -0.40593 -0.147819
0 0 0
0 0 0
0 0 0
0 0 0
0 0 0
0 0 0
-0.227734 0.0403978 0.0580774
0 0 0
-0.00939365 -0.00735984 0.239047
0 0 0
0.0424615 -0.187207 0.0814593
0 0 0
0.109373 -0.0580217 0.47805
-0.01329 -0.000268817 -0.0305734
0 0 0
0 0 0
-0.0443289 0.0310863 -0.0989626
0 0 0
0.0268301 0.00174988 -0.114552
0.0157291 -0.11001 0.00111266
0 0 0
-0.0538169 0.222795 0.0300853
0 0 0
0.292694 0.0669127 -0.0239214
-0.0851664 0.140466 0.0562059
-0.136029 0.184884 0.27191
0.0317132 -0.00936655 0.0853156
0.210957 0.201894 0.0204828
0.134702 -0.040511 -0.0557667
0.00316643 0.000927904 0.0544462
0 0 0
0.00544639 -0.119731 -0.37908
-0.0591637 -0.199627 -0.0771201
-0.0492874 0.133558 -0.0115667
0 0 0
0.103807 -0.120375 0.00248907
-0.00270764 -0.0968984 0.040354
0.0289444 -0.127172 0.267634
-0.0136765 0.00261667 0.0101521
-0.0922165 0.0484714 0.0594103
-0.204473 -0.0355306 -0.0557661
-0.151211 0.176101 0.0273563
-0.510276 0.0631377 0.00256459
-0.00186093 -0.0353488 -0.0401276
0.0516809 -0.0393469 -0.0221987
0.0176326 -0.205874 0.167851
-0.0406167 0.123103 -0.0533302
0.447597 0.258436 0.0805005
0 0 0
0.0804285 -0.183577 -0.00727015
0 0 0
0.228659 0.346373 0.0406694
0.00454294 0.0451885 -0.104063
0 0 0
0.118134 -0.220368 -0.0492399
-0.0557986 -0.116185 -0.00348091
0.0190647 -0.161515 -0.312647
-0.0436299 0.0403015 -0.000827192
0.192724 0.112556 0.0360755
-0.119423 0.338783 -0.170176
-0.21082 -0.118948 0.162612
-0.283984 0.185668 -0.0262712
-0.0366636 -0.172328 -0.243876
0.244705 -0.0814784 -0.349665
-0.0844947 0.147188 -0.0628887
-0.249494 0.14279 -0.058613
0 0 0
0.233457 0.0869846 0.186535
0.274708 0.0614661 -0.2885
0 0 0
0 0 0
0.0206624 -0.012027 -0.0151686
0 0 0
-0.184496 -0.281013 -0.201953
0 0 0
-0.233733 -0.180762 -0.141063
-0.160547 -0.215984 0.0472575
-0.167512 0.0488862 -0.10521
-0.197282 0.0647507 -0.256745
-0.0841428 0.0927169 0.111357
0 0 0
0.0804162 0.0251115 0.114326
0.0469656 0.0542157 0.051636
-0.0542137 0.0147556 -0.0297565
0 0 0
0.217376 -0.193151 -0.232291
0.328679 -0.0972657 0.173444
0.0125375 -0.018877 0.059419
0.0686594 0.0611687 0.0729479
0.057268 -0.0631425 -0.000305815
0.105302 0.156933 0.0692483
0.10261 0.163301 0.0347632
0.210292 0.237105 0.118492
0.263581 0.0786401 0.0128057
0.0535482 0.00290531 -0.0200563
0.0208979 0.0199761 -0.0154259
0 0 0
0.0257269 0.208659 0.184769
0 0 0
-0.162457 0.0955315 -0.153811
-0.258005 0.12396 -0.0230839
-0.0176632 0.0148221 0.00840704
-0.00757266 -0.0337505 -0.0075421
0 0 0
0.0650923 0.0687462 0.0855912
0.455292 -0.156497 -0.0475883
0.0333783 0.0935529 0.0266649
-0.0397856 -0.108206 0.422897
0 0 0
-0.116898 -0.226244 -0.4099
0 0 0
-0.0461307 0.0524981 -0.171701
0.11651 0.221331 -0.071228
0 0 0
0.00610773 0.0279835 -0.262531
0.00722495 -0.00733068 0.0020267
0.315556 -0.280147 0.116912
0 0 0
0 0 0
0.0892193 0.0599645 -0.0524383
-0.133638 0.301214 -0.434676
0 0 0
0 0 0
0 0 0
0.0789373 0.103224 -0.108927
0 0 0
-0.121581 -0.213847 0.0359476
-0.022347 -0.0544582 -0.0071713
0.00491303 0.0620396 -0.0283183
0.205174 0.109495 -0.332454
0.362686 0.222363 0.00633028
0 0 0
-0.0315623 -0.0421013 0.0483144
0.0270201 0.0813473 -0.179743
0 0 0
0.249526 0.183259 0.0516674
-0.00141399 0.0197774 -0.0214311
0.0430076 0.0680252 0.0137209
-0.134408 -0.025243 -0.015554
-0.0174948 0.096982 0.177532
-0.0487706 -0.0628281 -0.0636278
-0.200371 0.10802 0.0138285
-0.0523037 -0.0113144 -0.0787494
-0.089792 -0.00221093 -0.0716693
0.0974492 0.271789 0.495026
0 0 0
-0.000611984 0.22599 0.0106907
0 0 0
0.247836 -0.324822 -0.286435
0.138436 0.109465 0.0273466
0 0 0
0 0 0
0.0483892 -0.00016453 -0.0737607
0 0 0
0 0 0
0 0 0
-0.153067 0.0180759 -0.00193795
0 0 0
-0.0239094 -0.0546537 0.0971112
0 0 0
0.0730516 0.0185166 -0.000227629
0.000558705 0.0235588 0.00676222
0 0 0
-0.0147 0.234008 0.0116909
0 0 0
-0.0553189 -0.0253458 -0.00101722
-0.170634 0.000244681 -0.200932
-0.173637 -0.144798 -0.0110667
-0.0540558 -0.142718 -0.127049
-0.0447854 -0.0153723 -0.0574763
-0.0976395 -0.130447 0.071373
-0.160321 -0.0889716 0.0444743
0.0347158 0.039063 -0.0956439
0.206723 -0.106258 0.110701
-0.166263 -0.172356 0.279133
-0.121416 0.049456 0.168278
-0.0427079 -0.192614 -0.15815
0 0 0
-0.0471571 0.00115367 -0.230166
0 0 0
0 0 0
-0.00354599 0.147095 0.343337
0.218228 -0.074201 0.130227
-0.0618565 0.00152958 -0.00283133
-0.0925902 0.390827 0.337703
0 0 0
0 0 0
0 0 0
0.0456869 0.181807 0.0465811
0 0 0
0 0 0
0.0591997 -0.00544118 0.0449186
0.152422 -0.157913 -0.0627866
0.000978008 0.0825785 -0.0705133
0 0 0
0 0 0
0.178286 0.0158338 -0.11088
0 0 0
0.0854309 -0.15244 0.178685
-0.166751 0.0922299 0.0416626
-0.127264 -0.189373 0.00612217
-0.156204 -0.100188 0.00903181
0 0 0
-0.0722799 -0.198939 0.0662106
-0.00353171 -0.179016 -0.2147
0.116187 0.0338405 0.0102083
-0.154175 0.134664 0.0297904
-0.0761948 0.173064 0.106798
0 0 0
0 0 0
0.084783 -0.144741 0.0522122
0 0 0
-0.195257 0.0429193 -0.149502
-0.00331674 -0.119453 -0.0441141
0 0 0
-0.172155 0.248073 0.0711364
0.0937311 0.0598531 -0.0529718
0.0237602 0.186023 0.1813
0 0 0
0.128816 0.217252 -0.123155
-0.00205925 0.0421751 -0.036083
0.0654611 0.179966 -0.0266726
0 0 0
0.0226285 -0.0460515 0.193031
0 0 0
0 0 0
0 0 0
0 0 0
-0.193548 0.0324759 -0.108602
0.205696 -0.284134 -0.501598
0 0 0
-0.0761894 0.0815848 -0.245992
0.068148 -0.154898 0.0414605
0.000142926 -0.0166115 -0.00205705
0.00367886 -0.0376173 -0.311171
-0.347273 0.0413567 -0.251695
0 0 0
-0.227586 -0.405605 -0.196526
0.00237268 -0.0687171 0.0710436
0.039278 0.0805836 -0.00269159
0.0522416 0.278877 -0.105872
0 0 0
-0.0871805 0.161721 -0.193659
-0.218337 -0.00426553 0.0716301
-0.0783109 -0.0124733 -0.0388249
-0.0249131 -0.0305921 0.0379783
0 0 0
-0.0294295 0.0546797 0.0707193
-0.0715372 -0.116307 -0.461411
-0.191029 0.105343 0.00253902
0 0 0
-0.0744632 0.192717 -0.0303912
0 0 0
0 0 0
0.159849 0.0609229 0.192854
0 0 0
0.198719 0.103574 0.0904899
0.307431 -0.218105 -0.0834162
0 0 0
0.458096 0.282468 -0.0459846
0.173575 -0.0863066 -0.124832
0.0238937 0.0418866 0.00580684
0.024473 -0.0548399 -0.110855
0 0 0
-0.0327149 -0.0690691 0.0859237
-0.109645 -0.0873735 0.0471435
-0.187525 0.425539 -0.00911834
0 0 0
0.154448 0.00389619 0.00217336
0 0 0
-0.229445 -0.046268 0.00149593
0 0 0
-0.00335403 0.186425 -0.0675178
0.0994028 0.188101 -0.0579221
0.214859 0.231872 -0.0130778
0.0147321 -0.0537509 0.0714424
0.0965837 -0.0575519 -0.000664381
0 0 0
-0.0449668 0.0180299 -0.0666407
0.111769 -0.173339 -0.0881878
0.116702 0.0391082 0.21659
-0.102894 -0.220146 -0.217696
-0.0127802 -0.188753 -0.0152304
0.0081017 -0.129323 -0.0876532
-0.000778852 -0.00278428 0.0195339
0.249913 -0.0228693 -0.0602963
0.0587029 -1.92864e-05 -0.0353999
0 0 0
0 0 0
0 0 0
0.228539 -0.114736 0.0153317
0.0581789 0.0201466 -0.0168221
0.0376054 0.000771028 0.00569974
0.0689802 0.0864609 0.0591041
0 0 0
0.0629656 0.177461 0.0867509
0 0 0
0 0 0
0.0925594 0.0325687 0.098528
0 0 0
-0.237825 0.0473845 -0.437137
-0.122976 -0.00684317 -0.0247329
0 0 0
-0.111956 -0.239664 0.00362749
0 0 0
-0.22304 -0.0702131 0.16829
0 0 0
-0.00770697 -0.116813 0.0154328
-0.0515804 0.00268226 0.0102986
-0.00808881 0.145466 -0.0811432
0 0 0
-0.139593 -0.00312811 0.0298519
0 0 0
0.367555 -0.0687317 0.405909
0 0 0
0 0 0
0.165524 -0.253822 -0.259463
0 0 0
0.195989 0.0739944 -0.2392
0 0 0
-0.422061 0.248116 -0.0204842
-0.0481893 -0.509864 -0.0220562
-0.261648 -0.634796 0.126539
0.123746 -0.313308 0.0415392
-0.0339904 -0.133669 0.122188
-0.000497144 0.106872 0.0182275
0.0636513 -0.00429762 0.0820966
0.0649967 0.00340238 0.0396934
0.0771119 0.0618378 -0.141789
0 0 0
0.0643966 0.213517 -0.246627
0.164799 -0.0185294 -0.0646592
0.0546093 -0.11358 0.210785
0.281061 -0.202953 0.356555
-0.285525 -0.039332 -0.0187548
-0.000704286 -0.291959 -0.176079
-0.0157778 -0.399667 0.123681
0 0 0
-0.0614484 0.0548816 0.503621
0 0 0
0.0869574 -0.148131 -0.488294
-0.0323116 0.0574798 0.0299959
-0.253396 0.138868 -0.0302087
0.000293343 -0.00210486 0.00825188
0.148324 -0.13684 -0.31752
-0.0193925 0.0236717 0.0182433
-0.227022 -0.428137 -0.218228
0 0 0
0.0013624 -0.506624 0.0049538
0.155258 -0.613188 0.361514
-0.00254023 0.0225692 0.0625042
0.293107 0.0773697 0.14304
0.0472443 0.0265069 -0.0421715
0.191399 -0.331434 0.0800978
0 0 0
0 0 0
-0.220496 -0.171959 -0.0490812
-0.205536 -0.0485854 0.0783785
-0.142003 -0.0632464 0.348594
-0.144846 0.115585 0.0293404
0.0154957 0.0168298 0.0255932
0.000917538 0.01671 -0.0229987
-0.153 -0.198811 0.0375555
-0.000891054 -0.13605 0.099022
0 0 0
0 0 0
0.235213 -0.224147 -0.000118194
-0.000634408 -0.100479 -0.00143517
0.217979 -0.532011 0.131893
0.00510968 0.0688182 -0.0220241
0.215566 -0.00709658 -0.192294
0.00261239 0.000306167 -0.01364
0.0253007 0.0301146 9.02898e-05
0.011896 0.0164368 -0.0253687
0.489988 -0.00515376 -0.0814043
0.00231117 0.0305881 0.071202
-0.273326 -0.112626 0.447815
-0.314639 -0.0392171 -0.27883
0.00103883 0.00718455 0.00386071
-0.187502 -0.0633946 -0.049789
-0.0490549 0.0323558 -0.0272729
-0.0385543 -0.0797332 0.0410183
0 0 0
0.0638974 -0.0361643 -0.109201
0 0 0
0 0 0
0 0 0
0.124939 0.144571 0.387779
0 0 0
0 0 0
0.0385109 0.00281199 -0.0659403
0.147067 0.0244818 0.220638
0.0393606 -0.0105293 0.000249824
-0.165559 0.0581638 0.00010159
-0.553737 -0.0180487 -0.240946
-0.097397 -0.387551 -0.0427585
0 0 0
-0.0306578 -0.392681 -0.115697
-0.157586 -0.0472508 -0.00151183
0 0 0
0.124195 0.105657 -0.216925
0.0391823 0.0222892 -0.0801287
0.0445781 0.0512007 0.00498121
0.231691 -0.0206847 -0.325735
-0.120857 -0.0114139 -0.290917
0 0 0
0.107122 0.0288926 0.0398334
0 0 0
0 0 0
0 0 0
0 0 0
0 0 0
0 0 0
0 0 0
0 0 0
0 0 0
0 0 0
0 0 0
0 0 0
0 0 0
0 0 0
0 0 0
0 0 0
0 0 0
0 0 0
0 0 0
0 0 0
0 0 0
0 0 0
0 0 0
0 0 0
0 0 0
0 0 0
0 0 0
0 0 0
0 0 0
0 0 0
0 0 0
0 0 0
0 0 0
0 0 0
0 0 0
0 0 0
0 0 0
0 0 0
0 0 0
0 0 0
0 0 0
0 0 0
0 0 0
0 0 0
0 0 0
0 0 0
0 0 0
0 0 0
0 0 0
0 0 0
0 0 0
0 0 0
0 0 0
0 0 0
0 0 0
0 0 0
0 0 0
0 0 0
0 0 0
0 0 0
0 0 0
0 0 0
0 0 0
0 0 0
0.0107395 -0.0242918 0.182407
-0.0600481 0.0896712 0.0429349
-0.0507313 0.154655 -0.0807361
-0.0842969 -0.163268 -0.063436
0.12374 -0.0429926 -0.0201911
-0.00361878 0.0470059 0.0235573
-0.0620301 0.0337475 -0.0702879
0.0275094 -0.27929 0.0328997
0.0382635 0.186978 0.0385303
-0.0917279 -0.10533 -0.0407658
0 0 0
0.0358407 -0.0531386 -0.060185
0.127541 -0.00442214 -0.0805523
0 0 0
0.0066966 0.0535397 0.0760679
-0.0234079 0.06215 0.296076
-0.0108169 -0.0540112 -0.207105
-0.191517 0.0188213 0.0246655
0 0 0
-0.0850697 0.00838096 0.00623781
0.0302133 -0.0113584 -0.0476323
0 0 0
-0.00877914 -0.0130709 -0.0214057
-0.0208855 -0.223816 0.0918575
0.00398504 0.195834 -0.0915637
-0.0309085 -0.0588843 0.264015
0.00172205 0.0393049 -0.0553865
-0.100688 -0.0604385 -0.0801351
0.0163068 -0.0958452 -0.0158611
0 0 0
-0.0319949 0.0459975 -0.116399
0.0616362 -0.135472 -0.102063
0 0 0
-0.000210102 0.031095 0.0688163
0.0484906 0.0444387 0.00138792
0.0689412 -0.0629787 0.175436
0.0380992 -0.0102707 -0.00675322
0 0 0
0.011721 0.00145294 0.0179366
0.00895247 -0.180419 0.160469
0.00395649 0.220372 -0.177467
-0.0539618 -0.0174039 0.0140525
0 0 0
0.0910087 -0.0225065 -0.0401816
-0.00449266 -0.00127038 0.02992
0 0 0
-0.117283 -0.041498 -0.00822531
-0.0103909 0.0296392 -0.0727019
-0.0555365 -0.144785 0.0151517
0.0933023 -0.0540958 0.0420988
0 0 0
-0.0257783 -0.0346828 0.00294654
-0.0297504 0.0254761 -0.0097478
0 0 0
0.0722878 -0.00285761 0.0251097
0.0523025 0.148785 0.17951
0.00803833 -0.116958 -0.228522
0.102972 -0.00386144 -0.0730675
0 0 0
-0.148289 -0.0790039 0.137663
-0.00583083 -0.00711857 -0.00784333
0 0 0
0.0612907 0.0535646 -0.0478977
-0.0135052 0.00274936 -0.0666271
0.146685 0.464297 -0.530518
0 0 0
0 0 0
-0.00941166 0.0249832 -0.091251
-0.124293 -0.783963 0.283471
-0.270445 0.0373464 -0.0899099
0.0212653 0.0652478 0.215613
0 0 0
0.133727 0.348739 0.119935
0.184188 0.255291 0.209842
0.144873 0.263382 -0.184948
0.181059 -0.111639 -0.150447
0.227135 -0.215716 0.13061
0 0 0
0.0983609 0.441215 -0.130969
0.0103606 -0.00138654 0.0476082
0.328172 -0.131784 -0.169585
0.0224769 0.0345315 0.00325765
0.495319 -0.407968 0.139812
0.0602902 0.0123384 0.0152881
0.0504276 0.0816858 -0.18595
0.261175 0.205343 0.414038
0.287133 0.135442 -0.525837
0.0675058 0.0986788 -0.0373137
-0.051137 -0.0517727 0.0418419
-0.132742 0.0235054 -0.357465
0 0 0
0.00202485 0.0702798 0.148591
-0.000190417 0.501755 0.154541
-6.97071e-05 -0.0355415 0.0131021
0 0 0
0.202433 -0.464238 -0.282596
0.033864 0.0924136 0.424747
0 0 0
0.0379181 -0.0170584 -0.00980684
-0.0312501 -0.0438356 -0.0894118
-0.362648 -0.121257 0.067101
-0.249692 0.1014 -0.118296
0.0202524 0.143531 0.020302
0 0 0
-0.271954 0.454314 -0.142959
-0.0313559 0.0544272 -0.00607742
-0.0312871 0.0580939 -0.117689
-0.0178178 -0.111687 -0.221548
-0.174786 0.0656052 0.0811824
-0.140886 0.0435519 -0.0910187
0.168132 -0.0915513 -0.0682515
0 0 0
0.101279 -0.236501 -0.249635
-0.00822918 0.0199724 -0.0141301
-0.215623 0.0521305 0.290778
0.131588 -0.0258413 -0.120406
-0.0315624 -0.0506936 -0.0743239
0 0 0
0.0741891 -0.0944056 -0.0934757
0 0 0
0.168872 -0.0888406 0.252984
0 0 0
0 0 0
-0.00927991 0.0173156 -0.0655073
-0.494274 0.267827 0.311083
-0.271127 0.304089 0.0507713
0 0 0
0 0 0
0 0 0
0.00617305 -0.00812529 0.00974721
0.36175 0.354301 -0.0768979
-0.0589772 -0.0976316 0.120204
-0.000827754 0.0687048 0.0687773
-0.342607 -0.220683 0.215733
-0.28918 -0.187629 -0.12451
-0.0948059 -0.0382868 0.10801
0 0 0
0.122114 0.0433481 -0.0229199
0 0 0
-0.0700021 0.0704596 -0.00549007
0.0998946 -0.113627 -0.086208
0.13464 -0.202288 0.0394947
0.0485005 0.00385232 -0.0299191
0 0 0
-0.0553198 0.0789876 0.207729
0.0578151 -0.0646897 0.314749
-0.225686 -0.373874 -0.0499068
-0.0333317 0.0510519 0.0908703
0.0757986 -0.0600585 0.26985
-0.0653556 0.00287544 -0.0986389
-0.0485012 -0.170618 0.125985
0.0196467 0.0441285 0.037291
0.331644 -0.203188 0.125343
0.175325 -0.0381532 -0.289537
0 0 0
0 0 0
0 0 0
0 0 0
-0.000119981 0.118464 0.0414706
0.0936551 0.219473 -0.198184
-0.161271 0.371561 -0.143714
-0.52696 0.0242798 0.182977
-0.291306 0.213497 -0.268457
0 0 0
-0.00423734 -0.0330969 -0.0297659
0 0 0
-0.0259265 -0.0475939 0.116986
-0.0122545 0.0830349 0.00118924
0.189233 -0.0197142 -0.00543364
0.0125506 -0.00524644 -0.018208
-0.0225839 -0.0301728 0.000161857
0.241376 0.000445064 -0.425952
0 0 0
0 0 0
-0.323839 -0.140923 0.0572824
-0.113292 -0.130919 -0.0581612
0.118925 -0.0140376 -0.000435649
0.0911451 -0.11571 0.0600243
-0.0238692 -0.038073 -0.00354397
0 0 0
0.176054 0.189631 0.0610923
0.0445093 0.243764 -0.0630972
0.0723865 0.248267 -0.0657548
0.0558362 -0.0529346 -0.14771
-0.00119916 0.00513805 -0.0731409
0 0 0
0.195268 -0.0103897 -0.117448
0.0437112 0.00476144 0.233262
-0.0345385 0.0141887 0.25118
-0.303344 0.176752 -0.0138528
0 0 0
-0.133251 0.213614 -0.178187