<?xml version="1.0"?>
<VTKFile type="RectilinearGrid">
<RectilinearGrid WholeExtent="0 32 0 32 0 32" Origin="0 0 0" Spacing="1 1 1">
<Piece Extent="0 32 0 32 0 32">
<PointData>
</PointData>
<Coordinates>
<DataArray type="Float32" format="ascii">
0 0.524874 1.04975 1.57462 2.0995 2.62437 3.14924 3.67412 4.19899 4.72386 5.24874 5.77361 6.29849 6.82336 7.34823 7.87311 8.39798 8.92285 9.44773 9.9726 10.4975 11.0224 11.5472 12.0721 12.597 13.1218 13.6467 14.1716 14.6965 15.2213 15.7462 16.2711 16.796 
</DataArray>
<DataArray type="Float32" format="ascii">
-5.03879 -3.62163 -2.20447 -0.787311 0.629849 2.04701 3.46417 4.88133 6.29849 7.71565 9.1328 10.55 11.9671 13.3843 14.8014 16.2186 17.6358 19.0529 20.4701 21.8872 23.3044 24.7216 26.1387 27.5559 28.973 30.3902 31.8074 33.2245 34.6417 36.0588 37.476 38.8931 40.3103 
</DataArray>
<DataArray type="Float32" format="ascii">
0 0.524874 1.04975 1.57462 2.0995 2.62437 3.14924 3.67412 4.19899 4.72386 5.24874 5.77361 6.29849 6.82336 7.34823 7.87311 8.39798 8.92285 9.44773 9.9726 10.4975 11.0224 11.5472 12.0721 12.597 13.1218 13.6467 14.1716 14.6965 15.2213 15.7462 16.2711 16.796 
</DataArray>
</Coordinates>
<CellData>
<DataArray type="Float32" Name="Vector" NumberOfComponents="3" format="ascii">
0 0 0
0 0 0
0 0 0
0 0 0
0 0 0
0 0 0
0 0 0
0 0 0
0 0 0
0 0 0
0 0 0
0 0 0
0 0 0
0 0 0
0 0 0
0 0 0
0 0 0
0 0 0
0 0 0
0 0 0
0 0 0
0 0 0
0 0 0
0 0 0
0 0 0
0 0 0
0 0 0
0 0 0
0 0 0
0 0 0
0 0 0
0 0 0
0 0 0
0 0 0
0 0 0
0 0 0
0 0 0
0 0 0
0 0 0
0 0 0
0 0 0
0 0 0
0 0 0
0 0 0
0 0 0
0 0 0
0 0 0
0 0 0
0 0 0
0 0 0
0 0 0
0 0 0
0 0 0
0 0 0
0 0 0
0 0 0
0 0 0
0 0 0
0 0 0
0 0 0
0 0 0
0 0 0
0 0 0
0 0 0
0.101963 0.141524 -0.0172278
0.0314643 0.0495367 -0.0349019
0 0 0
0.16549 -0.101013 0.0671621
-0.118329 -0.121149 0.000447015
0 0 0
0.103189 -0.0392052 -0.0763615
-0.00419758 0.0772593 -0.0597155
-0.0828988 0.101406 0.0356321
0.130255 0.0183634 0.00997175
0 0 0
0.0962503 -0.0450543 -0.0191812
-0.213698 -0.0163646 -0.0782636
-0.0138545 -0.00848766 0.0226974
-0.166602 0.0505035 0.0405232
-0.048479 -0.122193 -0.0832272
-0.0334554 0.0325455 0.0402987
0.0470656 0.0415827 -0.0598144
0 0 0
0.117885 -0.0933553 -0.00953162
0.172362 0.0157816 -0.0240805
0 0 0
-0.132491 0.164531 -0.0149544
0.0565747 -0.111548 -0.0165623
0.0889604 0.0577586 -0.0183279
-0.0212329 -0.133352 0.00182688
-0.0132 0.0142227 -0.010459
-0.115556 0.00806163 0.0400334
0.240723 0.053781 -0.00502781
0 0 0
0.100878 0.158633 -0.00351434
0.204719 -0.0320466 0.0810552
-0.0598036 0.0118658 0.12409
-0.0524407 0.00377213 -0.0396522
0 0 0
0.100362 -0.0768179 -0.008067
-0.0435176 -0.0641849 -0.0162411
0 0 0
0.00366286 0.143769 -0.0645663
-0.00371408 0.014327 -0.00990933
0 0 0
-0.0700105 -0.024541 -0.00283813
0 0 0
-0.0652367 -0.00061767 0.0149519
0.423665 -0.00754059 0.0415068
0 0 0
0.0796125 0.0109803 -0.0258624
0.0257407 0.0674776 0.0386929
-0.0196044 0.102583 -0.0382667
0.0208212 -0.000106298 -0.035629
-0.000889281 -0.00999153 -0.0392339
-0.27405 0.0432648 0.0388988
0.0401519 0.00271994 -0.0724794
0 0 0
0.0733936 0.288943 -0.000437196
-0.0335992 -0.0813899 -0.0392372
-0.0167003 -0.0499932 0.000815442
0.287462 0.142848 -0.0209636
0.000735592 0.00374337 -0.0045134
-0.0657798 -0.0542805 -0.0210779
0.113704 -0.23984 0.000536562
0 0 0
-0.173373 0.0718746 -0.0687956
-0.0078206 0.288557 -0.108879
0.13015 -0.100738 -0.00152317
0.144419 -0.385648 0.0241202
0 0 0
-0.0237679 0.143097 -0.0238072
0.0172299 -0.0422831 -7.03977e-05
0.135139 0.0863132 -0.00381116
0.217086 -0.313284 0.314722
0.215172 -0.164342 0.01167
0.0105858 0.00773846 -0.0368202
0.399183 0.1482 0.371996
0 0 0
0.0113703 0.00779299 -0.00464148
0.00252078 0.0769622 0.0253332
0.0430212 -0.0235177 -0.0255822
-0.0482373 0.25157 0.0510391
-0.0738288 0.177831 -0.0315461
-0.188096 -0.190121 -0.153368
0.0511835 -0.0541743 0.0537305
0.0453532 0.0118177 -0.0204672
0.0582482 0.121835 0.115291
0.0436978 -0.287765 0.0429834
0.0605291 -0.0331862 0.080964
0.0329276 0.0107561 -0.0391322
0.068797 0.082408 -0.117584
-0.0216031 -0.236553 0.0306126
-0.0564462 -0.0652803 -0.14981
0.0713588 -0.152902 -0.149146
-0.0307392 -0.169872 0.0842884
-0.195307 -0.289696 -0.0176759
0 0 0
-0.154995 0.128758 0.00884434
-0.160018 -0.241435 -0.285998
-0.215036 -0.44524 0.0312229
-0.0017165 0.0894562 -0.119626
-0.117732 0.00591482 0.183989
0 0 0
0 0 0
-0.341703 -0.191439 0.118036
-0.089637 -0.0455465 0.156124
0.0876367 -0.12093 0.0258919
-0.170052 0.118004 0.0715165
-0.00130715 -0.0752043 -0.171446
0 0 0
-0.423847 0.184403 0.0786752
-0.0281325 0.328366 0.0257033
0 0 0
0.0291281 -0.0392075 -0.00522684
0 0 0
0.0163231 0.0147311 0.0757682
0 0 0
-0.189643 0.21299 -0.367895
0 0 0
-0.0783869 -0.0687805 -0.00284155
-0.0464763 -0.129793 0.0163039
-0.241384 -0.0827666 0.211862
-0.000609153 0.038234 0.0832876
-0.204015 -0.0705458 -0.21205
0.269525 -0.0924421 -0.00442801
0.053262 -0.218619 0.127484
-0.109849 -0.0467583 0.0109832
0 0 0
-0.0192834 -0.0884714 -0.0153416
0 0 0
-0.458807 -0.322382 0.0183332
-0.103779 -0.214255 0.161849
-0.0892353 -0.0792051 0.107419
-0.186971 0.0560581 0.0656492
-0.323701 0.223501 0.292817
-0.0879439 -0.0340541 -0.0304874
-0.18676 -0.00225293 0.158981
0 0 0
-0.302996 -0.134182 0.0438923
-0.00599591 -0.00523533 0.00358786
-0.266189 0.133486 0.0635553
0 0 0
0 0 0
0 0 0
0.0878767 -0.0686283 0.213196
0.29744 0.00310786 0.0787443
0.029844 0.066469 -0.00184244
0.103266 0.205414 0.0155297
-0.155088 0.0761327 -0.149144
0.108754 -0.131693 0.169424
0.512269 -0.388387 -0.0675021
0.097053 -0.0824513 0.00859668
0.0187152 -0.393885 -0.179319
0.00952207 0.292432 0.242022
0.0887695 -0.0245375 -0.0303472
-0.0404121 0.13093 0.000478212
0 0 0
0 0 0
0 0 0
0.260705 0.0114641 0.0018522
-0.25933 0.173285 -0.20544
0.378788 0.316308 -0.0138313
-0.0636953 0.0458921 0.26167
-0.179411 -0.0480089 -0.319713
-0.160674 0.0822842 -0.12199
-0.0777588 0.17328 -0.224094
-0.0152215 -0.00281793 -0.0996301
0.00534262 -0.130296 0.00781306
0.00994728 -0.105089 -0.00851891
-0.162591 -0.0405632 -0.13289
-0.213962 0.125989 -0.407369
-0.219444 0.0095768 0.130945
0.103331 -0.252628 0.313116
-0.0417003 -0.0913245 -0.00264471
0 0 0
0.270462 -0.193994 -0.272482
0.0478952 -0.300569 0.1246
0.0713716 0.0340107 -0.216215
0.0520293 0.28505 0.131625
0.234993 -0.114538 -0.0403218
0 0 0
0 0 0
0.00481344 0.0798089 -0.193533
-0.113027 0.117967 0.318715
0 0 0
0.25223 -0.312252 -0.230108
0.209719 -0.101824 -0.0378771
0 0 0
-0.04142 -0.0567533 -0.00207923
0.285858 -0.0236711 0.0785607
0.0690503 -0.0949992 0.0430611
-0.0318367 -0.0939937 0.00327334
0.0986078 0.127266 0.0394252
-0.103839 -0.0927405 0.0735073
-0.108029 0.0643189 -0.00962647
-0.235795 0.073199 0.0496012
-0.325281 -0.119776 -0.0444576
0.039799 0.106847 -0.156596
0.288898 -0.0932829 -0.0102839
0 0 0
0.0583846 -0.00787425 0.00121248
0.0431359 0.0231231 0.14403
0.46323 0.229375 0.182476
0.204583 0.0631268 0.0262919
0.360522 0.276047 0.0875958
0 0 0
0.165602 -0.41496 0.139621
0.128754 -0.141063 -0.163187
0.167132 -0.0373171 0.157128
0.0356124 0.141565 -0.0761577
0.290705 0.201166 0.0685388
0.0744937 0.104464 0.0264936
0 0 0
-0.00150837 0.123174 -0.0418005
0.00355314 -0.0870631 0.172831
0 0 0
0 0 0
0.0475062 -0.365341 -0.189261
0.22911 0.469944 -0.138486
0 0 0
0 0 0
-0.0300348 -0.157193 0.259729
-0.00241009 0.0481137 -0.439657
0 0 0
0.000876208 -0.219933 0.125591
0 0 0
0.113489 0.328439 -0.0731467
0.0921244 0.0609069 0.0160871
0.253154 0.0708742 -0.253415
0.100616 -0.0452105 0.0232439
0.453647 0.018905 -0.206106
0.0381292 -0.0052498 -0.00565285
0.175604 -0.0540589 0.230108
0 0 0
0.252878 0.0226402 -0.206588
0 0 0
0.176154 -0.108662 0.00922812
0 0 0
0.156914 0.404683 0.10581
0 0 0
-0.219685 0.0933868 0.167729
0.00301051 0.128883 -0.1412
0.197104 0.00251413 0.338267
0.00232179 -0.032642 -0.108428
0.00313372 -0.0779229 0.256594
0.116675 0.318987 -0.101602
-0.268737 0.0532394 0.209432
0.00292114 -0.038895 -0.175294
-0.433257 0.181696 0.302091
0.00248748 0.17945 0.333439
0.0212086 0.143434 -0.0123019
0 0 0
0 0 0
-0.181967 -0.259593 0.334947
0 0 0
0.0284931 0.0763708 0.0826127
0.315322 0.0412626 0.0316484
0.13171 0.0118661 0.000497869
-0.00444651 -0.0115759 -0.018674
0.0222554 0.0234162 0.0970895
-0.0022806 -0.110756 0.107583
0.198819 -0.135305 -0.0915552
-0.0657743 -0.00024101 0.0261277
0.011409 -0.00674136 0.160122
0.263338 0.0785923 0.120648
0 0 0
-0.0465435 -0.0708909 0.0574106
-0.0863747 -0.155371 -0.0827146
-0.0887552 -0.0370662 -0.0171372
0.000195475 -0.0089509 0.0216371
-0.0074239 -0.000319373 -0.0987558
0 0 0
-0.00749267 0.00838267 0.0135353
0.0616469 0.261006 0.130209
-0.00994339 -0.0641805 0.186174
0 0 0
-0.0681595 0.0886087 0.0399466
-0.133359 0.142357 -0.0361662
0 0 0
-0.195507 0.308946 0.0548762
-0.0879467 -0.0318649 -0.0606407
-0.0144378 0.0676351 -0.10933
-0.0263356 0.0132288 0.0264562
-0.222543 0.301952 0.450987
0 0 0
0.23225 -0.206149 0.0965576
-0.0252172 -0.0242564 0.0101409
0.189598 -0.232093 0.143715
0 0 0
0.00125544 -0.0853509 -0.000936241
0 0 0
-0.2359 0.149523 0.0321073
-0.0254431 0.0171387 -0.107986
0.206045 0.0371191 0.291223
-0.0384303 0.285373 0.155758
-0.162864 0.187678 -0.0962184
-0.0207319 0.246358 0.214322
0.00624569 0.0259734 0.0297535
-0.123147 -0.174065 -0.246665
-0.350558 0.134704 -0.174707
-0.224625 -0.206431 -0.119489
-0.0487845 -0.0811566 -0.00133405
0 0 0
0.241858 0.0647118 -0.0370884
-0.0347067 0.21168 0.158252
0 0 0
0 0 0
0.150089 -0.057698 0.299459
-0.405304 -0.104361 -0.320045
-0.102287 0.0423286 0.00348902
0 0 0
0.055629 0.0479738 -0.0626482
0.186378 -0.0514817 -0.26454
0 0 0
-0.0252972 -0.036907 -0.216958
0 0 0
0.104222 -0.00854148 -0.0993738
0.128837 0.107988 0.132276
0.132857 -0.129837 0.0741207
-0.0294578 -0.0459711 -0.0386344
0.0288069 -0.0344352 0.0595882
-0.220238 0.142139 0.0491061
-0.253113 0.138252 -0.0470727
0.22396 0.215829 0.130728
0.01327 0.021991 -0.0235448
0.159384 0.376893 -0.0205923
-0.000310691 0.0623693 -0.058152
0.152465 0.338299 -0.0445247
0.174366 0.141722 -0.184403
0.453748 0.410007 0.109095
-3.2278e-05 0.00229381 -0.001122
-0.101497 -0.00208031 -0.189046
-0.0696758 0.0157111 -0.0514061
-0.171299 0.102815 0.0712972
-0.0434916 0.0455043 -0.0272242
0.0948873 0.222883 -0.0634576
0.074035 0.11801 -0.0302702
-0.256066 -0.178779 0.235474
-0.172116 -0.127462 -0.0989768
0 0 0
0.00264889 -0.103721 0.157468
0 0 0
-0.0593965 -0.110533 -0.0547793
-0.0306336 -0.0820701 0.231823
0 0 0
-0.000364026 -0.0407638 0.022848
0.00741297 0.0171309 -0.0274589
0 0 0
0.0476875 0.0407349 0.0187651
0.171126 0.167216 -0.0503668
0 0 0
-0.279978 -0.109599 -0.0868561
0 0 0
0 0 0
0 0 0
0.177976 -0.0166089 -0.107969
9.19406e-05 0.00364097 -0.0044535
0.00582545 -0.245994 0.219479
0.040651 -0.00342218 0.0917048
0.251125 0.0693007 -0.145693
0 0 0
0 0 0
0.120061 -0.552635 -0.258457
0.341746 -0.162728 0.114612
0.162653 0.0558315 -0.0406783
0.118082 0.0806514 -0.170622
-0.294057 0.268697 -0.102896
0.0255099 0.539762 -0.634719
-0.230457 0.0748042 -0.00947936
0 0 0
-0.145107 -0.0724655 -0.044828
-0.526076 -0.392977 0.143837
-0.310308 -0.122085 0.0826987
0 0 0
-0.150921 -0.157886 -0.115502
0 0 0
-0.0487884 -0.0354875 -0.182794
-0.260386 -0.152398 -0.0863902
0 0 0
0 0 0
-0.28318 -0.0432907 0.350262
-0.0349156 0.0190661 0.0263707
-0.0860241 -0.0528532 -0.0865838
0.0592602 -0.155783 -0.526361
0 0 0
0.397393 0.0438984 -0.00123049
0 0 0
0.030064 0.00249972 -0.0921858
0.254709 -0.0408464 0.128584
-0.000948725 0.0126114 -0.128525
0.0161548 -0.0313593 -0.0110182
0.186474 -0.123228 0.0888793
0 0 0
0.125605 -0.0658879 -0.103032
0.0306617 -0.015467 0.0185152
-0.00265502 0.116744 -0.0975753
-0.00338136 0.014438 -0.00376228
0.00706048 0.0287844 -0.125923
0 0 0
0.00676125 0.0746207 0.0433363
0.101551 -0.205796 -0.0714916
0.0615109 0.0310339 0.050541
0.0753216 -0.000267536 0.105403
0.0819091 -0.0244882 0.0443355
0.0824882 -0.00163703 -0.0415633
-0.0754236 0.027636 0.208294
-0.208925 0.0765735 0.226074
0 0 0
-0.514692 -0.935934 -0.40949
0 0 0
-0.106235 -0.105489 0.0428602
-0.058531 -0.0394145 -0.0184361
-0.237396 -0.101009 -0.142421
-0.262157 0.0270684 -0.013816
0 0 0
0 0 0
0.152026 0.00102515 0.0329055
-0.100874 0.132081 0.0273136
0 0 0
-0.137318 0.0817302 -0.419929
0 0 0
0.289657 0.208199 0.110743
0.0145325 -0.102081 -0.0582786
-0.127708 -0.207098 0.167941
-0.0213287 -0.000331079 0.00685028
0.0329294 0.00771945 0.0639011
0 0 0
0 0 0
0.0277056 -0.0202618 0.00663209
0.519008 -0.298589 -0.264609
0.189956 -0.0456667 0.0198119
0.534318 0.3549 -0.108661
0.0626947 -0.0152404 -0.0133868
0.111135 -0.048943 0.190046
-0.0960687 0.159222 -0.37751
0.00800368 0.00174649 -0.0051809
0.0611359 -0.192724 0.162951
0 0 0
0 0 0
0.0582437 0.0774011 -0.133076
0.0334715 -0.21566 0.079166
0 0 0
-0.20869 -0.153811 -0.0162263
-0.0577869 -0.170189 0.0659116
0 0 0
0.0900493 -0.141733 -0.130503
-0.000961696 -0.124025 -0.0361733
-0.146392 0.00593941 -0.370974
0.0899402 -0.14389 -0.188357
-0.0101129 0.0124834 0.0332265
-0.395095 -0.368947 0.153729
0 0 0
-0.010354 -0.0633775 -0.142441
0.0375611 -0.543445 0.0503753
-0.164216 -0.282925 -0.216486
-0.0389895 0.161963 -0.0769284
-0.0509038 0.0251818 0.0389909
0.00146572 0.132709 0.35437
0 0 0
0 0 0
-0.147593 0.0249774 0.225884
-0.000781547 -0.287433 -0.00744686
-0.169837 -0.0598532 0.106048
-0.0227663 0.218195 0.0307813
0.218486 0.555198 0.0148293
0 0 0
0.306174 -0.37104 -0.189888
0.0472609 -0.0163441 -0.308353
0 0 0
0.0770766 -0.153416 -0.145056
-0.00973631 -0.290516 0.0160335
-0.0523613 0.166812 -0.496937
-0.123049 0.112441 -0.0631176
-0.085724 -0.0576619 0.0121865
0.0981793 -0.132375 0.0327193
-0.00062574 -0.00562887 0.00550563
-0.093838 -0.0332001 -0.00235922
-0.00067567 -0.0672576 -0.0619369
-0.373737 -0.150522 -0.12019
0.0630702 -0.00164902 0.0765586
0.241676 0.214542 -0.340747
0 0 0
-0.132527 -0.172155 -0.156061
-0.217843 0.0890806 -0.329896
0.266654 -0.000258763 -0.155864
0.0127827 -0.00113075 -0.0483537
-0.0563704 -0.397523 -0.0235086
-0.30898 0.13279 -0.494913
0 0 0
0 0 0
0.194211 0.108874 0.0273102
0.314872 -0.0135969 0.00219368
0 0 0
-0.123729 0.2297 0.00259138
-0.152617 -0.0882394 -0.104244
-0.394495 -0.165023 -0.253623
0 0 0
0.0627329 0.152514 -0.00072225
-0.00523725 0.152029 -0.00019645
-0.0671402 -0.260461 0.0728261
-0.250516 -0.371924 0.0999959
-0.315988 0.0357296 -0.365102
0.121653 0.058678 0.140903
-0.320929 -0.199052 0.330232
0.0608708 -0.191102 0.217296
-0.0579727 -0.0950417 0.1991
-0.136508 0.0838045 -0.0855417
0 0 0
0.266107 0.334782 0.12006
0.0643056 -0.08648 0.0920233
0.0581182 -0.122832 0.00468936
0.157033 -0.212749 -0.493131
0.00158673 0.265301 0.0635551
0.163256 -0.0864037 -0.197642
0 0 0
0 0 0
0 0 0
0.518242 -0.292679 0.090187
0.0416055 0.0631838 -0.0722591
0.135633 -0.0784595 -0.162562
0.170646 0.399128 -0.211569
0.0197752 -0.241219 0.00192785
-0.14437 -0.354186 0.321239
0 0 0
-0.121707 0.319117 -0.162229
0.223801 0.111977 0.278455
0 0 0
-0.181522 -0.0364302 -0.00138611
0 0 0
0 0 0
0.22701 -0.143197 -0.159166
0.0329554 0.160445 0.0434779
0.248307 -0.215014 0.320479
0 0 0
-0.0466799 -0.0921459 -0.220798
-0.201236 -0.141925 0.0190838
0.00272411 -0.0974927 -0.0869067
-0.104585 0.0694313 -0.121064
0 0 0
0.00014961 -0.0503469 -0.0592283
0.158457 0.0336999 0.0569094
0.246801 -0.222697 -0.0145623
0.199474 0.0942894 -0.112555
0.0971024 0.269339 -0.29023
-0.00334738 0.0834478 0.116992
-0.00255541 0.0865286 -0.00308478
0.28063 -0.0235079 -0.064763
0 0 0
0.0404837 0.0983472 0.0782063
0 0 0
0.00967272 0.0113133 -0.023054
0 0 0
-0.0521601 0.103253 0.192048
0.140503 0.144061 0.369226
0 0 0
0.183144 0.103377 0.00475385
0.0037647 -0.0529747 0.0426205
0.0612834 -0.0840888 -0.0426117
0.0651898 -0.00668261 -0.140895
0.179369 0.231912 0.0458806
0.0012553 0.0858454 -0.0846348
0.179675 -0.0531588 -0.38408
0.201065 -0.198907 -0.20649
0.25847 -0.0711464 -0.106238
-0.00811848 0.111803 0.375026
-0.174691 0.114407 0.0331427
0.00841794 -0.0722181 0.136153
-0.111183 0.000139684 0.00176377
0.141811 0.0157284 -0.0127394
0.27754 -0.220256 -0.263258
0 0 0
0.04293 -0.294933 -0.028005
-0.0421515 -0.208577 -0.143596
0.00271099 0.0920104 0.2081
0 0 0
0.130141 -0.0780287 0.0485601
-0.285555 0.166649 0.050403
0.0693631 0.00156784 -0.217482
0 0 0
0 0 0
-0.0680255 0.0517896 -0.183146
-0.0492798 0.162666 -0.136833
-0.14933 -0.0394726 -0.198434
0.091267 -0.0543851 -0.277836
0.0168871 0.0155767 -0.0506798
-0.0498251 0.124551 -0.0992663
0.277633 0.0368579 -0.12313
0.0188988 -0.0467062 0.0489224
0.0278547 0.0157803 -0.0103716
0 0 0
0 0 0
-0.0209776 0.197283 3.72954e-05
-0.0183653 -0.00145021 0.00368314
-0.146847 -0.218747 0.058322
-0.0594667 0.0565423 0.124608
0 0 0
0.0335744 0.46152 -0.283775
-0.00758949 0.00171834 0.0312354
-0.0287066 -0.125743 0.0492246
-0.134954 0.246817 0.063477
0.118586 0.0997017 -0.0347919
-0.355791 0.0818424 0.0134758
-0.11292 -0.0805001 -0.0569531
0.0280459 -0.0226351 0.0143356
-0.169489 -0.626769 -0.15358
-0.00669813 -0.0876717 -0.028069
-0.238286 -0.125108 0.280499
0 0 0
0.113295 0.15177 0.0266246
0.156603 -0.414222 -0.211048
0.250805 0.0483582 0.129427
-0.0104277 -0.105266 -0.034574
-0.000997653 -0.0143833 -0.134709
-0.0509867 -0.123634 -0.168133
0 0 0
-0.12969 -0.227719 0.0361256
0.00210122 -0.0576516 0.0394364
0.0314391 0.248946 0.0199147
0.088746 0.138009 -0.154066
0.235722 0.166039 -0.193573
0 0 0
0.0549573 0.00838969 -0.232063
-0.00660887 0.136568 -0.168495
-0.329383 -0.109535 0.381187
0 0 0
0 0 0
0 0 0
-0.331451 0.210102 -0.0690917
0.28587 -0.0828926 0.0417022
0.384233 -0.0315855 -0.22374
0.0934358 -0.413623 -0.0102114
-0.0855018 0.0341506 -0.0397023
-0.00240448 0.00659817 -0.00184704
0.233708 0.574537 -0.135928
0.0531699 0.00149156 -0.119113
0.370159 0.267101 -0.205714
0 0 0
-0.057141 -0.0895973 -0.105345
-0.163044 0.211644 -0.237173
-0.00288776 0.177332 0.207448
-0.00348683 -0.0762052 0.00501054
0 0 0
-0.0985377 -0.130233 -0.0415349
0.0903353 0.127692 -0.0355397
0.0441594 0.0329432 0.060653
0 0 0
0 0 0
-0.116232 -0.33311 -0.0359916
0 0 0
0.0224822 0.140584 0.0989065
0.038965 -0.135219 0.0295429
0.120781 0.150726 -0.081272
0.144765 0.297177 -0.283247
0.272214 0.192204 -0.254662
-0.115369 -0.0309082 -0.00291633
0 0 0
0 0 0
-0.179562 -0.0748192 0.0206439
-0.159692 -0.0866115 -0.0890011
0.0814573 0.245192 -0.154283
-0.17336 0.183923 0.134714
0 0 0
-0.0674752 0.0525002 -0.0729795
-0.329715 0.290596 -0.454571
0.00508644 0.0130755 0.294149
-0.476 0.336425 -0.431447
0 0 0
-0.0815697 -0.154883 0.242448
0.149876 0.126564 -0.104713
0 0 0
0.00590326 0.170894 0.298326
-0.0264347 0.0281162 0.0440463
0.00128239 0.176781 0.280107
0 0 0
0 0 0
0.109273 0.0259166 -0.0404791
0 0 0
0.323252 -0.502417 0.191382
0.0362076 0.00136761 -0.0297603
-0.00869388 0.00925961 0.00012676
-0.114376 0.00928895 0.0234156
-0.0384895 0.337068 0.292188
0 0 0
-0.209784 0.163834 -0.0321197
-0.00220803 0.0657703 0.0486444
0.0227105 0.0295376 0.00751147
0.0459749 0.03042 -0.130865
-0.117366 -0.288145 0.632362
0 0 0
-0.0639367 -0.360365 0.549469
0 0 0
-0.047997 0.0323582 0.158163
0.000163717 0.12951 -0.0825895
0.148412 0.0114104 0.00273456
0.100272 -0.00179418 -0.322417
-0.241936 0.0375509 -0.170206
0 0 0
-0.184754 -0.283026 -0.076365
0 0 0
-0.165814 -0.388966 0.00112686
0.332493 -0.485074 -0.0180627
0.249938 0.145092 0.0427799
0.11339 0.146181 -0.129948
0 0 0
0.0024082 0.404599 -0.195467
0.0563414 -0.0051248 -0.0241313
0.246893 0.0496181 0.129249
0.223849 0.0932975 -0.0262491
0 0 0
0 0 0
-0.195264 0.105038 -0.199745
-0.00730555 -0.176549 -0.330353
0 0 0
0.00805635 -0.00990367 -0.0089244
-0.221545 -0.218815 0.0403651
0.0342852 0.0103348 0.00143533
0 0 0
-0.043733 0.191777 -0.117449
0.000434321 0.775845 0.0382008
-0.00303621 0.351796 0.1343
-0.00816441 -0.0224312 0.232096
0.02908 -0.0660934 0.02637
-0.0702737 0.0283612 0.00290148
-0.0649557 -0.108993 -0.000326154
0 0 0
-0.190199 -0.075872 -0.207824
-0.108361 0.186347 -0.0438284
-0.160608 0.0813346 -0.171747
0 0 0
-0.00915885 -0.120574 -0.139074
0 0 0
0.0341057 0.00286048 0.00133444
-0.0973382 -0.0361161 0.159286
-0.166984 0.149761 0.0277986
0.203835 0.431322 -0.0513917
0.0121517 0.0610184 -0.0914276
0.0735348 -0.0322256 0.256237
-0.0202604 0.12457 0.208724
0 0 0
0.0585489 0.0958646 0.00533639
0 0 0
0.0801813 -0.0175553 0.00178977
0.191056 0.029812 0.0507943
0.168702 -0.164137 -0.000291079
0 0 0
0 0 0
0.0203709 -0.104193 0.113633
0.0685372 -0.234163 0.144003
0.00829601 -0.00344691 -0.00907731
-0.141048 0.0701519 -0.171825
-0.190591 -0.0687563 -0.355162
-0.158612 0.0288716 0.034135
0 0 0
0.292094 0.178284 0.0928255
-0.01193 0.0102102 -0.120988
-0.217512 -0.226215 0.198587
-0.0594484 -0.334314 0.0651958
0 0 0
0 0 0
0.00505084 -0.109739 -0.0143393
-0.00252642 -0.0158481 -0.00927388
0.0133283 -0.0205551 0.0521739
-0.0282701 0.0103937 -0.00613996
-0.0727185 -0.154156 0.047573
0.196156 0.00661155 -0.119011
0.00552924 0.0083055 0.465169
0.0151018 0.116784 -0.0881963
0.226448 -0.130024 -0.378758
0.0733647 -0.0060128 -0.0662933
0.156086 0.193672 0.265604
0.367843 0.196759 -0.0255856
0.0929471 -0.402162 0.0870126
0.12346 0.197197 -0.0479082
0.526428 0.28927 0.283757
0.0827276 0.0864811 -0.359404
0.160152 0.253358 -0.00447245
-0.048505 0.0690526 -0.0471338
0 0 0
0.144369 -0.365938 -0.000198194
0 0 0
0.0880945 -0.0407873 -0.0835703
0.0874397 -0.0337589 -0.00118857
-0.0359566 -0.00170317 -0.126223
-0.0434803 -0.139598 -0.206155
-0.000260399 0.0206845 -0.050421
0.0673103 0.0159605 -0.187348
0.0698911 -0.0054965 0.156989
0 0 0
-0.203316 -0.0633158 0.0917753
-0.028968 0.0216204 0.00777176
-0.426344 0.0422775 0.0575533
-0.138884 -0.130364 -0.0282675
0 0 0
0.100499 -0.203837 0.173536
0 0 0
0 0 0
0.289478 0.161574 -0.0602232
0.0509974 0.0691933 -0.0720914
0.145888 0.201491 0.234768
0.0212294 -0.00479815 0.0332566
0.272245 0.172175 -0.360968
0.212905 0.155191 0.0627783
0.143704 -0.00756553 0.0986838
0.152222 -0.0542304 0.163968
0.0133101 -0.0152134 0.00855197
0.00426411 0.245707 0.0780468
0.0888738 0.115967 -0.0732759
0 0 0
0 0 0
0.179144 -0.260709 0.0599748
-0.0203818 0.0227833 0.0389619
-0.140101 -0.0052347 0.0447583
0.00119463 -0.0977597 -0.109908
0.200532 -0.228118 -0.0941796
-0.0183377 -0.0897549 -0.179256
-0.0382424 -0.226427 -0.174554
0 0 0
0.00946471 -0.0927565 0.000352895
0 0 0
0 0 0
0.0275363 0.105663 -0.301113
0 0 0
0.0207156 -0.15063 0.307749
0 0 0
-0.315562 -0.467225 0.1119
-0.228829 -0.258609 0.0358187
-0.0422185 -0.00646436 -0.000705349
-0.0609959 0.172386 0.0777178
0 0 0
-0.0304127 0.0890302 -0.0546472
-0.383575 0.419963 -0.275788
0.0955258 0.170989 -0.127196
-0.000783734 0.0495028 -0.154635
0.0674616 -0.0121389 0.0617266
0.2243 -0.0273882 0.181491
-0.0339486 0.109698 0.0149686
-0.298859 0.229336 -0.00363069
-0.00951538 0.0037918 0.00155729
-0.00171279 -0.0283162 -0.0458253
0 0 0
-0.102528 0.0124685 -0.225581
-0.000383815 0.0794356 0.0235509
0.0336232 -0.256378 -0.161007
0 0 0
0 0 0
0.137163 -0.0506682 0.0421413
0 0 0
0.0286285 -0.0454178 -0.00775708
-0.0682342 0.0508306 0.0350966
0.0737285 -0.00548154 0.0570144
0.246201 0.261538 0.362211
-0.00761223 -0.0344069 0.00746962
0.177428 0.0849117 0.0677044
-0.000377008 0.0237429 -0.0427619
0 0 0
0.136588 -0.115229 0.0406232
0.0414496 -0.00397656 -0.32312
-0.106212 -0.0985999 -0.0917123
-0.00591798 0.0246708 -0.0573462
-0.163797 0.0584508 0.0662133
-0.0374047 0.113369 0.00588841
0.0322619 0.031463 0.0254386
0.0127012 0.0733032 0.040864
0.0504434 -0.238627 0.104328
0 0 0
0 0 0
0 0 0
-0.0929736 -0.0642649 0.24597
-0.0242014 0.102145 -0.000699712
0 0 0
0.385481 -0.192409 -0.0613303
-0.00550894 0.0384539 0.196253
0.318765 0.4354 -0.0374816
0.0136537 0.00306244 -0.0105578
0.0194259 0.0524611 0.00152846
-0.0820699 -0.0531246 -0.0732556
-0.0515767 -0.278342 -0.0322697
-0.296729 -0.0588567 0.20387
0.0312611 0.237099 0.0346661
-0.0541379 0.146574 -0.0783558
0.000263958 0.00840741 -0.0294054
0.241505 -0.0545661 0.00371607
0.0248153 0.0432742 0.021733
0.0075447 -0.0434642 0.0191336
-0.0246673 0.283991 -0.103815
-0.302012 -0.0940472 -0.0707242
-0.0303784 0.134362 -0.0129808
-0.102921 0.000301943 -0.122475
-0.0198352 0.068185 0.0901959
-0.0448774 -0.213299 -0.0569001
-0.0249024 0.0101044 0.026425
-0.09203 0.328297 -0.0997316
-0.157961 -0.0234804 -0.315426
-0.494091 0.188197 0.0309899
-0.0721004 0.0734486 0.103109
-0.426868 -0.240059 0.147757
-0.380359 -0.00973848 -0.163207
-0.368991 0.173443 -0.0768763
-0.336758 0.0607605 0.140258
-0.0462413 -0.120367 0.00311297
-0.379897 0.0831001 -0.215838
-0.014619 -0.0719232 0.0352348
-0.092286 0.0979182 -0.13337
-0.0238506 0.0847429 -0.0419265
-0.152414 0.126931 -0.107778
0 0 0
0 0 0
0.0005289 -0.0186839 -0.0452527
0.128032 -0.0971688 0.0526747
0 0 0
0.0128612 -0.201401 0.217536
0.313536 0.0707876 -0.119962
0.052029 0.0206022 -0.10331
0.00519121 0.345518 0.00593396
-0.0188532 -0.0389577 -0.0836822
-0.127712 -0.00115651 -0.0011046
-0.0277383 0.105162 -0.107578
0.00989652 -0.010243 0.0879925
-0.000480731 -0.0325784 -0.0353228
0.234548 -0.175127 -0.0877828
0 0 0
0 0 0
0 0 0
0 0 0
0 0 0
0 0 0
-0.00084163 -0.00338812 0.0272452
0.180162 -0.0958852 -0.197912
0.17099 0.175563 0.0431123
0.0598177 0.297653 0.000415638
-0.197727 -0.0546801 -0.518703
-0.0655157 0.259993 -0.358566
0 0 0
0.165031 -0.0385284 0.146948
-0.296572 0.0467475 -0.0541003
0.00037722 0.162913 0.000518376
-0.0119466 -0.0376416 0.0504399
-0.0497384 -0.124382 -0.000801485
0.0771927 0.131104 0.0899192
-0.0505246 0.00324079 -0.00365381
0 0 0
0.140623 0.00169609 -0.364048
0.00238696 0.208265 0.0509805
-0.0493561 0.321671 -0.260197
-0.00190012 0.1 0.212524
-0.0937727 0.00958713 -0.178894
0.0906109 -0.0258862 -0.187672
0 0 0
-0.230904 0.247107 -0.333851
0 0 0
-0.0684521 0.135323 0.0716184
-0.0262325 -0.0373052 0.127434
-0.157369 -0.0870016 -0.0335265
-0.323519 0.0763113 0.259077
-0.141174 -0.000545946 0.0358549
0.0188872 0.215648 0.00051602
-0.0966139 0.235235 0.167188
-0.000380147 0.304374 -0.0955583
-0.208158 -0.207928 -0.381701
-0.000546656 -0.0889899 0.392217
0.0426171 0.175406 0.32299
0.206407 -0.0247733 0.236682
-0.132635 -0.0121548 0.226218
0 0 0
0 0 0
0 0 0
0 0 0
0 0 0
0 0 0
0 0 0
0 0 0
0 0 0
0 0 0
0 0 0
0 0 0
0 0 0
0 0 0
0 0 0
0 0 0
0 0 0
0 0 0
0 0 0
0 0 0
0 0 0
0 0 0
0 0 0
0 0 0
0 0 0
0 0 0
0 0 0
0 0 0
0 0 0
0 0 0
0 0 0
0 0 0
0 0 0
0 0 0
0 0 0
0 0 0
0 0 0
0 0 0
0 0 0
0 0 0
0 0 0
0 0 0
0 0 0
0 0 0
0 0 0
0 0 0
0 0 0
0 0 0
0 0 0
0 0 0
0 0 0
0 0 0
0 0 0
0 0 0
0 0 0
0 0 0
0 0 0
0 0 0
0 0 0
0 0 0
0 0 0
0 0 0
0 0 0
0 0 0
-0.0171539 0.0236179 0.0322761
0.069407 -0.00574507 0.113628
-0.000534685 0.0463996 -0.00345169
0.0672408 0.0465761 0.253058
0.0493283 -0.0130744 -0.0517181
0 0 0
-0.0619597 0.143371 -0.051012
-0.00528649 0.0807912 0.112252
-0.14565 -0.219767 -0.106913
0.0862023 -0.00958787 0.00874829
0 0 0
0.0563401 -0.0546436 0.0549904
-0.0914084 0.0316449 0.0261844
0 0 0
-0.0154781 0.0754726 0.0554163
0.175611 -0.150837 0.0135652
0.0957183 0.0615636 -0.126441
0.0437715 0.00589157 0.0500871
-0.00392727 0.0133476 0.00522381
-0.101526 -0.122928 -0.139622
0.0484365 -0.00214223 -0.0498614
0 0 0
-0.315287 -0.0177221 -0.0643688
0.00518397 0.0690942 0.0247826
-0.0387979 -0.00978837 -0.0794479
0.0996389 0.130256 0.101446
0 0 0
-0.0598863 -0.0890058 -0.0294471
-0.0584608 -0.0416757 0.204037
-0.00393534 0.0472686 -0.142893
-0.0517831 -0.129705 -0.148737
0.0446945 -0.105304 -0.0590349
-0.0405623 0.00377184 0.159888
0.00575104 -0.0871317 0.00750103
0 0 0
-0.00996566 0.00454837 -0.227729
0.00714636 -0.117123 -0.085342
0 0 0
-0.0758822 0.03285 0.266561
0.0583295 -0.200506 0.222249
0.0340288 0.203933 -0.26621
-0.188084 -0.00285107 0.00359357
0 0 0
-0.0158295 0.0225233 0.0184811
-0.0615098 0.0208554 0.0669763
0.00205113 -0.0188745 0.051571
-0.0576993 0.0142795 -0.0189137
-0.162107 -0.0301809 0.0782886
-0.0917696 0.0282191 0.0745983
0.129621 0.038362 0.0689844
0.00347667 0.00749331 0.0567075
0.0128952 -0.00870443 -0.0325138
-0.0322158 -0.0582979 -0.0380463
0 0 0
0.169173 0.00578638 -0.024462
0.0255083 -0.0491779 -0.124718
0.0130977 -0.00064339 0.178227
0.00873264 0.0275499 -0.226325
0 0 0
-0.0760251 -0.144106 0.173967
-0.214485 0.11943 0.0445225
-0.00130491 -0.00338066 0.0204044
-0.121339 -0.0138602 0.0443363
-0.0502041 -0.0102386 -0.0410798
-0.17457 0.022539 0.193102
0.0533812 -0.110866 0.0139972
0.160525 0.0642593 0.0991516
-0.0223619 -0.145792 -0.0399806
0.0582242 -0.0969722 0.0352611
-0.00175506 -0.135584 0.0885645
0.15944 -0.136823 0.129732
-0.00168787 0.0839005 -0.105925
-0.161623 0.182095 0.29835
-0.013862 -0.0728365 0.115288
-0.0578548 0.0313797 0.0332678
0.0888348 0.523502 -0.09597
-0.319303 0.161774 -0.348051
0 0 0
-0.0298688 0.385472 -0.0158115
-0.148508 0.147914 0.292953
0.018425 0.181435 -0.0744962
-0.202827 0.00251173 -0.403083
-0.0475823 0.0481003 -0.13922
0.0150942 0.160328 0.0921142
-0.0584371 -0.244284 0.232796
-0.0344442 -0.128841 0.0707478
-0.000387809 -0.0640693 -0.0414294
-0.101374 0.1424 0.000711419
0 0 0
0.0723575 -0.0800719 -0.125439
0 0 0
-0.0691892 -0.176791 -0.0415814
0.0171917 -0.0037581 -0.0906292
-0.139387 0.286685 0.212165
-0.26963 -0.0824901 0.184267
0.00147655 -0.0636914 -0.0324427
-0.0914562 -0.244409 -0.000135863
0 0 0
-0.0792217 -0.216796 -0.0485557
-0.0519139 0.0723096 0.0367488
-0.0205839 0.0526847 0.0254066
-0.183862 -0.0391792 0.302801
-0.0842805 0.197849 -0.0113882
-0.119046 0.0414999 0.186289
0 0 0
-0.0537916 -0.000345925 0.084522
-0.104424 0.0890043 0.000216913
0 0 0
-0.0236446 0.00882669 -0.0329092
0.00146738 0.579647 -0.200284
-0.0772597 -0.0705711 0.0968017
-0.258873 0.791132 -0.161457
0.00527444 -0.0523923 -0.01228
0.163316 0.132855 0.107647
0.0260236 -0.22406 -0.00317818
0 0 0
0.0765546 0.0681231 -0.00116727
0.190426 -0.0852956 0.32843
0 0 0
0.107385 0.0211828 0.000121075
0.0696965 0.0012711 0.0345672
0.218432 -0.249966 -0.503998
0.049453 0.0210417 -0.0116819
0.411269 -0.0444693 -0.0826828
0.175298 -0.053974 -0.0624456
0.25593 0.0556247 -0.0128324
0 0 0
-0.0676677 0.182133 0.00045911
0.0224966 0.0895715 -0.0325075
-0.285514 -0.0682292 0.134354
0 0 0
0.0676721 -0.0424085 0.552647
0 0 0
-0.192519 0.107862 0.047583
-0.377324 0.048365 -0.091115
-0.304051 0.22391 0.137879
0 0 0
0 0 0
0 0 0
0.187118 0.150036 0.0463282
0.0574004 -0.0523419 0.118845
0.0370144 0.225818 0.00224602
0 0 0
0.195354 0.753462 0.154005
0.422773 0.0161915 0.0491438