<?xml version="1.0"?>
<VTKFile type="RectilinearGrid">
<RectilinearGrid WholeExtent="0 32 0 32 0 32" Origin="0 0 0" Spacing="1 1 1">
<Piece Extent="0 32 0 32 0 32">
<PointData>
</PointData>
<Coordinates>
<DataArray type="Float32" format="ascii">
0 0.524874 1.04975 1.57462 2.0995 2.62437 3.14924 3.67412 4.19899 4.72386 5.24874 5.77361 6.29849 6.82336 7.34823 7.87311 8.39798 8.92285 9.44773 9.9726 10.4975 11.0224 11.5472 12.0721 12.597 13.1218 13.6467 14.1716 14.6965 15.2213 15.7462 16.2711 16.796 
</DataArray>
<DataArray type="Float32" format="ascii">
-5.03879 -3.62163 -2.20447 -0.787311 0.629849 2.04701 3.46417 4.88133 6.29849 7.71565 9.1328 10.55 11.9671 13.3843 14.8014 16.2186 17.6358 19.0529 20.4701 21.8872 23.3044 24.7216 26.1387 27.5559 28.973 30.3902 31.8074 33.2245 34.6417 36.0588 37.476 38.8931 40.3103 
</DataArray>
<DataArray type="Float32" format="ascii">
0 0.524874 1.04975 1.57462 2.0995 2.62437 3.14924 3.67412 4.19899 4.72386 5.24874 5.77361 6.29849 6.82336 7.34823 7.87311 8.39798 8.92285 9.44773 9.9726 10.4975 11.0224 11.5472 12.0721 12.597 13.1218 13.6467 14.1716 14.6965 15.2213 15.7462 16.2711 16.796 
</DataArray>
</Coordinates>
<CellData>
<DataArray type="Float32" Name="Vector" NumberOfComponents="3" format="ascii">
0 0 0
0 0 0
0 0 0
0 0 0
0 0 0
0 0 0
0 0 0
0 0 0
0 0 0
0 0 0
0 0 0
0 0 0
0 0 0
0 0 0
0 0 0
0 0 0
0 0 0
0 0 0
0 0 0
0 0 0
0 0 0
0 0 0
0 0 0
0 0 0
0 0 0
0 0 0
0 0 0
0 0 0
0 0 0
0 0 0
0 0 0
0 0 0
0 0 0
0 0 0
0 0 0
0 0 0
0 0 0
0 0 0
0 0 0
0 0 0
0 0 0
0 0 0
0 0 0
0 0 0
0 0 0
0 0 0
0 0 0
0 0 0
0 0 0
0 0 0
0 0 0
0 0 0
0 0 0
0 0 0
0 0 0
0 0 0
0 0 0
0 0 0
0 0 0
0 0 0
0 0 0
0 0 0
0 0 0
0 0 0
0.0104761 0.0383342 -0.00738263
0.00226667 0.0985508 0.149775
0 0 0
-0.0466903 0.0208511 -0.0585752
-0.100286 0.114327 0.152315
0 0 0
0.252134 -0.126961 0.00338536
0.00528017 0.159628 -0.0803832
-0.0341182 -0.0210189 0.0888
0.110877 0.206182 0.00126055
0 0 0
0.109923 -0.217616 -0.00373064
0.0782846 -0.110408 0.175579
0.0058742 0.00698097 -0.00437009
-0.132549 -0.0816498 -0.114588
0.150704 0.0682471 0.157398
0.129177 -0.0992706 -0.160759
-0.0143262 0.0518926 0.0492286
0 0 0
0.0603082 -0.0528054 -0.0180897
-0.115507 -0.0499806 0.0206299
0 0 0
-0.100912 0.098504 -0.00337809
0.0167558 -0.167794 -0.051837
-0.00564292 -0.0104715 0.0475501
0.155102 -0.21226 0.0741034
0 0 0
-0.110733 -0.0893181 -0.0962818
-0.154914 0.306307 -0.00439012
0 0 0
-0.00241003 -0.139925 -0.0929278
-0.0577958 -0.0103881 0.00742091
0.106633 0.126377 -0.118594
0 0 0
0 0 0
-0.121652 -0.0254762 -0.00684011
0.0696607 0.00860303 -0.0574737
0 0 0
0.161124 0.0645576 0.000209486
0.0759375 0.0606007 0.020898
0.0150066 -0.000310191 -0.0205457
0.510267 0.0611873 -0.0192201
0 0 0
0 0 0
-0.185154 -0.138052 0.0460159
0 0 0
0.056088 -0.0280058 0.113381
-0.0655832 -0.0374013 0.0572417
-0.0418541 0.0315976 -0.00328177
-0.100726 0.0689514 -0.0363596
0 0 0
0.15113 -0.180712 -0.000380172
0.0795182 -0.0538355 -0.0288642
0 0 0
0.055862 0.0487618 -0.00683675
0 0 0
0 0 0
0.0215151 0.0710199 -0.00104909
0 0 0
-0.050549 -0.00421533 0.0087106
0.0709506 0.0625512 -0.012459
0 0 0
-0.0235053 -0.0362326 0.10659
0.122151 0.0490971 0.0966043
0.0909769 0.115069 -0.0173339
0.054029 -0.000364012 -0.0543236
0 0 0
0 0 0
0.0260454 -0.121896 0.00181462
0 0 0
0 0 0
-0.0503621 -0.00062024 0.0259362
0.0323204 0.000430272 -0.216746
0 0 0
0.243552 -0.0864662 -0.113701
0 0 0
0 0 0
0.0256504 0.00415937 -0.190799
0.0939118 -0.0807304 -0.17591
0.193655 0.056572 0.0870664
0.0437129 0.0867213 0.0675121
-0.099363 0.213872 -0.0908044
0 0 0
-0.184183 -0.232134 0.0491689
-0.0811941 -0.0926665 0.0891406
0 0 0
0 0 0
0 0 0
-0.133641 -0.127408 0.098667
0 0 0
-0.18269 -0.008201 -0.166429
0.0261558 0.342017 0.265588
-0.080086 0.0216993 0.0507054
-0.294901 -0.229349 -0.0526729
0.0629653 0.0442155 -0.0937754
0.088785 -0.0180968 0.0148283
-0.000627835 -0.138467 -0.0203608
0.0902829 0.111872 0.259904
0 0 0
0.139286 0.249462 -0.512255
0 0 0
-0.0315 0.0832404 0.0864364
0.0339988 -0.0346865 -0.00101182
0 0 0
0 0 0
0 0 0
0.0567884 -0.0208363 -0.180104
0.0301229 0.0533555 -0.183891
-0.159277 -0.0156359 -0.240412
-0.00219312 0.0813546 0.126067
0.274221 -0.0853495 -0.123698
0.0245609 -0.125979 -0.158101
-0.180232 -0.443136 -0.0202451
0.0336862 0.220591 0.177029
0.00635658 -0.244117 0.3518
0.219367 0.00410395 -0.0444776
0.0173237 -0.0398147 -0.00171551
0.346462 -0.0635339 -0.0804759
-0.0504588 0.00676985 -0.0808967
0.0440939 -0.0639276 0.0436395
0.0133774 0.00420443 -0.000136713
0.0318333 -0.0273532 0.0157924
0 0 0
0.0681448 0.47265 -0.149954
0.0462496 0.0449827 0.215572
0 0 0
0 0 0
0 0 0
-0.0324645 0.0127308 0.0662107
-0.0748591 -0.00202269 -0.0193867
0 0 0
-0.172395 0.0247171 0.118777
0 0 0
-0.0120694 0.0027094 0.00905075
0.209087 -0.0484868 0.266199
0 0 0
-0.000462861 0.0966075 0.00192683
0.00044382 -0.34492 0.0430433
-0.0426612 -0.0757451 -0.300975
-0.0455242 0.00197432 -0.000150637
0.132032 0.1437 0.025592
0.100871 -0.169443 -0.165926
0.0828116 -0.246445 0.0604466
-0.00581435 -0.223125 -0.0954517
-0.212568 -6.59731e-05 0.166919
0.157421 -0.0174509 0.228143
0.176694 -0.251589 0.274869
-0.0344748 0.0638789 -0.0701007
-0.273796 -0.462368 -0.0875101
0 0 0
0 0 0
0.0840381 0.064562 0.00554967
0 0 0
0.139708 -0.0433724 -0.09247
0 0 0
-0.439931 -0.0821428 -0.15815
-0.06372 -0.0622807 -0.241141
-0.00434546 -0.00884188 0.0214432
0.0127292 -0.0736837 0.0628333
-0.00697045 -0.30914 0.188216
0 0 0
0.177646 0.230297 -0.111698
-0.0412333 -0.133622 0.248038
0.182732 -0.109147 -0.00829965
0.153838 0.0236537 0.0263708
0 0 0
-0.00488732 0.00145888 -0.00459936
-0.0714694 -0.0291942 0.000966942
0.0477639 -0.186897 -0.0804406
0.0776531 -0.055746 0.0270511
0.0584208 0.146632 -0.145495
0.0785693 -0.063056 -0.0866753
0 0 0
0.0148843 0.0118233 0.0310373
0.185388 0.255179 -0.0183854
0 0 0
0 0 0
0 0 0
-0.0108582 0.0289266 0.0971708
0.0597468 -0.00947607 0.0227448
0.0469606 0.09702 0.104857
-0.0403522 -0.124661 -0.099467
-0.133017 -0.539576 -0.413431
-0.13852 0.185338 0.0530693
0 0 0
0.130567 -0.0476184 -0.00541896
0 0 0
-0.194191 0.106185 0.0922604
0.00487819 -0.0395579 -0.0371122
0.0339602 0.0394556 0.00874146
0.00290269 -0.00849517 -0.00498973
-0.128437 0.110354 -0.106547
0.0997075 -0.0476231 -0.0106688
-0.0418662 -0.144072 -0.614195
0.0386503 -0.0345616 -0.0234827
-0.0748135 -0.01978 0.0286739
0 0 0
-0.00945117 0.252244 0.264217
0 0 0
0 0 0
-0.0255711 -0.20881 0.200676
-0.0181348 -0.0413741 -0.068824
0 0 0
0 0 0
0 0 0
0.0258085 0.416899 -0.0513768
0.120945 0.568208 -0.123599
0.0328074 -0.0520002 0.00023101
0.154147 -0.0319519 0.014813
0.10605 -0.191679 0.133605
0 0 0
0.0248685 0.0516957 0.0197847
0.0040932 -0.179959 -0.0215175
0.14168 -0.118589 -0.161514
0 0 0
0.0137945 0.00471367 0.0267405
0.128721 0.0534195 -0.10758
0.000935825 0.105033 0.073351
-0.254584 0.0847313 0.26157
0 0 0
0.047993 0.00184581 0.118102
-0.0698699 0.128009 0.489954
-0.0291442 -0.228882 -0.293704
0.0655305 -0.0389829 0.0107228
0 0 0
0 0 0
-0.118207 0.0524944 -0.0738896
0.19483 0.0506842 -0.00802115
0.0395287 -0.277622 -0.0199954
0.151156 0.407637 0.338708
0.0883693 0.0193567 -0.0773972
0.0532939 0.275943 -0.221285
0.105228 -0.275185 0.0434065
0.100915 -0.0476111 0.0485305
0.000883267 0.0738499 -0.234608
-0.000541764 0.0492977 -0.112318
0.135547 -0.214756 0.0429312
0.00271987 -0.0320646 -0.117567
0 0 0
0.095769 -0.00723431 0.0504748
0.406058 0.299283 0.16865
-0.171335 0.0508795 -0.0850527
0 0 0
-0.189036 0.0608046 0.0165929
-0.298978 -0.190008 -0.031152
0 0 0
-0.312861 0.198804 -0.411267
0 0 0
0.0936764 0.222604 -0.33097
0 0 0
0.0119549 -0.103599 -0.075646
0 0 0
-0.000705102 -0.0849823 0.184102
-0.0641204 -0.260378 0.00691677
0 0 0
-0.202373 -0.101545 -0.163027
0 0 0
0.0194923 0.0308525 0.0656584
0.0399565 -0.0489902 0.000493242
-0.0663358 -0.773987 -0.147102
0 0 0
0 0 0
0 0 0
0 0 0
0 0 0
0 0 0
-0.117981 -0.047689 -0.115118
-0.0141844 0.0121519 -0.145967
0.00811062 -0.00377367 -0.0867711
-0.0770504 0.392178 0.313527
0.000813509 0.0143382 0.0390235
-0.00465964 0.00270458 -0.165173
0 0 0
0.0627041 -0.031662 -0.0333413
0.0282227 -0.0112661 0.0415914
-0.210689 0.000501627 0.101325
0.0118096 0.155721 0.0151893
-0.34536 -0.0696705 -0.168189
-0.0390059 0.224929 -0.196726
0 0 0
0.220158 0.340315 0.124678
0.168647 0.665173 0.0537191
0 0 0
-0.392916 -0.16014 0.0673001
-0.0620919 0.114452 0.178169
-0.0376747 0.191038 0.190501
0.0300239 -0.135099 -0.171271
-0.0420719 0.0686549 0.115511
0 0 0
-0.166406 0.0846752 0.0198952
0 0 0
0.0675936 -0.203475 -0.159576
-0.000248658 -0.115567 -0.0463012
0.038231 0.363257 0.210224
-0.00499301 0.00781171 0.254243
-0.0407119 0.150298 -0.372357
-0.0334638 0.143259 -0.00376776
-0.220246 0.122084 0.121756
0.0287907 -0.0417686 0.139737
0.0682256 0.0121957 0.00140745
-0.111043 0.0175166 0.000135669
0 0 0
0 0 0
0 0 0
0.29063 -0.0519717 0.0822758
0.0760232 -0.0853207 0.0191901
0.257924 -0.258423 -0.528801
0 0 0
-0.0852212 -0.0264534 0.037841
0.0393561 0.0598818 0.0732747
0.0445582 -0.0202411 -0.0569346
-0.00984742 -0.0595019 0.0089077
-0.305432 -0.163611 0.235379
-0.0505142 0.0750017 -0.0607377
-0.27547 -0.0391607 -0.467771
0 0 0
0.055033 0.0812007 -0.00741942
0 0 0
-0.0438439 -0.13809 -0.0200524
0.00758495 -0.271207 0.0515938
-0.0116333 -0.0313155 -0.000264543
0 0 0
0 0 0
0.141812 -0.357175 0.17849
0 0 0
0 0 0
-0.0483985 -0.0985501 0.0574326
-0.00524212 0.0281284 0.0382351
-0.118891 0.0781858 0.0417207
0 0 0
-0.490154 -0.105186 0.472703
-0.301477 0.0107056 0.166292
0 0 0
0.0253837 0.303733 -0.0241722
0.0413884 0.0504267 -0.00591179
0.0472643 0.010976 0.00590933
0.208989 -0.333783 -0.242843
-0.000456492 0.0292939 0.0114388
0.0661107 -0.29386 -0.155562
-0.036037 0.00761925 -0.071648
0 0 0
0.128032 -0.122447 -0.196837
0.186033 0.360385 0.0772225
0 0 0
0.00923733 -0.0297678 -0.0161017
0 0 0
0.0341076 -0.173845 -0.284333
0 0 0
0.0845865 0.101468 0.216357
0.196834 0.10981 0.0689864
0.0348905 0.546184 -0.168733
0 0 0
-0.00558638 -0.0471139 0.252546
-0.0629013 0.0306085 -0.318097
0 0 0
0.015139 -0.122777 0.00306533
0.0256514 0.0191431 0.141203
0 0 0
-0.241828 0.0608932 -0.115462
-0.0763343 -0.0370968 -0.0455439
-0.142072 0.0832697 0.102872
0 0 0
0.205709 0.198973 0.295254
0.526857 -0.161903 0.0694023
0.133733 0.0336908 -0.0245695
0.128117 0.0664747 0.160742
-0.0564682 0.0401263 0.241099
0 0 0
-0.0071187 0.0207902 -0.0468361
0.177457 -0.0322775 0.0905165
0.0950536 0.00176703 0.0501549
0.204593 -0.124974 -0.258219
0 0 0
-0.0999494 0.0466504 0.0650064
-0.414404 0.320124 0.421731
-0.225999 -0.182559 -0.0191405
-0.125399 -0.286023 0.0647282
0.0929196 -0.0239518 0.0113319
0.00108064 -0.121697 0.0399067
-0.420303 -0.797972 0.165811
-0.118711 -0.128916 0.147142
-0.12864 -0.0554179 0.0196463
0.0617615 0.264621 -0.0879415
0 0 0
-0.105331 0.0279888 0.144163
-0.0133326 0.0444587 -0.0565109
-0.0948796 0.382151 -0.0382043
0 0 0
0 0 0
0 0 0
-0.0547252 0.204345 0.249155
0 0 0
-0.0903383 -0.400138 -0.0189531
-0.0446592 0.0479974 0.0657302
0.014615 -0.111464 0.0462288
0.0334484 -0.00265242 -0.0794685
-0.0369639 0.159785 0.173556
0.220027 0.0140224 -0.371065
0 0 0
-0.000663978 -0.000252063 -1.44032e-05
0 0 0
0.0856855 -0.050809 -0.0210254
0.0187089 0.157367 0.0495054
0 0 0
0 0 0
0 0 0
0 0 0
0.0382253 -0.0601947 0.0180958
0 0 0
0.0148029 -5.03483e-05 0.00141484
0 0 0
-0.0249576 -0.0466997 -0.153617
-0.0165947 -0.0760449 -0.0550862
0.00861499 0.350192 0.128196
-0.0961624 0.00170943 -0.0775013
-0.252639 0.0503416 -0.15912
-0.00664543 0.135024 -0.179243
-0.0317291 0.00757003 -0.126543
0.0295599 0.143171 0.022141
0 0 0
-0.097079 -0.124443 -0.275014
0.00408387 0.078435 0.0237117
0.0472103 0.253489 0.0817895
0 0 0
-0.0302017 -0.08873 0.243654
-0.077755 -0.0596794 -0.0804037
-0.0146055 -0.0940554 0.115442
-0.0461441 -0.00843654 0.415501
-0.0321381 0.0198941 -0.00987625
0.00851862 0.079009 0.0720775
0.208413 0.0145772 0.0581775
-0.0251558 0.0566823 0.0561644
0 0 0
-0.0126709 -0.081166 -0.156409
0 0 0
0.166277 0.124359 -0.0755673
0.0710327 0.278604 0.245996
0.337037 0.12164 -0.119528
0.192806 -0.184191 -0.373937
0 0 0
0.00484666 -0.183758 0.125469
0 0 0
0.000137587 -0.065801 -0.0493535
-0.151447 -0.103326 0.178147
0.0064365 -0.0214296 -0.0118505
0.102483 0.00806659 0.314592
0 0 0
0.407331 -0.0760211 0.0338973
0.00360345 -0.0295031 -0.369893
0.129289 0.093779 -0.0384224
-0.122241 0.105402 -0.110787
0.0670454 0.195247 -0.0023341
0.0499572 0.157422 0.00318749
0.110914 0.326311 -0.0884712
0.249353 0.173218 0.186434
0 0 0
0.0552087 0.0284227 -0.125925
0.00287354 -0.229939 0.0663485
-0.062995 0.148673 -0.313563
-0.381182 0.18688 -0.253524
-0.00732947 0.0305399 0.0399317
0 0 0
-0.127169 -0.098833 0.0922596
-0.23833 0.200985 0.0893739
-0.185846 -0.0877746 0.184153
-0.0111648 -0.0279822 -0.0677008
-0.0958155 0.0641255 0.0289589
0.0126919 -0.015877 -0.000292462
0.0114382 -0.0399234 -0.0990747
0.0903287 0.0306423 0.0763948
0.136174 0.220995 -0.0414475
0 0 0
-0.0351819 -0.06288 -0.0641273
-0.276323 -0.330517 0.199606
0 0 0
0.0835673 0.0837635 -0.051898
0.110406 0.066783 -0.0711411
0.0864047 0.216586 -0.145106
0.0308486 -0.0204308 0.102786
0 0 0
-0.0905814 0.162504 0.0451078
0.136351 0.172129 -0.168788
0.0912776 0.317685 -0.0119788
0 0 0
-0.195429 0.933531 0.0666278
0 0 0
0.168852 -0.272172 -0.11233
0 0 0
-0.0533097 -0.382404 0.0979659
-0.00912025 0.00298919 -0.00470706
-0.0557766 0.0663885 -0.0856836
-0.211783 -0.206844 -0.236697
0.00254084 0.109904 0.155352
-0.115306 0.0317915 -0.00862668
-0.0729771 -0.00734799 0.10228
-0.488755 0.326427 -0.0810422
-0.0603658 0.0336965 -0.0599059
-0.465734 -0.130284 0.226623
-0.0365451 -0.0138062 0.0192291
0.101472 -0.13009 0.178987
0.0502539 -0.150456 -0.116401
0.123219 -0.135181 -0.0979684
-0.0799638 -0.0492782 0.121755
0 0 0
0 0 0
0.0865575 0.0691818 0.213693
0 0 0
-0.161894 -0.095788 0.165848
-0.264996 0.464588 -0.0071424
0 0 0
0.120773 0.0819965 0.00287639
0 0 0
0.0113261 0.0473174 -0.00510057
0.109228 0.139942 0.394741
0 0 0
-0.112691 -0.185182 0.0964405
0 0 0
0 0 0
0.045405 -0.0158453 -0.0481049
0.205262 0.113016 0.0826841
-0.00164469 -0.342003 -0.0548421
-0.0388815 -0.150061 0.065418
-0.0326884 0.0491421 0.0746824
0.483974 -0.0316558 -0.347997
0.32267 0.23909 0.0904932
-0.00126742 -0.106339 0.174453
0.0116271 -0.0275767 0.0864548
0 0 0
-0.00746942 0.0255154 0.040455
0 0 0
0.163552 0.0141254 0.0360485
-0.0310643 0.0185229 0.17752
0.0107104 0.0808779 0.009331
-0.051661 -0.0098729 -0.0754311
0.0124467 -0.0128624 -0.0589388
-0.112882 0.359106 -0.403345
0 0 0
-0.152655 -0.119643 0.396313
0.0316034 -0.0990922 -0.00862436
0.0409923 -0.0229273 -0.0147034
0.00850031 -0.177356 -0.0869949
0 0 0
0.104492 0.15108 0.237582
0 0 0
0 0 0
0 0 0
-0.19251 -0.286597 0.042756
0 0 0
0.00306008 -0.159525 -0.317651
0 0 0
0.0749594 -0.240913 0.357881
0 0 0
0.136294 -0.333173 0.0621361
0 0 0
-0.00190728 -0.0794969 0.334804
0.220834 0.0471005 0.190801
0.0380331 0.0175152 -0.132573
-0.117187 0.287987 -0.00340639
0.0189225 0.00654915 0.064779
0 0 0
0.152487 0.0989973 0.266591
0.35056 -0.0558298 0.0709096
0.0386148 0.0110421 0.0944741
0.113615 0.188456 -0.0294088
0.108393 0.0925947 0.0141644
-0.138982 -0.157446 0.151474
0 0 0
0.126796 -0.0834897 -0.278397
0.0329344 0.0160459 -0.0143682
0.261054 0.141183 0.000525424
0.0464273 -0.0439799 -0.0824592
-0.41726 0.0406438 -0.211981
-0.216003 0.337487 0.237363
-0.285092 -0.135933 -0.130426
-0.243677 0.0655123 -0.0878363
-0.0888554 0.086336 0.0219369
-0.257475 -0.805685 -0.378749
0 0 0
0.0525231 0.0165306 0.0108598
-0.0733625 -0.0915047 -0.0388559
-0.235327 -0.0427219 0.0306171
0.257447 0.0763242 0.162559
-0.310538 -0.267664 -0.0433594
-0.00271844 -0.0568551 0.114592
-0.123755 -0.000471444 -0.112127
-0.0580376 0.0178565 0.0069191
-0.0559787 0.0536173 -0.13479
-0.317388 0.372883 -0.432506
0.0280967 0.161367 -0.0840866
0.103766 -0.0437964 0.000139086
-0.201657 0.0585233 0.0330552
0 0 0
-0.245761 -0.00645937 0.154841
0 0 0
0 0 0
0.0986403 0.0588631 0.0306378
-0.479416 0.060278 0.0113877
0.00452505 -0.0885525 0.0375295
0.146324 -0.0732646 -0.15141
0.147898 -0.131536 0.268413
0.0317801 0.027568 0.121274
0.163369 0.114106 -0.283438
0.078878 -0.2495 0.0260647
0.026996 -0.0286612 0.0227712
0.00243621 0.106827 0.0767798
-0.0442481 0.0102889 -0.0366125
-0.260216 -0.0528149 -0.0154631
-0.10223 -0.0496465 0.019303
-0.0429651 -0.0626852 0.118103
-0.0192149 -0.235766 0.00420112
-0.0761183 0.145175 0.0371587
-0.0807964 0.275059 0.592128
0.0321533 -0.0636347 0.0577241
0.0310156 0.204183 -0.24865
-0.006281 -0.0886497 -0.153621
0 0 0
0 0 0
0 0 0
0 0 0
0.0613157 0.0720208 0.0395191
0 0 0
0 0 0
-0.158883 -0.124962 -0.208657
-0.204563 -0.0297898 -0.0306637
-0.00199906 -0.0347708 -0.1716
-0.255337 0.0868627 0.170331
-0.0304459 0.0387698 -0.0105837
-0.200135 -0.412116 -0.0905497
0 0 0
0.306605 0.0590611 0.167726
0.0956854 -0.0796382 0.012834
0.171137 -0.0567409 0.148442
0 0 0
0.0372941 -0.0518807 0.040875
-0.40497 -0.118848 -0.195423
-0.415005 0.122792 0.196113
-0.47234 0.323829 -0.0606298
-0.149047 0.163119 -0.137473
-0.00910907 0.0997437 -0.138544
-0.0941949 0.0484889 -0.0850981
0 0 0
-0.106121 -0.427319 -0.0888107
0 0 0
-0.132862 0.0676779 -0.106561
-0.172941 -0.125253 0.0516945
0 0 0
-0.0298519 -0.166403 0.129198
0.0596895 0.0795221 -0.00308958
0 0 0
0.372934 -0.393591 -0.253671
-0.150898 0.102986 0.214963
0.000872185 -0.0461998 -0.0423131
-0.0784896 0.158909 -0.0232582
-0.193827 -0.0916393 -0.217783
-0.0838766 -0.115889 0.148966
0 0 0
-0.202604 0.13356 0.165305
-0.013977 -0.00565698 -0.0221337
-0.0673495 -0.0422773 0.124863
0 0 0
-0.27305 0.0416597 0.328534
0.0862444 0.0872622 0.139662
-0.211237 0.0629368 -0.0765087
-0.45755 0.270131 0.0982082
-0.133323 -0.0882196 0.059029
-0.295165 -0.162905 -0.124426
0 0 0
-0.0185563 0.058009 0.0981401
0.0876146 0.0596447 0.000948126
-0.193205 0.0165079 -0.0281348
-0.0674257 0.151029 -0.0853616
0.0638772 0.0840449 -0.14576
0.0112555 -0.106835 0.339362
0 0 0
0.184488 -0.109087 -0.427564
0 0 0
0.00728938 -0.00372822 0.0314407
0 0 0
0.00152517 -0.0353632 -0.0479658
0.014814 -0.134939 -0.0774186
0.0716762 0.0747896 -0.201132
-0.0238054 0.016949 -0.0119648
-0.0426065 0.189633 -0.0231363
-0.00467456 -0.0490514 0.0260679
0 0 0
0.129077 -0.163114 -0.252229
0.0939062 -0.322799 0.0760682
0 0 0
-0.341963 -0.263998 -0.130841
-0.0082551 -0.0257422 -0.0502581
-0.234556 -0.0894897 -0.152
0.0866832 0.14848 0.0954746
0.175816 0.0616182 0.210912
0 0 0
0.0346515 -0.411266 0.105385
-0.0443331 -0.0747082 -0.114135
-0.0177908 -0.0644307 0.0705456
0.351031 -0.015609 -0.182146
0.0329285 -0.0207766 -0.0366765
0.168021 0.547297 0.0293496
0 0 0
0 0 0
-0.283681 0.332394 -0.234279
-0.108092 -0.111056 0.0956686
0.163598 -0.0281152 -0.0205238
-0.0113031 -0.0184667 -0.117992
0.00722481 -0.127329 0.11121
-0.234824 0.209506 -0.425565
0.140901 0.25726 -0.250623
0.0772185 0.0911232 0.0915074
0.313936 -0.101084 -0.098882
0 0 0
0.226267 0.351958 -0.401422
-0.0343393 0.271402 0.0847976
-0.147702 0.252862 -0.0792562
-0.000482764 -0.00889004 0.0541601
0 0 0
-0.220628 0.0724268 0.114497
-0.0625762 -0.0749374 0.123335
0.0689845 0.0248395 0.00272463
0.155444 -0.0643361 0.181013
0.0487453 -0.3188 0.0764857
0 0 0
0.0266448 0.149324 0.326996
0 0 0
-0.0317025 -0.131049 -0.219832
0 0 0
0.0261638 -0.0265298 0.0476077
0 0 0
-0.233046 -0.208295 -0.0908884
-0.0840429 0.0277354 0.0656018
-0.338698 0.630112 -0.0423827
0 0 0
0.00183667 -0.00411094 -0.0104741
0.161486 0.0727777 0.0866842
0.161742 0.312065 0.194448
0.0863903 0.00342794 -0.357939
0.315431 0.257552 -0.155389
0.0141471 -0.15495 -0.110989
0 0 0
0 0 0
0.100569 -0.0731713 -0.209974
-0.260565 -0.105644 0.0749424
-0.117385 -0.0621063 -0.00615554
-0.0928901 0.460059 -0.0593409
0.146692 -0.0200469 -0.177931
0.0924413 0.0588797 -0.190781
0.000179724 0.0507602 -0.0973054
-0.0670637 0.458799 -0.0540355
0.0642062 0.418359 -0.490371
0.0232299 -0.0430558 -0.0342387
-0.0451084 0.119018 -0.125452
0 0 0
-0.234007 -0.370898 -0.180216
-0.353229 0.256291 -0.16168
-0.433471 0.0881178 0.0591798
0 0 0
-0.283292 0.00448714 0.00130983
0 0 0
-0.134754 0.113085 -0.12313
-0.427864 -0.0832407 -0.00907054
-0.0148253 0.0332863 0.107229
0.0856421 0.137741 0.0793841
-0.399851 0.0268771 -0.115573
-0.0840646 0.0713377 0.0225442
-0.265304 0.359729 -0.0935017
-0.110298 0.0306093 0.0473832
0 0 0
0 0 0
-0.0273545 0.216093 -0.284248
0.00679803 0.00626242 0.0679615
-0.0810878 0.315679 -0.0518992
0.221373 -0.0498412 0.104798
0.37869 0.316557 -0.447914
0.252834 -0.179022 0.102159
0.397267 -0.0323557 -0.0501325
0.0192889 -0.0994522 0.0672277
0.148975 0.0183476 0.000618771
0 0 0
0 0 0
0.489789 0.469534 0.478387
0.152108 0.189637 0.206069
0.182326 0.0226504 0.126306
0.273801 -0.0741243 0.0348645
-0.0239471 -0.0989559 0.0276432
0.0750219 -0.0757805 -0.323919
0.0245591 0.019932 0.0117895
0 0 0
0.125782 -0.034265 -0.0855181
0.15514 -0.196016 -0.0355648
-0.0135826 -0.0161532 -0.0619537
-0.0906081 -0.0493559 -0.19763
0 0 0
-0.254206 -0.252883 0.0536447
-0.384268 0.0313433 0.226287
-0.26313 -0.074104 0.157544
-0.211017 -0.276751 0.325402
0.00200955 0.216418 -0.0855359
0.124525 0.0408609 -0.277277
0.271029 0.101302 -0.0327105
-0.0371857 -0.12814 0.056152
0 0 0
0.206641 0.13529 0.237497
-0.00559232 0.50792 0.340107
0 0 0
0.383557 -0.303056 -0.194202
0.0373505 -0.0140145 -0.0378127
0.40404 0.187736 0.0198019
0.0819051 -0.0897673 -0.0426659
0 0 0
-0.0129638 -0.000537883 -0.0221021
0.00393335 -0.00162349 0.00619423
0.0738754 0.109997 0.0405349
0 0 0
0.00276466 0.435295 -0.0110374
0 0 0
0.131242 -0.0878825 0.032537
0 0 0
-0.0498028 0.0262183 0.00482285
0 0 0
-0.0658283 -0.0166702 0.000662066
0 0 0
0.0917595 -0.114588 -0.511533
0 0 0
0.199565 0.0146127 0.0655251
0.332578 0.0396484 -0.105363
0 0 0
0 0 0
-0.028649 -0.130117 0.0792561
0 0 0
0 0 0
0.026805 0.156471 0.17227
0.00184762 0.168124 -0.316354
-0.236137 0.201038 -0.103098
0.133412 0.050568 -0.260443
0.0206066 0.030822 -0.0954452
0.252171 -0.152678 -0.0738479
0.232317 0.00318206 -0.176239
0.0657132 0.26892 -0.214805
0 0 0
0 0 0
0.0750774 0.0208954 0.00118138
-0.128152 -0.0832637 -0.101411
0.0701622 0.0487584 -0.174681
-0.0733154 -0.00397378 -0.397858
0.0204512 0.0350842 -0.0185765
-0.156025 0.363122 0.0168408
0.000123066 -0.028419 0.00768315
0.0408264 0.136007 -0.04524
0.0401588 0.0229053 0.185089
-0.0608504 -0.10811 -0.144081
-0.151072 -0.0500704 0.0637816
-0.0456223 0.0193352 -0.00317966
-0.0287835 0.154664 -0.132955
-0.0883737 0.026776 -0.0543995
0 0 0
-0.128339 0.0614857 0.0447355
-0.000667219 -0.0136352 -0.0418102
0.11442 0.0682088 -0.0591947
0 0 0
-0.0310888 0.411896 -0.271612
-0.0379284 0.0641744 -0.113383
0.0423562 -0.0673547 -0.0632771
-0.000507604 0.0487379 -0.0871828
0 0 0
-0.19045 0.273366 -0.235753
0 0 0
-0.324176 -0.190099 -0.00692351
-0.00480029 -0.195256 -0.088323
0 0 0
0.338127 -0.00244614 -0.0912181
0 0 0
0.0953279 0.0811451 0.0806946
0 0 0
-0.0911025 -0.0995287 -0.0484647
0.0276537 0.264298 0.011477
-0.0263588 -0.0420226 0.18329
-0.133576 0.333578 0.0255614
0 0 0
0.238856 0.299569 0.225382
0 0 0
0.0866445 0.0421925 -0.0923385
-0.176431 0.550616 0.252911
0 0 0
0 0 0
-0.0406612 0.385199 -0.060608
-0.0810265 0.459783 0.12438
-0.0112666 0.00264591 0.00698981
-0.236597 0.263264 0.032478
-0.14421 -0.0673995 0.0634975
-0.106811 -0.127246 0.414978
-0.292394 0.123491 0.118269
-0.29769 0.213587 0.339237
0.0233787 0.221473 -0.216353
0.150746 0.111926 -0.0338878
0 0 0
-0.0502029 -0.102507 0.126409
0.0983043 0.261872 -0.308646
0.00201089 -0.122309 -0.00208476
0.0245208 -0.0509177 0.0329103
0.0699476 0.00889836 -0.214717
0.0383504 -0.146706 -0.28231
0.00284235 0.100581 -0.382127
-0.0009585 0.124224 -0.0939003
0.0524963 0.0280441 0.181145
-0.0822912 0.0431726 0.270325
-0.0521817 0.0707476 0.00318391
-0.068955 -0.00354251 -0.0498742
-0.129391 -0.106256 0.148288
0.167931 0.381905 -0.205505
0.0150931 0.0341796 0.0101114
0 0 0
-0.0166173 0.0307292 0.0489912
-0.134604 0.011107 0.0650716
-0.0972022 0.136491 0.523684
0 0 0
0 0 0
-0.248099 0.179923 0.316342
-0.0129539 0.0422925 0.0597585
0.199042 0.355281 -0.014512
0 0 0
0.000838327 -0.0455559 0.000106264
0 0 0
0.28877 0.251845 -0.038829
0.181406 0.163421 0.195169
0.139835 -0.109856 0.32675
-0.0159533 -0.145437 -0.00028963
0.197545 0.0827643 -0.0940319
-0.00309159 -0.00182743 0.0034886
0 0 0
-0.217808 0.175701 -0.0924882
-0.0182588 -0.245129 -0.15911
0.274927 0.145319 0.164501
0.0449021 0.00179973 0.0434787
-0.0616566 0.0089365 -0.0584386
0 0 0
-0.012426 0.369483 0.319201
0 0 0
-0.21265 0.00890225 0.022872
-0.0888654 -0.0179209 0.1668
0.276131 -0.016655 0.128811
-0.171989 -0.288779 -0.289946
0.0879731 0.0146392 -0.00477537
0.0734352 0.0483797 -0.191602
0.152804 0.0101468 -0.239566
-0.000438947 0.0630628 0.0115331
0 0 0
0.133893 -0.00184931 0.0119054
0.0213769 -0.037501 0.0953193
0.182089 0.118658 -0.0611832
0.226221 0.302534 0.0742281
0 0 0
-0.03058 0.0211504 0.0018803
-0.233473 -0.156851 -0.0989568
-0.0599854 -0.331221 -0.227637
-0.0801377 -0.00197376 -0.157842
0.0597755 -0.0850339 0.0832205
0 0 0
-0.0562336 -0.137122 0.233615
0.190947 0.130803 0.182914
0 0 0
0 0 0
0 0 0
0 0 0
0 0 0
0 0 0
0 0 0
0 0 0
0 0 0
0 0 0
0 0 0
0 0 0
0 0 0
0 0 0
0 0 0
0 0 0
0 0 0
0 0 0
0 0 0
0 0 0
0 0 0
0 0 0
0 0 0
0 0 0
0 0 0
0 0 0
0 0 0
0 0 0
0 0 0
0 0 0
0 0 0
0 0 0
0 0 0
0 0 0
0 0 0
0 0 0
0 0 0
0 0 0
0 0 0
0 0 0
0 0 0
0 0 0
0 0 0
0 0 0
0 0 0
0 0 0
0 0 0
0 0 0
0 0 0
0 0 0
0 0 0
0 0 0
0 0 0
0 0 0
0 0 0
0 0 0
0 0 0
0 0 0
0 0 0
0 0 0
0 0 0
0 0 0
0 0 0
0 0 0
0.0230007 0.0453251 -0.034209
0.0405175 -0.0334274 -0.00566848
0 0 0
-0.0368987 -0.0590638 -0.0567458
0.096131 -0.0968916 -0.0678149
0 0 0
0.301851 0.0119085 0.0746517
-0.0686358 0.110106 0.271675
-0.0312197 -0.0634622 -0.279914
0.0369926 0.00624653 -0.0603352
-0.00179736 -0.0081867 -0.00265137
-0.0562675 0.0508854 0.0161712
0.00166763 0.04544 0.058137
0 0 0
-0.018617 0.128529 -0.045823
0.0178462 0.108151 -0.0447267
0.0270384 -0.0595961 0.115831
-0.0308429 -0.0893225 -0.0506625
0.0281677 -0.0312114 -0.0407944
0.106181 -0.0204327 0.0547771
0.0263326 0.0994785 -0.0973558
0 0 0
-0.0757118 0.00358602 0.0459605
-0.0298714 -0.263418 0.0298179
-0.0129866 0.152701 0.0258975
0.307404 -0.00406321 0.19007
0 0 0
0.0155246 -0.0297792 -0.0510912
-0.152946 0.101851 0.0379669
0 0 0
0.0500858 -0.180639 -0.0538921
-0.0569587 0.0223774 -0.140222
0.0666257 0.112904 0.0168069
0.0525499 -0.0560858 0.0792458
0 0 0
0.00155127 0.00412954 0.0419136
-0.0445818 0.0434383 -0.0244947
0 0 0
0.00383647 -0.00239695 0.106765
-0.0119974 -0.0624822 0.363147
0.0255281 0.0246007 -0.367683
0 0 0
0 0 0
0.0324806 0.00589587 -0.0436147
-0.144889 -0.00489522 -0.130528
0 0 0
0.0286763 -0.0753447 0.0329192
2.24061e-05 -0.00235385 -0.00193093
0.0384956 0.00540051 -0.0605303
-0.0421605 0.0296331 0.0528885
-0.0250455 -0.0360229 -0.0189577
-0.151578 0.0320963 0.151773
-0.132384 -0.153347 -0.0515494
0 0 0
0.0982678 -0.000749923 0.00711906
0.0839714 0.156047 -0.0133137
0.0268988 -0.0906213 0.0617544
-0.268827 -0.0113836 -0.0389411
0 0 0
0.0453693 -0.00885966 0.0297808
0.0374336 -0.000968646 0.0416305
0 0 0
0.00174955 0.0380975 -0.0401125
0.134626 -0.0720251 0.100776
0.0449597 0.178705 -0.0825511
-0.324609 0.0611259 0.0574327
0 0 0
0.00316174 0.381649 -0.154557
0.0387773 -0.0465522 -0.0111304
0.161061 -0.0456656 -0.330524
0.121774 0.247598 -0.0939925
0.0532313 0.350067 0.269689
0.0577643 0.0140642 -0.266184
0.0473893 0.103676 -0.213329
-0.0308948 0.174422 -0.256741
0.173866 -0.138993 -0.183553
0.0733449 0.127816 0.266483
-0.018269 -0.0456691 -0.0955097
-0.0858563 0.312466 -0.117239
0.0189361 -0.234425 0.265398
0.00172811 -0.0307151 0.151331
-0.112302 -0.246103 0.0617306
0.00236691 0.00519926 -0.183407
0.0282952 -0.00633758 -0.0757383
-0.000256822 -0.065742 0.0783499
0.343879 0.0737157 -0.096004
0.00216671 -0.17254 -0.0676163
-0.0885628 0.0611665 -0.133672
-0.196045 0.0254779 0.289516
0.116037 0.162838 0.0940903
-0.0774862 -0.212015 -0.147098
-0.15115 -0.0602105 -0.231433
0.359729 0.091242 -0.213865
0.00229435 0.0062108 -0.0267814
-0.112511 0.094484 0.0630104
0.014625 -0.137903 0.119897
-0.257217 0.202998 -0.133091
-0.0180145 0.0216313 -0.00023227
0 0 0
0.0642229 0.0265104 -0.236605
-0.123084 0.151992 0.160018
-0.103197 0.0494592 0.246092
-0.175003 -0.02343 0.274001
-0.307705 -0.121302 0.0732713
-0.388632 -0.176628 0.0128595
0.234564 0.0902674 -0.018461
0.0474199 0.0444878 -0.0395057
0 0 0
0.0546515 0.129919 -0.369734
0.000164629 -0.0316664 -0.154889
0 0 0
-0.11401 -0.189622 0.424167
-0.0607137 0.0266374 0.0332097
-0.108813 0.0354622 0.1206
-0.0098561 0.00646051 0.0225303
0.116928 -0.268061 -0.281551
0.0571576 -0.099712 -0.0132016
-0.178846 -0.305618 0.0448343
0 0 0
-0.142343 -0.0132407 -0.294802
0 0 0
-0.0492634 -0.112864 0.183115
0 0 0
0 0 0
0.116437 0.265752 0.0766729
0.23213 -0.237574 0.00843104
0.0790809 -0.101503 0.122045
-0.184196 0.275453 0.206527
0 0 0
0.164976 -0.0550514 -0.350097
0 0 0
0.341089 -0.0688297 0.106939
0.106912 -0.0751677 0.154254
0.0509731 -0.185062 0.0920468
0.0538377 -0.152817 0.1805
0.0298149 0.0214119 -0.000768822
0.162712 -0.375785 -0.133935
0 0 0
-0.387915 -0.0639807 0.0956785
0.0430707 0.075056 0.0274164
-0.356887 0.16 -0.297775
0.126514 -0.0375631 -2.49687e-05
0 0 0
0 0 0
-0.0194367 -0.0152466 -0.00813184
-0.0154312 0.00429954 -0.0143076
0.0219914 -0.239259 0.0757907
0.0643085 -0.174259 -0.0180187
0 0 0
0.0721744 -0.12658 -0.172732
-0.14514 -0.0216065 -0.0467113
-0.0694659 0.0989043 0.00680436
-0.0330232 0.144345 -0.13354
0.0414426 0.0869262 -0.00275365
0 0 0
0.0145708 0.0144464 0.00170045
0.105702 -0.0850194 0.0221144
0.0753417 -0.121587 -0.0441143
-0.00569671 0.124596 0.0829307
0.0614159 0.156849 -0.0940657
-0.310562 -0.0738087 -0.206603
-0.501112 -0.0699713 -0.191713
0 0 0
0.00433443 0.0219804 0.00141582
0 0 0
0.479606 -0.202775 0.118251
0 0 0
0.192687 -0.228881 -0.27655
0.0776322 0.00150474 0.0905959
0.0646877 0.165252 0.169727
-0.0803521 -0.203117 -0.136866
-0.114773 -0.0715022 -0.141363
-0.019171 -0.0720848 -0.176389
0 0 0
-0.183103 0.24969 0.225259
-0.00679201 -0.000319211 -0.00921941
-0.359912 0.230918 0.137586
-0.318983 -0.370625 0.00467261
0 0 0
-0.179301 -0.567382 0.0698847
-0.0876313 0.0244013 -0.0133
0 0 0
0 0 0
-0.0880248 -0.2226 -0.368282
0 0 0
0 0 0