<?xml version="1.0"?>
<VTKFile type="RectilinearGrid">
<RectilinearGrid WholeExtent="0 32 0 32 0 32" Origin="0 0 0" Spacing="1 1 1">
<Piece Extent="0 32 0 32 0 32">
<PointData>
</PointData>
<Coordinates>
<DataArray type="Float32" format="ascii">
0 0.524874 1.04975 1.57462 2.0995 2.62437 3.14924 3.67412 4.19899 4.72386 5.24874 5.77361 6.29849 6.82336 7.34823 7.87311 8.39798 8.92285 9.44773 9.9726 10.4975 11.0224 11.5472 12.0721 12.597 13.1218 13.6467 14.1716 14.6965 15.2213 15.7462 16.2711 16.796 
</DataArray>
<DataArray type="Float32" format="ascii">
-5.03879 -3.62163 -2.20447 -0.787311 0.629849 2.04701 3.46417 4.88133 6.29849 7.71565 9.1328 10.55 11.9671 13.3843 14.8014 16.2186 17.6358 19.0529 20.4701 21.8872 23.3044 24.7216 26.1387 27.5559 28.973 30.3902 31.8074 33.2245 34.6417 36.0588 37.476 38.8931 40.3103 
</DataArray>
<DataArray type="Float32" format="ascii">
0 0.524874 1.04975 1.57462 2.0995 2.62437 3.14924 3.67412 4.19899 4.72386 5.24874 5.77361 6.29849 6.82336 7.34823 7.87311 8.39798 8.92285 9.44773 9.9726 10.4975 11.0224 11.5472 12.0721 12.597 13.1218 13.6467 14.1716 14.6965 15.2213 15.7462 16.2711 16.796 
</DataArray>
</Coordinates>
<CellData>
<DataArray type="Float32" Name="Vector" NumberOfComponents="3" format="ascii">
0 0 0
0 0 0
0 0 0
0 0 0
0 0 0
0 0 0
0 0 0
0 0 0
0 0 0
0 0 0
0 0 0
0 0 0
0 0 0
0 0 0
0 0 0
0 0 0
0 0 0
0 0 0
0 0 0
0 0 0
0 0 0
0 0 0
0 0 0
0 0 0
0 0 0
0 0 0
0 0 0
0 0 0
0 0 0
0 0 0
0 0 0
0 0 0
0 0 0
0 0 0
0 0 0
0 0 0
0 0 0
0 0 0
0 0 0
0 0 0
0 0 0
0 0 0
0 0 0
0 0 0
0 0 0
0 0 0
0 0 0
0 0 0
0 0 0
0 0 0
0 0 0
0 0 0
0 0 0
0 0 0
0 0 0
0 0 0
0 0 0
0 0 0
0 0 0
0 0 0
0 0 0
0 0 0
0 0 0
0 0 0
0.00805102 -0.124771 0.104446
-0.0468237 -0.0286199 -0.0246721
0 0 0
-0.0404772 0.0268405 -0.0304757
0.0460307 -0.0145284 -0.030503
0 0 0
-0.00680219 0.0527716 -7.0134e-05
0.016518 -0.201761 -0.229846
-0.0458721 0.0256111 0.139579
-0.132895 -0.00582008 0.039926
0 0 0
-0.065402 -0.0430864 -0.0270701
-0.148926 0.0761942 -0.0714647
0 0 0
-0.162808 -0.024661 0.0049047
-0.0295795 0.0144926 -0.0160946
0.0339785 -0.12047 0.0441188
0.0217211 0.0605957 0.0405299
0 0 0
-0.151709 -0.072368 -0.0331131
-0.0236521 -0.167731 -0.0590559
0 0 0
0.10458 -0.288235 0.000189174
-0.087333 0.0923149 0.0560901
-0.0339543 0.0996977 0.0556057
0.160248 -0.264726 0.12862
0 0 0
0.0514997 0.0366596 0.0970927
-0.185602 0.0605696 -0.0224034
0 0 0
0.014597 -0.289516 -0.141008
-0.0955132 0.030766 -0.105567
-0.194795 0.0840366 0.276077
0.0339619 -0.0842129 -0.0352293
-0.0187251 0.00623 -0.0127217
-0.151852 -0.077053 0.0823595
-0.0288632 -0.107928 0.00156809
0 0 0
0.295415 -0.205515 0.00426409
-0.0906029 -0.0545815 0.043506
-0.0455019 -0.0306065 0.0895676
0.261551 0.0186831 -0.00271457
0 0 0
-0.0504134 0.0144653 0.0495043
0.0775186 0.0271214 -0.0419822
0 0 0
0.0312525 0.0123382 0.0345639
-0.0740847 -0.00639178 -0.0596497
-0.0871533 0.268363 0.0544818
0 0 0
0 0 0
-0.0713223 0.167587 0.00427413
0.0632762 0.0048517 0.0896645
0.00187291 0.00125921 0.00655359
0.300457 0.130345 0.0835818
-0.104045 0.0505304 -0.0166159
-0.0968551 0.00846655 -0.0205125
-0.0267566 0.0716157 0.000949722
0 0 0
0 0 0
0.0257146 -0.156397 0.000986722
0 0 0
-0.00136143 -0.0778496 0.0653819
-0.223429 0.146528 -0.208406
0.0652317 -0.561489 -0.0558499
0.152316 -0.309686 0.0891967
0.0243315 0.0118879 -0.126658
0.0351916 -0.134598 0.117808
0.0160228 -0.439133 0.0461821
0 0 0
-0.192197 0.22158 -0.00018176
-0.00478263 0.0041434 0.0020183
-0.0624297 -0.419178 -0.119327
0 0 0
0 0 0
0.0933059 0.0919003 -0.112151
0 0 0
0.053687 -0.0978883 -0.182027
0.0444751 -0.00788261 0.0401207
0.150051 -0.15223 0.125428
0 0 0
0.209255 0.00656489 -0.00767831
0.0153315 0.00851625 0.0639216
0.137967 0.16563 0.262222
-0.148208 0.155524 0.325049
0.112762 -0.259897 -0.0368595
0.0469766 0.442045 0.0294087
-0.00200522 0.219453 -0.0485587
-0.0950553 -0.147229 0.071324
0.00295421 0.0879269 0.176004
-0.274287 0.0295009 -0.340845
-0.123107 -0.00956136 -0.106608
0.0626897 0.0204065 -0.169086
0.0143202 0.0302031 -0.00388586
0 0 0
0.238468 -0.146322 0.155894
0 0 0
0.134177 -0.216299 -1.85858e-05
0 0 0
-0.0971512 0.225459 -0.251072
-0.309733 -0.158597 0.0947821
0.00375386 -0.349835 -0.0039701
0.0995748 -0.253602 -0.0799102
0 0 0
-0.195848 -0.457985 -0.196698
0 0 0
-0.273994 0.223834 -0.127021
0 0 0
-0.0355691 0.383311 -0.0688379
-0.177689 0.170158 0.311353
0.0366042 -0.122529 -0.103559
0 0 0
0.150689 0.0804389 -0.310118
0.0131576 -0.0941848 0.126829
0.0247344 0.190713 -0.0702636
-0.335375 0.109841 0.274536
-0.189273 -0.0178778 -0.197401
0 0 0
0.018624 -0.0360615 0.0133637
0.546698 -0.512298 0.0553782
0.519749 0.236908 -0.0954911
0.530383 0.127279 -0.102048
0 0 0
0 0 0
-0.0536996 0.233221 -0.00100692
0 0 0
0 0 0
-0.0802324 -0.283049 -0.245146
-0.0342164 -0.414688 -0.128932
-0.018332 0.00655802 -0.026042
0 0 0
0 0 0
0 0 0
-0.103466 0.0543475 0.12243
0 0 0
0 0 0
-0.117067 0.0621586 0.0771043
0.161331 -0.0920311 -0.0598262
-0.000792 -0.0227822 -0.00877896
-0.119016 0.20902 -0.0347952
-0.0447725 0.116219 0.0343405
0.254774 0.000958139 0.155253
0.0612126 -0.0582372 -0.121231
-0.110366 -0.0939389 -0.453472
0 0 0
-0.484895 0.121915 0.224033
-0.0117232 -0.0767511 0.0390525
-0.110104 0.122188 0.0481977
0 0 0
-0.188604 0.0802929 0.0508901
0.0195824 -0.145877 0.0744076
-0.138614 -0.468568 0.39423
-0.00911075 0.00188197 -0.0757766
-0.205767 -0.0226371 0.15539
0 0 0
0 0 0
0 0 0
0 0 0
-0.0647284 -0.192017 0.0580788
0.212353 -0.158245 -0.168601
-0.234259 -0.2377 0.0664206
-0.0677035 -0.00728932 0.298311
-0.384204 -0.0583606 -0.254478
0 0 0
-0.14992 -0.253868 0.00223483
0 0 0
0.0233059 -0.00833892 -0.0165569
0.124837 -0.023031 0.0129788
0 0 0
0.0299192 -0.00219374 -0.000390404
0 0 0
-0.0119098 0.114925 -0.00124411
0.0526858 -0.0277855 -0.00570878
0 0 0
0.192984 0.115237 -0.000532719
0.0675467 0.0633329 0.0349812
0 0 0
-0.0255832 -0.265756 0.0295435
-0.206822 0.285558 -0.302977
0 0 0
0.198279 0.516921 -0.0950136
0.0119389 0.0618717 0.018101
0.171905 -0.0466871 0.0285307
0.174927 -0.540452 0.41043
0 0 0
0 0 0
0.00678043 0.0540252 -0.233541
0.114127 0.211249 0.299392
0.0875655 0.0716361 0.466192
0.16345 -0.134868 -0.0550518
0.150454 -0.142282 0.0514745
0 0 0
0.157388 -0.017414 3.62285e-05
0.0654577 0.0133236 0.0184659
0.291116 -0.181039 0.0459636
-0.000233448 -0.0868555 0.0788143
0 0 0
0 0 0
-0.0328711 -0.0983128 0.083874
0 0 0
-0.0132654 -0.030017 0.123038
0.0223248 -0.0276425 -0.0555738
-0.0301629 -0.0456004 0.158078
-0.255368 0.165481 0.0844142
-0.40244 0.729349 0.347665
-0.00395902 0.0308057 -0.0107083
0 0 0
-0.0670495 0.214257 -0.132147
0 0 0
-0.0032894 -0.0035435 0.15435
0 0 0
-0.0245071 0.155713 -0.0784702
0 0 0
-0.217731 -0.0122508 -0.102988
-0.466579 -0.0795866 0.123528
-0.0296495 0.0227238 -0.0276485
-0.0107992 0.00550821 -0.01257
0.0596817 0.622401 -0.250488
-0.0230342 0.0224486 -0.0783903
0.00609818 0.00631975 0.000382937
0.0349792 -0.00907405 -0.00431452
0.187969 -0.445774 0.0953241
0.113937 0.0201669 0.0584669
0 0 0
0 0 0
-0.279533 0.120144 -0.0920551
-0.0458116 -0.0199201 -0.0698549
0.074304 -0.419789 0.0223946
0 0 0
0.0759289 -0.0707388 -0.0548519
0 0 0
0 0 0
0.241766 -0.266397 -0.00073095
0.31812 -0.440173 0.365663
-0.168103 0.0778662 -0.0366865
0.230325 0.188008 -0.10688
0.141251 0.213386 0.426887
0.029885 0.343754 -0.0321193
0.0360224 0.128829 0.482179
-0.0688675 0.191487 -0.132475
0.033856 -0.0453702 0.144496
-0.00964151 -0.147873 -0.0024883
9.6966e-05 -0.0128139 0.00604162
-0.112337 -0.174476 0.00389403
-0.178118 -0.131572 -0.167201
-0.00152157 0.0316843 -0.042807
0 0 0
-0.350679 -0.158493 -0.0687496
-0.108159 -0.0935149 -0.0355784
-0.216456 0.245639 0.279217
-0.00185874 0.0827572 -0.000103269
0.0466045 0.337771 0.146192
0.0883956 -0.0365102 -0.0379683
-0.0205938 -0.02594 0.0915755
-0.0675573 0.0461126 0.202853
-0.0873665 0.0303866 0.0445041
0.0766041 -0.105163 -0.0937012
-0.0920015 0.0612294 -0.000691891
-0.0215437 0.0235954 -0.00605156
0.0042079 -0.0310837 -0.157341
-0.0249656 -0.615973 -0.507873
0.176728 0.0195702 -0.0897244
-0.0645017 -0.11478 -0.106091
0.00147355 0.0219935 -0.00550887
-0.155351 0.208829 0.107179
-0.19782 -0.0466638 -0.211289
-0.0542212 0.0221376 0.0137998
0.117751 0.345805 -0.119883
0.123869 0.056891 -0.0241303
0.127648 0.224168 -0.113959
0 0 0
0 0 0
0.215696 0.0649574 0.0499471
-0.0425768 0.11181 0.0864278
0.0552897 0.000759953 0.0513776
0 0 0
0.0636858 -0.197365 -0.301149
-0.101014 -0.306084 -0.255752
0.122293 -0.35071 -0.232766
0 0 0
0.00752661 -0.156849 0.160716
0.00226638 -0.124105 0.0297146
0 0 0
0 0 0
0.0491525 0.127602 0.256118
-0.177015 -0.105816 -0.0599902
-0.0520069 -0.0823888 0.014145
-0.0539158 0.0685822 0.121245
0 0 0
0.208309 0.0940988 0.164785
0.000427157 0.0457337 -0.352546
0.147946 -0.0548356 0.00143211
0 0 0
-0.118788 0.463657 -0.108569
0 0 0
-0.307328 -0.672189 0.220475
0 0 0
0.220181 -0.129903 -0.210143
-0.0455109 -0.01608 0.031198
-0.0378152 -0.333457 0.12563
0 0 0
0 0 0
-0.00891963 0.201062 -0.042107
0 0 0
0.193528 0.00389364 -0.23957
0 0 0
0.359227 -0.139403 0.177466
0 0 0
-0.062697 0.0529354 0.00206366
0.222231 -0.164446 0.124007
0.0146116 -0.109272 -0.0815275
-0.0973091 0.0780216 -0.236979
-0.171348 -0.0336503 -0.197398
0 0 0
0.0047497 0.00054438 0.0122749
0.196012 0.00566728 -0.0112075
0 0 0
0.0850201 -0.23816 0.111098
0 0 0
-0.131714 0.03076 -0.000305039
0 0 0
-0.160629 0.310747 0.00243843
0 0 0
0.0693149 -0.200503 -0.354691
0.00948601 0.16667 0.0023544
0 0 0
0.028711 -0.373606 -0.302967
0 0 0
0 0 0
-0.109252 0.0455864 -0.0777224
-0.145635 -0.081592 0.0168384
-0.0520944 -0.182963 0.0575863
0 0 0
0.281142 0.0635001 -0.208767
0.213694 0.0938247 -0.067103
0 0 0
0.120072 0.0430316 -0.235137
-0.00319378 0.0187015 -0.0197624
0.105296 -0.191219 0.22533
0.00385926 -0.0117386 -0.0104992
0.0553811 -0.113199 -0.0491373
0 0 0
0.170586 0.0771887 -3.42997e-05
0.00222393 0.0086442 0.000921433
0 0 0
0.174411 -0.121533 -0.0160094
0.174193 -0.300296 0.529153
-0.216246 -0.159161 -0.225383
0.247166 0.16494 -0.0280089
-0.156158 0.0321959 0.329536
-0.185173 0.0483544 0.0228698
-0.0382538 -0.0903753 -0.125122
0.0693096 -0.0948385 0.158848
0.000983609 -0.00114901 0.0347112
-0.0881339 -0.359721 -0.252558
0 0 0
-0.00679692 -0.0109606 -0.0898509
-0.203117 0.180421 -0.0172457
-0.0149432 0.00270188 0.0741667
-0.246486 -0.094455 -0.237531
0.102063 0.259211 -0.00330637
-0.00145499 0.00230663 0.00140078
0.27094 -0.308492 0.0462887
0.378462 0.0432287 0.0152106
0 0 0
0.0621719 -0.181002 -0.164772
-0.00218418 0.0380611 -0.0848562
-0.0316502 -0.223021 0.0142832
0.0178022 -0.312189 -0.37345
-0.297154 -0.0235805 0.0944021
-0.164767 -0.181999 -0.159375
-0.065535 -0.417855 -0.000764175
0 0 0
0.189149 -0.144584 -0.3532
-0.0076145 0.0281549 -0.134388
-0.11727 0.178319 -0.0546336
-0.0414455 -0.136602 0.297542
0 0 0
-0.112334 0.104123 0.220462
0 0 0
-0.40879 0.336177 0.192737
0 0 0
0.0858987 0.156192 0.159798
0 0 0
0 0 0
0.167628 -0.0680152 0.0903898
0.0601207 0.136818 0.202101
0.241031 -0.0214485 0.00114258
0.0647562 0.0666122 -0.0275657
0.213712 0.10075 -0.0530988
0.189768 -0.133738 -0.100524
0.112126 -0.20539 0.0255157
-0.0458433 -0.329667 -0.165062
0.0292951 0.11544 0.179521
0.0694728 0.278871 -0.0523184
0 0 0
0.324308 0.546493 0.431797
0.00108409 -0.0674145 -0.121954
0.0961366 -0.035553 0.0760442
0.1269 0.126125 -0.0311588
-0.00120992 0.0257774 -0.133027
0 0 0
-0.040405 -0.297367 0.201946
0.173898 -0.00904804 0.0685254
-0.0731027 0.266307 0.10515
0.106476 -0.0408297 -0.0595854
0 0 0
0.36707 0.30321 0.0917942
-0.0264731 0.124341 -0.0347819
-0.00622164 -0.129238 0.0613294
0.0787446 0.0402892 -0.123226
0.0238191 -0.04801 -0.0270417
-0.0294261 0.212978 -0.203881
-0.0694777 -0.00340391 0.000437124
-0.0537139 0.0285656 -0.00904744
-0.183399 0.0858875 0.0538406
-0.335592 0.134524 -0.118486
-0.1008 -0.0758174 -0.304038
-0.000170861 -0.0193344 -0.00851324
0.231184 -0.222425 0.0419243
0 0 0
0.0548146 -0.000914911 -0.010249
0.442588 -0.164581 0.0962237
0.00198401 0.0914031 0.0886884
0 0 0
0.047024 -0.161804 -0.00858
0.0167535 0.143401 0.176384
0.0060569 -0.0620977 0.0807584
0.296175 -0.0313471 0.211036
0.141113 0.367476 -0.00844155
0.0440204 -0.0574641 0.211815
-0.0357941 0.0458378 0.0615992
0.0915951 -0.00929383 -0.00386735
0.281174 -0.0416425 -0.0839613
-0.00598731 0.202824 -0.0628874
0.0216855 -0.274114 0.100162
-0.00429656 0.059241 -0.057201
0.0101835 -0.0859559 -0.0283453
0.0501839 0.113154 -0.0835099
-0.0583754 0.0726288 0.0230589
-0.120629 0.223111 -0.00881221
-0.0371269 0.00801965 0.0200232
-0.0790898 -0.00845992 0.174901
0 0 0
0.0512038 -0.0429063 -0.00858014
0.202942 0.168175 -0.227087
0 0 0
-0.150362 0.0932666 -0.0200328
0 0 0
0 0 0
0 0 0
-0.194064 -0.0624796 -0.327382
0.00336856 0.0178411 -0.000457928
0 0 0
-0.339257 -0.392317 -0.0784729
0 0 0
0 0 0
0 0 0
-0.0387441 -0.00396824 -0.100754
-0.402965 -0.19905 -0.0291877
0 0 0
0 0 0
-0.0734429 -0.0518443 0.0635945
-0.145616 -0.192346 -0.00256861
0 0 0
-0.197184 -0.0330941 -0.00107944
-0.0673647 -0.00189097 -0.129667
0.0580398 0.515997 0.192724
0 0 0
0.0310709 0.273976 -0.194091
0 0 0
-0.24384 -0.0761028 -0.356603
-0.234248 0.243002 0.50001
0.00794806 0.100407 -0.133531
0.0244767 0.0176267 -0.0548416
0.00207716 -0.225409 0.136815
-0.132737 -0.294503 -0.0859102
-0.18759 0.0902123 0.418879
-0.100942 0.0502299 0.0788032
0.00772993 -0.312987 -0.137908
0 0 0
0.0067484 -0.0140179 -0.00815217
-0.283586 0.247286 0.161176
0 0 0
-0.15986 -0.263497 0.337227
0 0 0
-0.107482 -0.393691 0.0235382
0 0 0
0 0 0
-0.0474957 -0.726314 -0.533175
0 0 0
0.206747 -0.129234 0.0893022
0.345241 -0.516198 -0.281916
-0.000460261 0.0811551 -0.0094625
-0.208833 0.103474 -0.153981
-0.118285 -0.0268432 -0.0171695
-0.0869134 -0.0043428 0.0178286
0 0 0
0.00214721 0.257482 0.149138
-0.0870957 0.00161318 0.0171642
-0.214904 0.24074 -0.109818
0 0 0
0 0 0
0.0589325 0.0599959 -0.146962
-0.298735 0.371958 -0.0923587
-0.155727 0.137373 -0.192124
0.00217255 -0.181789 -0.13217
-0.0406201 -0.141691 -0.308738
-0.038085 -0.141285 0.255252
0.0495125 -0.016277 -0.0888906
0.0403696 -0.0512665 -0.0935925
-0.0396875 -0.082646 0.0513692
0 0 0
0 0 0
0.0972955 -0.0762887 -0.0820433
0 0 0
0 0 0
0 0 0
0.0605143 -0.126149 -0.130054
0.210295 -0.451578 -0.0795347
0 0 0
-0.0320176 -0.144105 -0.340387
0 0 0
-0.151977 -0.0682479 0.00532291
-0.00552698 -0.00788818 -0.010881
0.110982 0.0387336 -0.334928
0 0 0
-0.327824 0.0374605 0.0332064
-0.109494 -0.0938101 0.01431
-0.3995 0.19161 0.14753
0 0 0
0.0891036 -0.0464319 0.0112469
0 0 0
0.000629301 -0.0547312 -0.0493766
-0.023585 0.00785348 0.0504707
-0.0288703 -0.0455087 0.0738606
-0.187048 0.0726561 0.0353736
-0.115745 0.00180992 -0.333643
0 0 0
-0.0408623 -0.195485 -0.279258
-0.057164 -0.33024 -0.043248
-0.124923 0.0939694 -0.308815
-0.0664738 -0.290801 0.439637
-0.380843 -0.205952 -0.0613066
-0.00279841 -0.304673 -0.239879
0 0 0
0.466284 -0.110171 -0.144184
0.0660587 -0.214102 -0.0921276
0 0 0
0 0 0
0.0381446 -0.303735 -0.0388314
-0.00275389 -0.0225198 -0.00840781
-0.518521 -0.312828 -0.307629
-0.0346625 0.076758 0.00465902
-0.395928 -0.241629 0.0859681
-0.00436494 -0.00908507 -0.0145086
-0.118308 -0.0540145 -0.140488
-0.152946 -0.462374 -0.268462
-0.0500972 -0.0312507 -0.0414132
-0.0919643 0.116158 -0.300702
-0.175109 0.204182 -0.123734
-0.312364 0.420325 -0.10745
0.00811209 0.136674 -0.13729
-0.00541843 0.0712526 -0.0701603
0.00108483 0.204431 -0.0770392
0.0273727 0.0974641 -0.341935
-0.041862 0.0363536 -0.0527732
-0.174755 -0.165105 0.0848843
0 0 0
-0.144983 0.222043 -0.0663296
-0.0891873 0.101007 -0.127706
0 0 0
0 0 0
-0.194269 0.0876463 0.0228613
0.0623902 0.237122 -0.107949
0 0 0
0.151006 -0.0973898 0.259985
0.216714 -0.351541 -0.085508
-0.0114164 0.021461 0.0942051
0 0 0
0.0974807 0.0130057 -0.00148828
0 0 0
-0.100797 -0.118987 -0.0431684
0.000921287 0.0127242 -0.00805765
0.00733537 -0.0192425 -0.043458
0.141793 -0.287907 -0.282292
0 0 0
-0.0353467 -0.0630959 0.00066931
0 0 0
-0.0906482 -0.402541 -0.0678769
-0.0112269 -0.0187768 -0.00530782
0 0 0
-0.177838 0.107298 -0.0689302
-0.0975456 0.0983168 0.00934986
-0.271503 -0.256205 0.108924
0.0539928 0.115193 -0.140206
-0.0845072 -0.0979053 0.0185312
-0.181845 0.360322 -0.178021
-0.230836 -0.0293316 -0.264065
0.102788 0.171134 -0.163294
0.258353 -0.00252459 -0.214985
0.369014 0.112978 0.136679
0.0611324 0.130113 -0.138423
-0.0757648 0.0721522 0.0302638
-0.0905955 0.348594 -0.0755352
0.264186 0.486642 0.082558
0.000706598 0.0438794 -0.000973783
-0.0253746 -0.0864249 0.00408376
0.00887183 -0.188356 0.338858
0 0 0
0 0 0
0 0 0
-0.196289 0.229614 0.233498
0 0 0
-0.0950932 -0.397781 0.371674
-0.104392 0.103547 0.156815
0 0 0
-0.0767259 -0.108514 -0.0322481
0 0 0
0 0 0
0.0785437 -0.267892 0.0243375
0 0 0
-0.0722521 -0.121685 0.372069
-0.0535874 0.00125879 0.183895
-0.0238927 -0.0425511 -0.00260025
0 0 0
-0.159216 -0.11535 0.196592
-0.101384 0.0399139 -0.00404952
0.0390824 -0.109178 -0.0148378
0.0309128 0.342934 -0.411522
0.00038084 0.0378914 0.0591598
0.0956077 0.0264652 -0.0229978
-0.0603498 -0.0285859 0.0234564
0.0214239 0.164466 -0.0566504
0 0 0
-0.0442679 0.320228 -0.00404432
-0.00234775 0.0239458 0.0337926
0.0754016 0.408202 0.011704
0 0 0
0.100651 -0.0852134 -0.226982
-0.000517845 0.0325073 -0.12728
0.276552 0.104512 -0.714942
0.189588 0.293264 -0.0364862
0 0 0
0.193421 0.120922 0.044436
-0.0804979 0.0510796 0.0448598
0.0755214 -0.349613 0.52176
0.0784204 0.0859185 0.0722161
-0.182459 -0.0586049 0.383601
0.0592544 -0.0317577 -0.0576165
-0.0661213 -0.132116 -0.0622307
0 0 0
-0.219721 0.00368071 0.470179
0 0 0
-0.310958 -0.207593 -0.0697099
-0.306506 -0.236466 0.117455
-0.00570349 -0.232713 0.0217296
-0.169226 -0.0889488 0.0425379
0.0305183 -0.0873865 -0.00402715
0 0 0
0.0582074 0.00694087 -0.0653142
0.10225 0.154732 0.0650979
-0.0672853 0.200922 0.214438
0.0446039 0.0598162 -0.106231
0.0639901 0.10808 0.0067585
0 0 0
-0.213335 0.311577 -0.142162
-0.00270294 0.067146 -0.0902634
0.179703 0.176789 0.0970923
0.0451419 0.211214 0.0171847
-0.0656849 0.0772671 0.130828
0 0 0
-0.0794586 -0.0141004 -0.10398
-0.124737 -0.168917 -0.162082
0 0 0
-0.104955 0.0812799 -0.00708926
-0.0408194 0.117241 0.100875
0.0760076 -0.0334982 0.0881846
0.158695 0.00842654 0.0488773
-0.163106 0.634298 -0.522665
-0.00262812 -0.030135 0.0969072
-0.204152 -0.0523249 -0.0850753
-0.310434 -0.411447 -0.137416
-0.274199 0.297771 -0.0778622
-0.0767199 -0.0063161 -0.0012856
0 0 0
-0.290104 0.0930079 -0.0041054
0.014282 0.0143105 -0.0197825
-0.0394191 -0.17048 -0.12094
0.0035422 -0.00248052 -0.00591066
-0.191549 -0.413515 0.0193874
0 0 0
-0.0218893 -0.000488195 -0.161871
-0.106754 -0.383288 0.354718
-0.0165275 0.166881 0.059885
0 0 0
0 0 0
0.246993 0.00365799 0.118884
0.20965 -0.0114528 0.0428022
0.261093 0.117137 -0.173776
0.231387 -0.719878 -0.0424516
0.206439 0.0126158 -0.185742
-0.0126221 -0.038918 0.153908
-0.234222 -0.397125 -0.0147045
0.166849 0.00309769 0.177804
-0.098327 -0.0205775 0.0519206
0.0747856 0.230514 0.00171149
0.0238725 0.0563345 0.0104814
0.160513 -0.0987106 0.00068745
0.0523673 0.0446912 0.0462084
0.197059 0.0363219 -0.0188475
-0.015395 0.0408867 0.0329029
0.186009 0.22494 -0.00232665
0 0 0
-0.234892 -0.446118 -0.120875
-0.132585 -0.00549188 -0.00358123
-0.259945 -0.0374813 -0.0847349
0 0 0
0.110424 0.26464 -0.00455321
0 0 0
0.0453875 0.0323224 -0.0538845
0.000431706 0.00149251 -0.104296
0.0341263 -0.122255 -0.213225
0 0 0
0.220311 -0.323813 -0.0102831
-0.0149123 -0.11689 0.0786303
-0.0365003 0.00434235 0.134772
-0.0482673 -0.00921816 0.0361456
0 0 0
0 0 0
-0.003965 0.0932308 0.0199898
0 0 0
0.0249937 -0.0494293 -0.0296497
0 0 0
0.260963 -0.223543 -0.068325
0 0 0
0.116972 -0.483005 -0.247311
0.000468625 0.412548 -0.233459
0.0417909 -0.083211 0.0623923
-0.00985803 0.159202 -0.17123
-0.0626655 0.0194274 0.0560417
0.0508048 0.0295838 -0.0153391
0.128107 0.454405 -0.355234
-0.0168505 0.0503302 -0.033623
0.481491 -0.182157 -0.164219
0 0 0
0 0 0
0.0536848 -0.0444208 0.000207434
0 0 0
-0.106463 0.0317645 0.0318177
-0.149493 -0.075124 -0.450057
-0.0376413 0.0193946 0.00104118
0 0 0
0.0915722 -0.249005 0.029478
0.132091 -0.10953 -0.135187
-0.170601 0.0634841 -0.21647
0 0 0
0.0348858 0.0495904 0.0190989
0.101956 -0.193635 0.397655
-0.164486 -0.0409843 0.0864591
-0.27794 -0.223843 -0.137025
-0.0943614 0.0778735 -0.0915544
-0.296923 -0.22948 -0.115822
-0.0657222 -0.0330779 0.0327576
0.442387 -0.105022 0.210976
0.028586 -0.112768 0.000600277
0.00451418 -0.0356116 -0.0305072
-0.00147267 0.074314 -0.0472212
-0.149833 -0.402802 0.350889
0.00299188 0.014084 0.0305577
-0.465453 -0.0244818 0.167306
-0.19484 -0.0253737 0.170139
0 0 0
0 0 0
-0.096068 -0.102888 0.0420562
0 0 0
-0.137657 0.121216 0.210623
0.0758849 0.017337 -0.136758
0.118779 0.278756 0.11483
0 0 0
0 0 0
0.0859302 -0.202368 -0.201054
0 0 0
0.214128 -0.352451 -0.0168107
0 0 0
0.176671 -0.0779358 -0.357912
0.127424 -0.12922 0.0198183
0.184721 -0.144895 -0.0675899
0 0 0
0.224814 0.00419168 -0.031497
0 0 0
-0.0161768 -0.0492738 0.13988
-0.0341741 0.00827168 -0.000364625
-0.170184 -0.255837 0.0836105
-0.096501 0.0953246 0.0966938
-0.383714 -0.152263 0.303037
-0.019186 0.0311443 -0.011474
-0.0188768 -0.200708 -0.188271
-0.309956 0.150667 -0.0147453
0 0 0
0.163823 0.0179126 -0.0578914
0.0292718 0.0438531 0.0513668
0.0514961 -0.0186994 0.00797095
0 0 0
-0.0587921 0.164198 0.00145968
0.0837876 0.016299 -0.0162194
0.448455 0.100147 0.253842
-0.000153532 0.0172177 -0.0150781
-0.015088 0.214058 0.0267302
-0.0246243 0.0198057 0.0423474
0.0846005 0.0783496 -0.0351242
0 0 0
-0.0354434 0.0372777 0.0615296
0.15874 -0.119554 0.294246
0 0 0
0.0583351 0.262129 0.144253
-0.00457073 -0.00737164 -0.124281
0 0 0
-0.0269206 -0.229565 -0.043424
-0.119793 0.189962 0.00337421
-0.189388 -0.234278 -0.371822
0 0 0
0 0 0
-0.0367895 0.0257257 0.138736
-0.16691 -0.0164672 -0.10899
0 0 0
-0.00839723 -0.0573305 -0.0187418
0 0 0
-0.0020351 -0.344618 -0.0991257
0.01638 -0.0101529 -0.1332
0.100254 -0.000239276 -0.13784
0.0815305 -0.0751175 0.0594238
0 0 0
-0.081945 -0.0834781 0.513922
-0.0743176 0.00938128 0.0148854
-0.239823 0.0337098 0.353417
0 0 0
-0.380207 -0.197722 0.194784
-0.03396 0.00558578 0.059918
-0.0172361 -0.0348565 0.351035
-0.00366578 0.0622574 -0.121448
0.0380741 -0.0346845 0.00403741
-0.0128187 0.0575862 -0.0519865
0.0202537 -0.178254 0.00105681
0 0 0
-0.141603 -0.0822613 0.0218951
0 0 0
0.163847 -0.0558483 0.155763
-0.0432434 -0.0518286 -0.0292649
0.0121631 0.038159 -0.0386368
0 0 0
0 0 0
0 0 0
-0.0715081 -0.0115862 -0.156164
-0.154958 -0.0733098 -0.0394025
-0.304383 0.0316914 -0.129209
-0.151715 -0.163314 0.0331684
0 0 0
-0.26089 -0.0944842 0.21762
-0.16023 -0.0826881 -0.211042
0 0 0
0.0742907 -0.0307284 -0.127787
0 0 0
0.00735361 -0.0330478 0.00547355
-0.00262946 -0.0936673 0.153136
-0.21425 -0.257717 0.263651
0 0 0
0 0 0
-0.149406 0.0071732 0.0826271
-0.0384984 -0.0118753 0.001299
0 0 0
0.0552066 -0.0477601 -0.323924
0.135523 -0.018893 -0.0576401
0.269655 -0.0372575 0.0205509
0.103289 -0.266068 -0.228285
-0.0613077 -0.0294309 -0.0058341
-0.0433533 0.00502105 -0.0485385
0.0219253 -0.0424738 0.0134534
-0.152251 0.132363 0.0386272
-0.10392 0.178806 -0.267454
0.123745 -0.22748 0.0821492
0.00954571 -0.0152753 -0.0297822
0.524461 -0.174713 -0.115967
0.518222 0.232815 0.596534
0.0298436 0.0663345 0.128853
0 0 0
0.0773405 -0.0243045 -0.218562
-0.0980608 0.154863 -0.00254314
0.121555 -0.0862924 -0.097186
-0.045015 0.0649677 -0.0697221
-0.0593273 -0.0291537 0.0125444
-0.128372 0.0545179 0.160816
-0.0536632 0.0205408 0.0281972
-0.0490521 -0.0942435 -0.0309568
-0.110826 0.134583 -0.316239
-0.174078 -0.162759 -0.0222984
-0.0591491 0.204577 -0.319585
0.0293466 -0.212462 -0.248428
0.0805999 -0.103446 -0.0988171
-0.000935046 0.474053 0.0351362
0.106044 0.0753436 0.00361
0 0 0
0.134493 0.00305266 0.188361
0.328885 0.0590036 -0.0650493
0.365188 -0.0299881 -0.224108
0.0750078 -0.00803674 -0.0510533
0.107968 -0.0273537 0.00765238
-0.19723 0.106539 -0.155337
-0.524307 0.254427 -0.170033
-0.10995 0.0514314 -0.0341674
-0.379714 0.113206 0.0287292
0 0 0
0 0 0
0 0 0
-0.387297 0.0153288 -0.213646
-0.0331837 -0.0258816 -0.0339597
-0.271211 -0.00310861 0.104781
-0.190209 0.158269 -0.0947591
-0.285244 -0.281169 -0.159039
-0.314815 -0.0803068 0.00435665
0 0 0
0 0 0
-0.0389941 0.106204 -0.00467451
0 0 0
0.302759 -0.114338 -0.108124
0.0295379 0.0232397 0.00203803
0 0 0
0 0 0
0.0288329 -0.0144752 -0.076113
-0.0183593 0.0205128 0.210529
0.00183468 -0.182278 0.0379899
-0.179234 -0.331562 -0.261637
0 0 0
-0.00630479 0.0228429 -0.00519238
0.00127098 -0.14956 -0.042943
0.174838 -0.189924 0.17327
0 0 0
-0.048616 0.0317334 0.386888
-0.268001 0.0823824 -0.214654
-0.0384161 -0.0450385 0.00064797
0.1814 0.200721 0.184812
0 0 0
-0.0738773 -0.00582377 -0.0663015
-0.15391 -0.0544258 -0.0202743
-0.149046 0.0423884 -0.0625893
-0.154437 0.0848933 0.0650212
0 0 0
-0.350972 -0.110356 -0.00923367
0.00131564 0.0316191 -0.0732136
-0.198403 -0.136815 0.035615
-0.0209926 0.00736576 -0.0208421
0 0 0
-0.252911 -0.202634 0.0193923
-0.161494 -0.00721732 0.0324309
-0.229852 -0.0187544 0.273553
0.041909 -0.0217628 0.00970699
-0.0467958 0.0821514 -0.411333
0.0525284 -0.0334218 -0.0662885
0.0433281 -0.0470055 0.0655294
-0.142584 -0.193198 -0.00381668
0 0 0
0 0 0
0 0 0
0 0 0
0 0 0
0 0 0
0 0 0
0 0 0
0 0 0
0 0 0
0 0 0
0 0 0
0 0 0
0 0 0
0 0 0
0 0 0
0 0 0
0 0 0
0 0 0
0 0 0
0 0 0
0 0 0
0 0 0
0 0 0
0 0 0
0 0 0
0 0 0
0 0 0
0 0 0
0 0 0
0 0 0
0 0 0
0 0 0
0 0 0
0 0 0
0 0 0
0 0 0
0 0 0
0 0 0
0 0 0
0 0 0
0 0 0
0 0 0
0 0 0
0 0 0
0 0 0
0 0 0
0 0 0
0 0 0
0 0 0
0 0 0
0 0 0
0 0 0
0 0 0
0 0 0
0 0 0
0 0 0
0 0 0
0 0 0
0 0 0
0 0 0
0 0 0
0 0 0
0 0 0
0.0622781 0.00994278 0.111948
-0.0618853 0.0916877 -0.0939706
0 0 0
-0.0774933 -0.05367 0.0473618
-0.00532129 -0.00657525 -0.023784
0 0 0
0.0215446 -0.000241731 -0.298193
-0.030851 -0.0172266 -0.0585433
-0.00137753 0.0123012 -0.0429392
-0.0397745 -0.0367221 0.460901
0 0 0
-0.0198426 0.14285 0.0328845
0.211385 0.0113949 0.172854
3.15593e-05 0.0231974 -0.0158712
-0.00905813 0.157847 -0.0843186
0.050799 -0.118277 0.14515
-0.00612336 0.0168721 -0.159665
-0.0330311 -0.0771887 -0.0607856
0 0 0
-0.0199861 0.0951875 -0.0973211
-0.011316 -0.0802376 -0.166271
0 0 0
-0.175094 -0.028218 -0.0510529
-0.0221281 0.0163118 0.0665147
0.00506944 0.12856 -0.11828
0.0565228 0.0293279 -0.102411
-0.00586683 0.0417855 -0.0315439
0.0289077 -0.162922 0.130277
0.193703 0.0702549 -0.0898052
0 0 0
-0.023236 0.101837 -0.00475633
-0.00588207 -0.0676697 -0.046103
0.000349288 0.00285911 -0.00296004
0.155274 -0.0977003 -0.0138361
0 0 0
-0.00794478 -0.00582245 -0.149231
-0.125555 0.00679033 0.0463195
0 0 0
-0.0433368 0.00309964 0.344438
-0.022274 0.0226576 -0.36316
-0.000901098 -0.0870828 0.372292
0.00429908 -0.00164611 -0.183259
0 0 0
0.00522421 0.0453459 0.0412533
-0.129224 -4.3677e-05 -0.0850375
0 0 0
0.0527324 -0.0201143 0.0244134
-0.058526 0.00216042 0.0429074
0.00216847 -0.000113549 -0.00792899
0.062654 0.0419989 -0.0166816
0 0 0
0.121857 0.00165748 0.091341
0.00525487 -0.104744 -0.0274785
0 0 0
-0.0645617 -0.00844376 -0.00407513
0.0632794 0.0792407 0.0217085
0.0273397 -0.00965103 -0.0917891
0.107559 -0.00790158 0.0487267
0 0 0
-0.0269082 0.0150104 0.0176352
-0.0225597 -0.00751278 0.0767549
0 0 0
-0.0314062 -0.0302376 0.0175848
0 0 0
0.00738998 -0.0630223 0.191174
0.275034 -0.234495 0.0447577
-0.0935923 -0.0057938 0.0237985
-0.0973884 0.0623328 0.0836608
-0.0178725 -0.508214 0.00762594
-0.0223322 0.353187 0.24191
-0.246276 -0.149761 -0.0102118
-0.00104449 -0.0947708 -0.0969364
0.0280067 0.026759 0.00602079
0.489734 -0.10761 0.10741
0.0195102 0.364289 -0.158323
0 0 0
0.0208134 0.0623256 -0.0849473
-0.00144741 -0.0162816 -0.172723
-0.00561839 -0.0103481 0.0254172
-0.118759 0.238381 0.456137
-0.0263809 -0.242339 -0.0810531
-0.328483 -0.470266 -0.489264
-0.141347 0.142519 0.0593514
-0.20632 -0.253465 0.0422169
0.00353855 0.0132711 0.0546498
-0.0530691 -0.00739009 0.241342
-0.0592117 -0.290935 0.113127
-0.113828 0.0274665 -0.0504463
-0.244592 -0.20289 -0.181077
0.136796 0.135166 -0.088674
0.100513 -0.0844087 0.159997
0 0 0
-0.125684 0.199967 -0.021701
0.0592522 0.0117056 -0.203034
0 0 0
0.204172 0.0229527 0.129595
-0.0160147 -0.590697 -0.0242371
-0.105913 -0.00308801 -0.0650198
-0.046826 -0.0164602 0.141172
-0.178552 0.107928 0.0251582
0.0851686 -0.112784 -0.106281
0 0 0
-0.0278762 0.074249 -0.16159
-0.174933 -0.328041 -0.0663082
-0.0158856 0.0684421 -0.126052
0.000794442 -0.00415097 0.00890175
-0.13405 0.246881 -0.334221
-0.0187133 -0.0531389 0.0127052
0 0 0
0 0 0
0.20737 0.234013 -0.381301
0.100395 0.25031 0.291268
0.124953 -0.220569 -0.0043765
0 0 0
-0.386637 0.186585 -0.111895
-0.138441 0.0587956 0.116637
-0.210227 0.0600126 -0.0287422
-0.152362 -0.254845 -0.324661
-0.102892 0.0576892 0.102881
0.0190615 0.0278174 0.00311886
0.264567 -0.556093 -0.0308077
0.065191 -0.0957753 -0.00732604
0.36994 -0.165434 0.0171631
0 0 0
0.105975 0.00507434 -0.0776697
0 0 0
0.0871685 -0.414466 -0.261291
0 0 0
0 0 0
0.161764 -0.526176 -0.203475
-0.157813 -0.00391259 -0.066212
-0.127137 0.0231405 -0.0731953
0.0088646 0.00126375 0.064549
0.266218 0.0392163 -0.00261416
0.164978 0.264446 0.336844
-0.193174 -0.184309 0.000483216
0.406589 0.0748486 0.380898
-0.122942 -0.0283847 -0.00336029
0 0 0
0.351687 0.238502 -0.229447
-0.072301 0.185874 -0.103225
-0.0362965 -0.268339 -0.0028952
0 0 0
-0.106148 -0.213639 -0.0123045
-0.0387235 0.00728198 0.00220322
-0.0899059 0.0396642 0.12367
0 0 0
-0.0173884 0.116424 0.0131181
0.109953 0.131405 0.109591
0.183481 0.290463 -0.0411595
0.0669877 0.109061 0.0579633
0.25198 -0.343841 0.401641
-0.0571115 0.0639091 0.0147901
-0.0960697 -0.140335 0.13451
0.025119 -0.00962196 0.0179112
-0.522053 0.163887 0.0661928
-0.0806128 0.275438 0.012595
0.100653 0.0417169 -0.0790755
-0.00161111 -0.0227488 0.0251252
0.0243737 -0.0517124 -0.0587356
0 0 0
-0.0477448 -0.154308 0.00145013
0.0910672 -0.237972 0.0913812
0.126644 -0.169508 0.136615
-0.131761 -0.153193 0.0991728
0.0293032 -0.0457251 0.0893097
-0.128385 -0.328526 -0.0123262
-0.125314 0.0252253 0.0602108
-0.0266396 -0.128679 -0.146648
-0.0299629 -0.408484 0.0268676
0 0 0
0.0569316 -0.118219 -0.075344
0 0 0
-0.103314 -0.616856 -0.249165