<?xml version="1.0"?>
<VTKFile type="RectilinearGrid">
<RectilinearGrid WholeExtent="0 32 0 32 0 32" Origin="0 0 0" Spacing="1 1 1">
<Piece Extent="0 32 0 32 0 32">
<PointData>
</PointData>
<Coordinates>
<DataArray type="Float32" format="ascii">
0 0.524874 1.04975 1.57462 2.0995 2.62437 3.14924 3.67412 4.19899 4.72386 5.24874 5.77361 6.29849 6.82336 7.34823 7.87311 8.39798 8.92285 9.44773 9.9726 10.4975 11.0224 11.5472 12.0721 12.597 13.1218 13.6467 14.1716 14.6965 15.2213 15.7462 16.2711 16.796 
</DataArray>
<DataArray type="Float32" format="ascii">
-5.03879 -3.62163 -2.20447 -0.787311 0.629849 2.04701 3.46417 4.88133 6.29849 7.71565 9.1328 10.55 11.9671 13.3843 14.8014 16.2186 17.6358 19.0529 20.4701 21.8872 23.3044 24.7216 26.1387 27.5559 28.973 30.3902 31.8074 33.2245 34.6417 36.0588 37.476 38.8931 40.3103 
</DataArray>
<DataArray type="Float32" format="ascii">
0 0.524874 1.04975 1.57462 2.0995 2.62437 3.14924 3.67412 4.19899 4.72386 5.24874 5.77361 6.29849 6.82336 7.34823 7.87311 8.39798 8.92285 9.44773 9.9726 10.4975 11.0224 11.5472 12.0721 12.597 13.1218 13.6467 14.1716 14.6965 15.2213 15.7462 16.2711 16.796 
</DataArray>
</Coordinates>
<CellData>
<DataArray type="Float32" Name="Vector" NumberOfComponents="3" format="ascii">
0 0 0
0 0 0
0 0 0
0 0 0
0 0 0
0 0 0
0 0 0
0 0 0
0 0 0
0 0 0
0 0 0
0 0 0
0 0 0
0 0 0
0 0 0
0 0 0
0 0 0
0 0 0
0 0 0
0 0 0
0 0 0
0 0 0
0 0 0
0 0 0
0 0 0
0 0 0
0 0 0
0 0 0
0 0 0
0 0 0
0 0 0
0 0 0
0 0 0
0 0 0
0 0 0
0 0 0
0 0 0
0 0 0
0 0 0
0 0 0
0 0 0
0 0 0
0 0 0
0 0 0
0 0 0
0 0 0
0 0 0
0 0 0
0 0 0
0 0 0
0 0 0
0 0 0
0 0 0
0 0 0
0 0 0
0 0 0
0 0 0
0 0 0
0 0 0
0 0 0
0 0 0
0 0 0
0 0 0
0 0 0
0.0473288 -0.000169374 -0.0598911
-0.000306605 0.0140951 -0.00240092
0 0 0
-0.0104329 -0.0462724 -0.0166485
0.048464 0.0269927 0.00540949
0 0 0
0.0394665 -0.0406579 0.0196525
0.0523634 -0.01621 -0.000307541
0.0162597 0.0373193 -0.00317411
-0.312264 0.181158 -0.0410248
0 0 0
-0.193202 -0.138099 -0.030716
0.183173 0.118705 0.0743406
0 0 0
0.196854 -0.0143674 0.0388292
0.0211466 -0.0455248 -0.07461
-0.0410499 0.00587619 -0.016941
-0.181971 -0.186496 -0.0924552
0 0 0
0.132645 -0.0131374 0.0200795
-0.138222 0.148887 0.0116623
0 0 0
-0.0395505 0.126704 0.000924006
-0.0262353 -0.0764727 -0.147334
-0.170581 -0.131228 0.0599658
-0.0348419 0.270764 0.0172446
0 0 0
0.109294 -0.054885 0.0447044
-0.0174046 0.414182 -0.14107
0 0 0
-0.242026 -0.0421299 0.0352855
-0.0727761 -0.13068 0.0537772
0.0530079 -0.0356777 -0.0148642
-0.00288132 0.00242401 0.000760529
0 0 0
0.0384758 0.273616 0.00122364
0.0152164 0.0106627 -0.0143823
0 0 0
0.0644267 -0.0158042 -0.00355167
-0.141755 -0.0484383 0.0274062
-0.0253513 0.0523542 -0.0235624
0.0734114 0.246232 -0.00604027
0 0 0
0.0312233 0.00178483 0.0347847
0.0956263 -0.150072 0.0220312
0 0 0
-0.000429942 -0.00784704 -0.0788874
0.0145759 0.0613904 0.0269976
-0.088606 0.0611342 0.0123322
-0.000939304 -0.0420823 0.0857373
0 0 0
-0.0706874 0.0499639 -0.0277082
-0.033645 -0.00492039 -0.00667343
0 0 0
-0.326312 -0.358218 0.00331619
0.0224788 0.00641062 0.0496464
0.0726333 -0.0251524 0.0397846
-0.0336917 -0.120384 -0.000868876
0 0 0
-0.0082525 -0.00221007 -0.0329998
-0.348637 0.139637 -0.00554001
0 0 0
-0.0737525 -0.000697316 -0.076333
-0.0233276 0.18378 0.0178613
-0.141035 0.0223192 -0.000522262
0 0 0
0.0392408 0.370168 -0.102114
0 0 0
-0.25597 -0.321239 -0.0549423
-0.00438877 -0.0523984 0.0531397
-0.001542 0.0614211 0.0445021
-0.090149 0.223916 -0.0990781
-0.000839712 -0.0924139 0.082986
0 0 0
0 0 0
0.0244239 -0.149739 0.211697
0 0 0
0.0729901 -0.202543 0.0697439
-0.027174 0.348581 -0.145477
0.187256 -0.103628 -0.223543
0.0182223 -0.119944 -0.100328
0.313012 -0.0982871 -0.0454792
0.0923564 -0.167737 -0.107318
-0.0220161 0.0730607 -0.0586216
0.271629 -0.0481293 -0.0600879
-0.0196026 0.0257929 -0.362479
-0.0531574 -0.17218 0.059546
-0.0198373 0.180805 0.0349922
0.020304 -0.103513 0.00118633
0.497618 -0.11695 0.247361
-0.00259128 0.133174 -0.0381558
0.07864 0.213557 0.030515
0.000782637 0.295989 0.0699891
-0.297593 0.31278 -0.0774633
-0.123049 -0.0990303 -0.012804
0 0 0
-0.478902 -0.16755 -0.328198
0 0 0
0.545109 -0.0447106 0.2049
0.0267591 -0.0036712 -0.177456
-0.120967 -0.0349274 0.0636544
-0.333578 0.432637 -0.0107074
-0.145345 0.178911 -0.0918933
-0.0440345 0.339605 0.015259
-0.0375274 0.0072225 0.0747448
0.0188747 -0.589483 0.132882
0 0 0
-0.177007 -0.31085 -0.0128152
-0.087081 -0.0490797 -0.0375029
-0.0614721 0.0253154 0.0878146
-0.143514 0.0456623 -0.00235133
0 0 0
-0.000144451 0.028616 0.0273007
0.133136 0.200658 0.150044
0 0 0
-0.0203992 -0.160035 0.120414
-0.221031 0.0656601 0.154486
0.0229444 0.419193 0.275217
4.28001e-05 -0.0492482 0.251648
0.0314003 0.0679155 -0.0414945
0.000958413 -0.0225442 0.225982
0.203796 -0.0713056 -0.0778544
0.115294 -0.0968657 -0.102283
0.00895661 0.0761107 0.0753416
0 0 0
0.122071 0.139701 0.472576
0 0 0
-0.0554557 0.0208391 0.0430921
-0.0133237 -0.246276 -0.121712
-0.0695771 -0.0378188 -0.00839192
0.122125 -0.0676072 -0.0297945
0 0 0
0.0170905 0.0153949 0.177261
0 0 0
-0.109675 -0.154151 0.085052
0.00502288 0.00503903 0.0429662
0.108964 0.222958 -0.0836985
0.253613 -0.401291 -0.168456
0.0198039 0.0139324 -0.125322
0 0 0
-0.398294 -0.184541 -0.157182
-0.118111 0.0630843 -0.155041
-0.170061 0.542617 0.00198808
-0.224094 0.421586 0.111227
0.00128376 0.141949 0.287472
0.0270374 0.0374777 0.103386
0 0 0
-0.121331 0.0721177 -0.1362
-0.190462 0.00995206 -0.117985
-0.0729454 -0.0677171 -0.102141
-0.255443 0.029472 -0.228134
0.116291 0.415721 0.0778333
0.00700344 0.184925 -0.105433
0.133729 -0.203693 0.481154
0.0139291 0.0162512 -0.01852
-0.123084 0.0889859 0.341557
0 0 0
0.272528 0.0779473 -0.145614
0 0 0
0 0 0
-0.00388097 -0.094491 -0.216712
0 0 0
0.0873136 -0.0280644 0.134434
0 0 0
0 0 0
-0.00285152 0.00742106 0.123093
-0.192683 0.26514 -0.0921251
0 0 0
-0.0778982 -0.154391 -0.0454864
-0.0422791 -0.462516 -0.0646214
0.00153811 -0.165219 -0.00420251
0.141288 -0.122138 0.107141
0.13775 0.0106875 0.141504
-0.0621588 -0.0444221 -0.0438204
-0.110436 -0.292967 0.197703
0 0 0
-0.0517142 0.0255634 0.113804
-0.00341198 0.00088284 -0.000508769
0.0870543 -0.101562 -0.000374184
0 0 0
-0.0740048 0.704371 -0.0292643
0.0430618 0.034146 -0.0347987
-0.275056 -0.111026 -0.0114569
-0.116353 0.400651 -0.241422
0 0 0
-0.0137785 -0.258145 0.203425
0 0 0
-0.158058 0.125715 0.166539
0 0 0
-0.172234 -0.29295 0.0628686
-0.131312 0.186703 -0.0909611
-0.110427 -0.0493303 -0.229242
-0.181636 0.00759776 -0.206939
0.0463039 -0.00170179 0.0790661
0 0 0
0.0934476 0.0396058 -0.377129
-0.0127492 0.188457 -0.524103
0 0 0
-0.0882129 0.0390803 -0.212574
-0.117802 0.250724 -0.128807
-0.0151492 -0.192433 -0.0607296
-0.287568 -0.0368334 0.110607
0 0 0
-0.18837 -0.504015 -0.0242461
0 0 0
0.136554 -0.0942885 0.0243418
0 0 0
0 0 0
-0.0220778 0.117426 0.00220964
0.157248 0.0292126 0.30729
0 0 0
-0.215307 -0.0111602 -0.126002
0.0488916 0.0134254 0.00770731
0.322794 0.204549 0.432062
0.216881 0.0454891 0.0814149
-0.116033 0.143293 -0.133759
-0.428727 -0.185527 -0.0410997
0.0579458 0.0413697 0.0422599
-0.169436 0.187657 0.0180171
0 0 0
0.275517 -0.18022 -0.179924
-0.0543166 0.00447637 -0.0351919
0.0254194 0.029367 -0.00193526
-0.146368 0.069952 0.0972793
0.0143713 0.020864 -0.0513414
0 0 0
0.137771 -0.0318652 -0.00962211
-0.0645068 0.0434853 -0.00136742
0.12586 0.107385 -0.0582683
0.0235712 6.46229e-05 -0.000808786
0.198855 0.0178932 0.135414
0 0 0
0.16254 0.095148 -0.0883684
0.0292316 -0.0845741 0.0793448
0.249819 -0.394225 0.147825
-0.0309391 -0.157821 0.147388
-0.00024261 0.0273166 0.0718511
-0.0988122 0.107543 0.202532
0 0 0
0 0 0
0.076497 -0.0598715 -0.0816112
0.349358 -0.0558786 0.215124
0.215294 -0.0494041 0.0348972
0.270906 -0.0443584 -0.109002
0.0555962 0.0193078 0.0973077
-0.031865 0.000721581 -0.0676008
-0.0859592 0.187656 -0.412109
-0.218348 0.0690896 0.00914203
-0.215451 0.156197 0.0365589
-0.0926558 -0.13006 -0.255729
-0.315587 0.0537522 -0.0889325
0 0 0
-0.497471 -0.469296 -0.197154
-0.110728 0.257585 -0.129268
-0.302712 0.229272 0.214863
-0.102386 0.409584 -0.21532
-0.166043 0.0204049 0.00270572
0.11548 -0.055444 -0.0102327
0.377794 0.245808 -0.319685
0.0056899 0.0555615 0.0151635
0.0636195 0.126572 -0.0387717
-0.00123637 -0.0629744 0.0594073
0 0 0
0.0252178 -0.587441 0.0518192
0 0 0
0 0 0
0.154874 0.0272393 -0.00414924
-0.220825 -0.166354 0.186878
0.192117 -0.0276603 -0.40996
-0.0402106 -0.466536 0.138345
-0.0591478 -0.0377274 -0.103307
0.24322 -0.188912 -0.131225
0.0112417 -0.00192281 0.100223
0 0 0
0.0687072 -0.064591 -0.0348437
0.0368516 -0.00876135 0.00540499
0.0799539 0.0911287 0.105528
0.111133 0.0424984 -0.112411
0.198517 0.398656 0.220867
0.0378429 0.112176 -0.186905
-0.0664548 -0.0700181 -0.0286752
0.0383881 -0.243447 0.121867
0.146511 -0.140347 -0.162484
-0.0360635 -0.194236 -0.19591
0 0 0
0.0911137 0.205459 -0.0447149
-0.000344033 -0.017024 -0.0424308
0 0 0
0.394851 0.239088 0.295023
0 0 0
0.168165 -0.172476 -0.223812
-0.317993 -0.0994875 0.475619
0.00335959 -0.0128081 0.0495804
-0.219116 -0.0994737 0.143993
0 0 0
0 0 0
0.106861 -0.143778 0.0979994
0.0588539 -0.326114 0.0528981
0 0 0
0 0 0
-0.0939982 -0.176649 0.0168297
0.450982 -0.262676 -0.132038
0.28017 0.0490264 0.129952
0.388327 -0.0957755 0.509716
0 0 0
-0.247158 -0.357827 0.234181
0 0 0
0.00577425 -0.0624984 0.000584303
0.146136 0.117411 0.301972
0.217074 0.0644197 -0.136149
0.368632 0.194505 -0.124726
0.11513 0.0321949 -0.140269
-0.132304 0.120068 -0.0138192
0.152603 -0.311793 0.1344
0.0693301 0.332832 0.0175996
0.101107 -0.0693807 -0.0270217
-0.313621 -0.0660705 0.107312
-0.0680236 0.0128645 0.0566967
-0.0571856 0.474508 -0.147903
-0.0309652 -0.0466934 0.0742949
0 0 0
0 0 0
0 0 0
0 0 0
0 0 0
0.154023 0.0778334 0.287449
-0.0610432 -0.071579 -0.0265374
0 0 0
-0.0413486 0.0725676 0.111106
-0.0825132 -0.134852 0.0176866
-0.0668022 0.103041 0.0621586
0.00333717 0.0876314 0.0263127
-0.225151 0.0747276 -0.180452
0.000350687 0.308672 0.0849209
-0.12825 0.0180701 -0.00180139
0 0 0
-0.000984918 0.134049 0.0372518
0.0852159 -0.0611441 -0.057005
-0.00037813 0.00250248 0.148581
0.00557621 -0.25391 0.309199
-0.117585 0.125835 0.00133207
0 0 0
0 0 0
0.0165159 -0.0278748 -0.0359632
-0.00330401 0.074613 -0.176987
0.0789258 0.036808 -0.020966
0 0 0
0.0559824 -0.0210204 -0.000322759
0 0 0
0.113948 -0.201947 0.12218
0.269545 -0.0898968 -0.210248
0 0 0
0.114793 -0.0128224 0.302911
0 0 0
0 0 0
0.261791 0.0659188 0.337604
-0.0446575 0.310258 0.162306
0.0284458 0.0477348 -0.00390468
0.00677547 -0.0164805 -0.00437899
0.111771 0.045676 -0.0697363
-0.118059 -0.100226 -0.118349
0 0 0
0 0 0
-0.29917 0.191868 0.213413
0 0 0
-0.0377851 0.18655 -0.00236001
-0.190153 -0.0541788 -0.159144
-0.122569 0.0288878 -0.142429
-0.266387 -0.262563 -0.038813
0.0381906 -0.0826678 0.0927002
-0.0748784 -0.150283 0.18559
-0.00267681 -0.000601275 -0.00906764
-0.00291288 0.00113601 0.0146772
0.333945 -0.0242715 0.190449
0 0 0
0.228383 0.332744 -0.0147553
0 0 0
0.257415 0.30472 0.0510981
0 0 0
-0.0709097 0.0457005 -0.113782
0.0984336 -0.151093 0.0650769
0 0 0
0.29345 -0.0196236 0.109805
0.138994 -0.131621 -0.0511242
0 0 0
0 0 0
-0.22582 0.0524753 -0.00334155
-0.0965263 0.00572648 -0.130643
-0.199435 0.216803 -0.397733
0 0 0
0.151967 0.122554 -0.284611
-0.0337193 -0.0174637 0.0198674
-0.100512 0.256422 0.00118713
0 0 0
0.204869 -0.00554004 -0.0399842
0 0 0
0.222774 0.0887409 0.0367818
0.106448 0.209253 0.157828
-0.107645 0.00108868 0.164125
0.00401079 -0.0596606 -0.0762356
0.288787 -0.170506 0.0699024
0 0 0
-0.00168685 -0.0666706 0.0191078
-0.0571467 -0.175681 0.127013
0.0368538 -0.0841224 0.172101
0.00625223 0.00247532 0.11599
0.086162 -0.0894592 -0.0608253
0 0 0
-0.0780139 0.0268615 -0.104776
-0.0758348 0.263307 -0.193649
0.168827 0.0278933 -0.223755
0.0825289 0.000636471 -0.0164181
0 0 0
-0.119926 -0.124368 0.000239805
0.167791 -0.083184 -0.114533
-0.0666725 0.0473359 -0.163354
0.329979 -0.261275 0.45142
0.152664 -0.100501 0.334837
0.00792364 0.00196593 -0.00413626
0.263956 0.210231 -0.137348
-0.0291053 0.209762 -0.0921055
-0.0838186 0.179774 -0.0657988
-0.0961938 0.0143484 -0.15102
-0.171467 -0.0931596 0.0773662
-0.130905 0.00367912 0.0576262
-0.0551628 -0.383633 0.100197
-0.0112679 -0.10163 -0.182032
0.0527502 -0.0295965 0.0399753
0.0571818 -0.120103 -0.304673
0.124307 0.0627287 -0.0267182
0 0 0
-0.248873 0.0645559 -0.176536
-0.019499 0.0208053 0.0352452
0 0 0
-0.169753 0.073622 0.0415763
0 0 0
0.135544 -0.302601 0.279504
0 0 0
-0.125618 0.11569 0.044089
0 0 0
0.0438031 0.235575 0.168335
-0.142816 0.0814821 -0.169631
0 0 0
0.123043 0.112793 -0.102132
0.0433946 0.280385 -0.0470304
0 0 0
0 0 0
0.280076 0.0328248 -0.146168
0 0 0
-0.23344 -0.144135 -0.191019
0.0787703 0.153951 -0.245954
0.00263484 0.0409985 0.0674123
0.0286865 0.0206758 -0.0235365
0.192502 0.0719205 0.427347
0.0927006 -0.00325859 0.046839
-0.0196356 -0.202291 0.0846133
0.00823025 -0.0177337 0.0414222
0.114746 -0.207346 0.131284
-0.000839246 0.0600094 0.00239455
0.40846 0.23746 -0.119418
0.0515811 -0.0358721 -0.0193998
0.0201353 -0.196018 -0.289685
0 0 0
-0.0596533 0.189842 0.191619
0 0 0
0.0501423 -0.427167 0.158304
0 0 0
0.30251 -0.275503 0.0955181
0.111708 0.00429059 -0.113766
0.182337 -0.0370649 -0.0619874
0.0930207 0.0619085 -0.123695
-0.252729 -0.0356091 -0.0734751
-0.0459998 0.142015 -0.141096
-0.143417 0.0832339 0.244431
0 0 0
0 0 0
0.0232654 -0.0126867 0.0364003
0.01213 -0.201184 0.34338
0.00116713 -0.052081 -0.054934
0.131734 0.0535668 -0.0135226
-0.189767 0.300421 0.000764026
-0.0418238 0.0365339 0.293118
0 0 0
0.0210094 0.11625 0.579709
0 0 0
0.00877675 0.18041 -0.0398713
-0.00220275 0.0122827 0.0608496
-0.0775683 0.0156841 0.022077
0 0 0
0.0184483 -0.000857028 0.0194956
0.0699618 0.557719 0.19892
-0.0209043 0.179518 0.170349
0 0 0
0.0327206 0.00236232 -0.0181439
0.117089 0.181319 -0.0126929
0.554189 0.0392176 0.375199
0 0 0
0.450106 0.189903 -0.0899689
-0.065532 -0.0421565 0.0425013
0.164676 -0.105034 0.108272
0 0 0
-0.114197 0.0319869 -0.052933
-0.0271453 0.0344399 0.0537778
-0.264112 0.092043 -0.335337
-0.022913 0.0603209 -0.0386213
-0.103748 -0.0976188 -0.269608
0 0 0
-0.13398 0.110201 -0.206459
0 0 0
0 0 0
0 0 0
-0.0702926 0.363788 -0.0715266
-0.118824 0.0224604 0.0521292
-0.120355 -0.0294405 0.133512
0 0 0
-0.323999 0.0192548 0.394857
0.000528716 0.0425621 0.0360503
0.0527288 0.170028 0.178117
0.0105699 -0.0562458 0.123445
-0.00264109 -0.0900347 0.0439139
0.0934537 -0.107703 0.104624
0.00319896 0.458819 0.361746
0 0 0
0 0 0
0.00590525 0.25881 0.288375
0.127132 0.254525 -0.328802
0 0 0
0.0910585 -0.127461 -0.0734705
0 0 0
0.0532846 0.0263197 0.0158656
-0.248969 0.0784378 -0.141474
-0.00409094 -0.0305024 -0.104343
-0.0714857 0.111284 -0.10853
-0.129769 0.167188 -0.0282517
0 0 0
-0.0263699 -0.00633761 0.0043864
0 0 0
0.0227449 0.292761 -0.247595
-0.000424085 -0.00878789 -0.0363497
-0.177627 0.0908953 0.358684
-0.525492 -0.180076 0.00819634
-0.375982 0.116401 -0.228164
-0.376514 0.10385 0.208184
-0.0162 0.522637 0.0135903
-4.6744e-05 -0.0739856 0.166785
0.0291813 0.244184 -0.246115
0 0 0
0 0 0
0.000775258 0.0209046 -0.103205
-0.0513865 -0.14673 -0.0247882
0.148749 0.0023814 -0.207211
0.0340439 0.274342 -0.12069
0 0 0
-0.167572 -0.0216239 -0.108228
0.0385589 -0.0150745 0.0304333
-0.00686466 -0.0186428 0.0015522
-0.112596 0.309511 -0.00619026
-0.275316 -0.0967531 0.125324
0.201896 -0.531635 -0.182366
0.084428 0.0393897 0.234115
0.099819 0.467485 -0.278723
-0.310484 -0.0200472 0.259798
-0.152465 -0.0606764 0.0507706
0.0566611 -0.210324 -0.000191492
0.0770414 -0.0147676 -0.0194324
0.0309267 0.0538415 0.137293
0 0 0
0.152402 -0.176613 -0.233374
0 0 0
-0.216965 -0.219265 0.041769
-0.00184359 -0.0519948 -0.0648758
0.031346 -0.079788 -0.160394
0 0 0
-0.289735 -0.383835 0.249665
0 0 0
-0.0252545 -0.0116442 0.196175
-0.0369862 0.227717 -0.359838
0 0 0
0.160099 0.182133 -0.369726
0.00256216 -0.0778869 -0.227606
-0.0408321 0.130027 -0.0777782
0.254359 -0.0338911 -0.0858785
0 0 0
-0.0859192 0.116824 -0.255724
0 0 0
0 0 0
-0.155968 0.0999512 -0.0687424
-0.141625 0.367002 0.222736
-0.0695479 0.0681776 -0.0788561
-0.157982 -0.312211 0.0184745
-0.0149637 0.0451773 -0.0182706
0 0 0
-0.0221455 -0.00354035 0.140878
-0.037864 0.119912 0.113187
0.109421 0.0224701 -0.0511257
0.0590601 -0.0241141 0.249623
-0.00286788 0.0704103 0.0999711
0.0589826 -0.0554919 -0.134435
0.0613734 0.0744659 -0.100154
-0.0771473 -0.0597777 0.088358
0.0560605 0.131099 -0.181429
0 0 0
0.0824493 -0.323929 -0.0831242
0 0 0
-0.141639 0.0771043 0.0721158
-0.256112 0.252111 -0.108983
-0.121948 -0.228568 0.163221
0.065329 -0.105401 -0.056289
-0.0626973 0.182645 0.200704
0 0 0
0 0 0
0.270632 -0.214902 -0.0279743
0.111037 0.0179653 -0.0348396
0.129086 0.191123 0.0224245
0 0 0
0 0 0
0 0 0
0 0 0
0 0 0
0 0 0
0 0 0
0 0 0
0 0 0
0 0 0
0.072545 0.0678911 0.00877628
-0.0014946 0.162352 -0.00763806
0.320253 0.147908 0.184673
0 0 0
0.100852 -0.112276 -0.113017
0 0 0
0.40276 -0.265685 0.354401
0.205784 -0.0886566 0.0155155
0.123827 -0.0427424 -0.0581534
0 0 0
0.0287965 -0.0916209 0.232473
-0.0702757 0.347657 0.161627
0 0 0
-0.00216177 -6.99923e-05 0.0303812
0 0 0
0.00182294 -0.0174697 0.0379656
0 0 0
-0.113178 -0.17545 0.117693
0.0577586 -0.188165 0.0431651
0 0 0
-0.0124583 -0.0118821 0.12259
0.0678415 -0.0423663 -0.114602
0 0 0
-0.000982962 0.00521952 -0.0738359
-0.0665524 -0.088461 -0.449897
0.025783 0.0184188 -0.00493438
-0.194166 -0.295601 -0.299963
-0.0263402 0.152463 -0.136998
-0.0581749 -0.0510443 -0.055321
0 0 0
0.0466242 0.0100981 0.0177768
0 0 0
0.0381659 -0.00625201 0.00514107
0.356581 -0.305086 0.233659
-0.0752312 0.0148335 -0.0861146
0 0 0
-0.03072 -0.44873 0.0396355
-0.1566 -0.0606715 -0.0375522
0.103302 -0.140133 -0.0642118
-0.197607 0.148293 -0.0995234
0.00171243 0.0766831 0.0536239
-0.0314539 0.0402605 0.0327997
-0.0394106 -0.0122626 -0.0357215
0.152846 -0.052054 0.00238981
0.0196052 -0.0440968 0.0456085
-0.0292641 -0.105531 -0.0296991
0 0 0
-0.042157 0.0510793 0.00126743
0 0 0
-0.149433 0.270896 0.293308
-0.0581361 0.103329 0.360781
0.0375818 0.0224295 0.0221252
0.105701 -0.203795 -0.302963
-0.0274593 0.00364557 0.179427
0 0 0
0.142163 -0.0534062 -0.465366
0.0442476 0.150924 0.100393
0 0 0
-0.522655 -0.157371 0.357848
-0.120651 0.03796 0.0374328
-0.0226731 -0.0435907 -0.00359098
-0.0104035 -0.0181875 -0.000234046
-0.0967295 -0.726909 0.0163388
-0.0273721 -0.0314562 -0.0683943
-0.201662 -0.298525 -0.0307856
-0.139951 0.0777509 -0.089755
0.000871201 -0.0559598 0.292692
0 0 0
0.632207 0.123633 -0.100624
0.105402 0.207894 -0.162463
-0.0552134 0.0234697 0.207522
0.292803 -0.0984551 -0.0109643
0.0875458 0.326662 -0.297029
0.144303 0.153341 -0.0268058
0.0862244 0.24495 -0.00951114
-0.0417924 -0.0163753 0.01372
-0.178916 0.114703 -0.0143657
-0.0864599 0.0807599 -0.0429116
-0.119257 -0.0607651 -0.0558294
0 0 0
-0.300042 -0.0320648 -0.306285
-0.0237676 0.0317279 -0.0552173
-0.116539 -0.0494325 0.0751259
-0.0067899 0.163565 -0.0346145
0 0 0
-0.0325694 0.00202179 0.00749232
0 0 0
0.0729647 0.147249 0.112616
0 0 0
0 0 0
0 0 0
0 0 0
-0.028044 0.0600325 -0.372812
0 0 0
0.0119742 -0.246177 0.320265
0 0 0
0 0 0
0 0 0
0.017501 -0.00269934 -0.0561529
0.0982794 0.314085 -0.0704362
0.00548753 -0.119958 0.0752934
-0.00628969 0.0251892 -0.0124814
0.0975567 0.0226731 0.0343996
0.107439 -0.0235883 0.0640386
0 0 0
0.0268281 0.481812 -0.360812
0 0 0
-0.374167 0.271723 0.143994
0.0560439 -0.000120786 0.101904
0.0340492 -0.0486376 0.255251
-0.000259562 0.0517955 0.0379439
0.182595 -0.10819 0.134092
0 0 0
-0.0807904 0.0585202 -0.0667377
-0.197074 0.240036 -0.456945
-0.227935 0.0721208 0.0191316
0 0 0
-0.129788 -0.0561998 -0.0168978
-0.00211848 0.00756635 0.000584596
-0.370293 0.112696 0.289025
-0.0538631 -0.151757 0.0183481
-0.0619456 -0.0388772 0.222962
0 0 0
0.116592 -0.252362 0.0500072
0.187656 0.103563 -0.117818
0.0155316 0.141316 -0.000924532
0 0 0
0.272662 -0.222648 0.0930709
-0.094225 0.0957554 -0.116862
-0.0889241 0.0878449 -0.0565353
-0.0344954 -0.366291 0.233557
-7.64347e-05 -0.0110543 0.00694613
-0.0136155 0.0482228 0.00152595
0 0 0
-0.101288 -0.158147 -0.077072
-0.158909 -0.252279 -0.32721
-0.325419 -0.0240845 -0.18958
-0.235128 0.075146 -0.0610299
-0.0586655 -0.109404 -0.122534
0.103395 -0.0980976 0.266553
0.0449641 -0.0977686 0.253204
-0.105366 -0.193488 -0.0121029
0.0079544 0.0498755 0.0365989
0 0 0
-0.15291 -0.100823 0.0128806
0 0 0
0.065117 0.179823 0.485908
0.0347 -2.69405e-06 0.20561
-0.18683 -0.125769 -0.0581423
0.0227775 -0.222217 -0.470066
0 0 0
-0.0284576 -0.231617 0.394447
0 0 0
0.14849 -0.212374 0.04221
-0.00297201 -0.0398969 -0.00828546
0 0 0
0.279528 0.260042 -0.125664
-0.0014185 0.131966 0.0221757
0.261793 -0.153097 0.0483075
0.133015 -0.0761461 -0.135188
0.112933 -0.168387 -0.182202
-0.00123161 -0.0214174 -0.0499706
0.0182217 -0.0671555 0.0482154
-0.0710076 0.348371 0.210628
0 0 0
0.047774 0.0203319 -0.245125
-0.0205908 -0.101351 0.0328652
0 0 0
0 0 0
-0.0870991 -0.506426 -0.201082
0.0106664 -0.0272588 0.0320077
0.125178 0.0992159 -0.137836
0.0563314 -0.0327667 0.0612012
0.0308527 -0.115229 -0.170014
-0.0468183 -0.0145987 -0.0275139
0 0 0
0 0 0
-0.220009 0.123133 0.2648
-0.00258885 -0.267758 0.123253
-0.0880884 -0.00566705 0.0160152
-0.0335986 -0.12538 -0.0811745
0 0 0
-0.0837894 -0.242835 0.00874211
0.00825589 0.00690849 0.222013
-0.0271109 -0.0472427 -0.00166596
0.0521225 -0.137617 -0.0498461
-0.122406 -0.197297 0.0449107
0 0 0
-0.266816 0.826076 -0.358095
0.0405887 -0.014998 -0.311782
-0.0626414 0.0649181 0.163286
-0.00016553 -0.222145 0.16673
-0.170471 -0.0598773 0.280756
-0.00223422 0.242089 -0.0396427
-0.0347651 0.11063 -0.112752
0.0343401 0.409812 -0.121033
0.384677 0.788994 0.168526
0 0 0
0.365923 -0.323714 -0.0611241
0.0441187 -0.209173 0.14017
0 0 0
0.212287 -0.0834478 -0.0637578
-0.0785403 0.179731 0.323605
-0.0846463 0.0588879 0.00241718
-0.0191946 -0.0550175 -0.0780847
0.000185532 0.0245172 0.0359386
-0.0514911 0.0175228 0.0849951
0 0 0
0 0 0
0 0 0
-0.0982022 -0.0132958 -0.0934427
0.126571 -0.0579031 -0.144676
0.0167796 0.0348966 0.0186803
0.220443 0.174678 -0.102006
0 0 0
0.0467643 0.151618 0.0992204
0 0 0
0 0 0
0.111246 -0.14758 -0.000765506
0 0 0
0.126566 0.715468 -0.194229
0 0 0
0.00837473 -0.0128668 0.0252592
0.0401337 0.0553334 0.0421936
0 0 0
-0.149484 0.0175618 -0.0799641
0 0 0
0.020209 -0.0172571 -0.0230249
0 0 0
0.37075 0.113561 -0.0518903
0.152827 0.252969 -0.0214924
0 0 0
-0.097051 -0.422493 -0.0854883
0 0 0
0.160336 0.0959053 -0.058534
0.000412393 0.0158443 0.11182
0.0421135 0.259122 0.111634
0 0 0
-0.0230343 -0.121425 -0.000911684
0 0 0
0.0140895 -0.161331 0.00526043
-0.0199239 -0.0586483 0.0574238
-0.0347961 -0.0643233 0.00087456
-0.111119 0.0281573 -0.249535
-0.03748 0.145039 0.0483627
0 0 0
0 0 0
-0.0802811 0.0665504 0.0400095
0.0325958 0.368098 0.166051
0.00589439 -0.140476 0.0239862
0 0 0
0 0 0
0.204721 0.203988 -0.415798
0 0 0
0.0360143 0.195563 -0.201434
0.0356933 0.0403477 -0.000809598
0 0 0
0.000596593 -0.0225171 -0.0245063
-0.00293912 -0.240208 -0.212798
-0.130053 -0.178014 0.032762
-0.0262953 -0.067791 0.090404
-0.0435679 -0.0248218 0.062744
-0.159676 -0.0919869 -0.0758289
-0.0202814 -0.188947 -0.428733
0.0131153 -0.208009 0.181177
-0.0917199 -0.141259 0.166113
0 0 0
-0.27754 0.156294 -0.11279
0 0 0
0.139087 -0.130531 -0.0169445
0.0819818 0.107165 -0.0376623
0.524233 0.0619026 0.179468
0.00247623 0.0824873 0.0398713
-0.0884916 -0.215524 0.331777
-0.087793 -0.256215 -0.0153115
0.176642 -0.159143 0.160856
0 0 0
-0.113182 0.126968 -0.0925707
-0.00020515 -0.0326308 -0.0670607
-0.15485 -0.0281984 -0.139561
0 0 0
0 0 0
0.213306 0.415757 -0.0303816
0.12546 0.155781 0.0952541
0.0636849 0.0312498 -0.0382877
0.173601 -0.0387279 -0.139636
-0.11616 0.0207203 -0.0594554
-0.160468 0.0858282 -0.046861
0 0 0
-0.113352 0.0553548 0.13073
0 0 0
-0.195066 -0.297595 -0.158474
0 0 0
0 0 0
0 0 0
0 0 0
-0.150505 -0.0905893 0.0132074
-0.157056 -0.105786 0.201731
0 0 0
0.102405 0.0587285 0.0247618
-0.172358 -0.211149 -0.362672
-0.23506 -0.0370096 -0.109151
0 0 0
0 0 0
0 0 0
-0.00303066 0.0587738 0.00196493
-0.00253435 0.152791 0.449975
-0.17103 0.0626089 -0.0921676
-0.0247776 -0.25113 0.206904
0 0 0
0.16163 0.134527 -0.070983
0 0 0
0.348964 0.120926 -0.0999711
-0.113242 -0.124593 0.149613
0 0 0
-0.0473214 0.285694 0.0198321
-0.0965124 0.00654095 -0.0757193
0 0 0
0 0 0
-0.0756798 -0.031545 -0.000675818
-0.208407 0.155175 -0.00123589
-0.0266341 0.0995126 -0.00370224
0.0810174 -0.0927995 -0.172921
-0.188582 -0.106263 0.302864
0 0 0
-0.0205683 -0.103068 -0.0211571
0.231008 0.261684 0.261532
0 0 0
0.00388583 -0.0537887 0.00736966
0.00728215 -0.0616097 -0.418123
0 0 0
0 0 0
0.00143286 -0.00113113 0.0403503
0.0875155 0.00572995 0.00986865
0 0 0
0 0 0
0 0 0
0 0 0
0 0 0
0 0 0
0 0 0
0 0 0
0 0 0
0 0 0
0 0 0
0 0 0
0 0 0
0 0 0
0 0 0
0 0 0
0 0 0
0 0 0
0 0 0
0 0 0
0 0 0
0 0 0
0 0 0
0 0 0
0 0 0
0 0 0
0 0 0
0 0 0
0 0 0
0 0 0
0 0 0
0 0 0
0 0 0
0 0 0
0 0 0
0 0 0
0 0 0
0 0 0
0 0 0
0 0 0
0 0 0
0 0 0
0 0 0
0 0 0
0 0 0
0 0 0
0 0 0
0 0 0
0 0 0
0 0 0
0 0 0
0 0 0
0 0 0
0 0 0
0 0 0
0 0 0
0 0 0
0 0 0
0 0 0
0 0 0
0 0 0
0 0 0
0 0 0
0 0 0
0 0 0
0 0 0
-0.00171009 -0.0398407 -0.108135
0.122073 0.094407 0.132317
0.000563295 -0.0068203 -0.00401068
0.229968 -0.00334102 -0.0737492
-0.0883606 -0.0235278 -0.240248
0.00206116 0.0392861 0.154593
0.00553033 -0.0279389 -0.149405
-0.0089165 -0.076742 0.187791
-0.0046334 0.082662 -0.121041
-0.0137805 0.0322531 0.0769397
0 0 0
0.00568141 -0.161979 -0.0632974
0.032079 -0.0779862 -0.0593307
0 0 0
0.043301 0.0305455 0.0651423
-0.0527206 -0.0192581 0.147347
0.00545011 0.120828 -0.0219846
0.029172 -0.0864643 0.0449686
0 0 0
-0.0144764 0.134565 -0.147126
0.0218234 0.0694067 0.0594594
0 0 0
0.00563243 0.123819 -0.08558
-0.0269511 -0.150369 -0.0588206
-0.082834 0.0129705 -0.00898275
-0.0212882 0.0425664 -0.0313856
0 0 0
-0.0664671 -0.0676346 0.16764
0.13834 -0.0036389 -0.029646
0 0 0
-0.140972 0.0438877 -0.0979428
-0.0439287 0.0499553 -0.00191791
0 0 0
-0.00653277 0.0265309 0.0162663
0 0 0
-0.0576153 -0.0081715 0.0689266
-0.0141692 -0.0177273 -0.065392
0 0 0
0.109994 0.00448768 0.17243
-0.00140139 -0.33268 -0.282634
0.0139699 0.29005 0.303317
-0.00066235 -0.00422409 0.00460242
0 0 0
-0.074176 0.0232343 0.0250757
0.0207055 0.00233196 0.0676973
0 0 0
0.0123318 -0.0198356 -0.201955
0.0436618 0.00144174 -0.0177938
-0.0578516 -0.00339728 -0.143145
-0.0445239 -0.0266738 0.0372887
0 0 0
0.0223465 0.003192 0.185069
-0.0207376 0.0160703 -0.0184748
0 0 0
0.0386149 -0.00777036 0.0541045
0.0241945 0.022585 0.373317
0.0010192 0.127513 -0.28494
-0.155071 -0.00279382 -0.0283242
0 0 0
-0.0148596 0.217941 -0.0755089
-0.0709375 -0.0100702 0.0767184
0 0 0
0.0305652 0.0152532 0.0249277
0.00155918 -0.00748146 0.0852255
0.232814 0.0993282 -0.0160623
0.0538928 0.0147406 -0.15706
-0.157409 0.157301 0.0426828
-0.0859734 0.158948 -0.10767
-0.141533 0.236222 -0.15807
-0.175548 -0.0508828 0.216801
-0.528009 0.0124002 0.130724
-0.0559167 0.0506069 0.00301148
-0.432435 0.174977 -0.110752
-0.260701 0.269929 -0.301933
-0.0196649 -0.0479222 0.106002
-0.347206 0.112063 0.2923
-0.0507455 0.0886321 0.1393
-0.000615079 0.118245 -0.0795753
0 0 0
0.147877 0.117181 -0.184111
-0.00137421 -0.118923 -0.00430367
0.149152 -0.00807783 -0.118537
0.0436636 0.0255366 0.0102169
0.364412 -0.246035 0.0614801
0.0780493 -0.0304738 -0.1821
-0.126557 0.031515 -8.03897e-05
0.0664967 -0.0122029 -0.023256
0.0949192 -0.0772974 -0.00720718
0.181332 0.210377 -0.174453
0 0 0
0 0 0
0.125369 0.119241 0.340144
-0.0497946 0.0510665 0.00137442
-0.17666 -0.176481 -0.0359932
-0.00126773 -0.00161104 -0.0206575
0.0937798 -0.0387187 -0.0125155
0.100981 0.0221717 -0.0358402
0.121802 0.0114279 -0.0560013
-0.0245543 0.00449609 0.00133296
-0.0212096 0.386376 0.261603
0.0534556 -0.348644 0.211979
0 0 0
0 0 0
0 0 0
0 0 0
-0.109536 -0.0291161 0.0922029
-0.0430455 -0.0517087 -0.0226438
0 0 0
0 0 0
0.0178169 0.0566636 0.0322346
0.00097323 0.130604 0.165119
-0.106463 -0.271647 -0.025617
0 0 0
0 0 0
-0.15712 -0.219291 0.122621
-0.00982102 -0.0701891 0.134229
-0.303352 0.132492 -0.000908591
0.0997257 -0.0748494 0.077084
0.0565185 -0.10635 -0.014081
-0.152878 -0.0164319 -0.000268101
0 0 0
0.0642303 0.212945 -0.059736
0 0 0
0.119535 -0.585679 0.395189
0.107953 0.140462 0.484978
0.0972213 -0.176464 0.0689908
0.0842441 0.192046 0.0474916
0.183157 -0.127751 0.233667
-0.0521291 -0.51157 -0.077249
-0.0812684 0.0107053 -0.193724
-0.288526 -0.0226405 -0.325889
0 0 0
-0.079429 0.109622 0.034111
-3.55716e-05 0.342548 0.237289
-0.288258 -0.0867726 -0.00893588
0 0 0
0.00404556 -0.194694 -0.0527711
-0.178416 -0.0286529 -0.383482
-0.0457114 -0.220503 -0.169476
0.461306 0.118904 -0.192988
0.044247 0.00915935 -0.00354451
-0.108723 0.188889 -0.129871
0 0 0
0 0 0
-0.104352 -0.0057953 0.0889325
-0.0331403 0.249056 0.0238
-0.13599 0.00740246 0.33542
0.052961 0.000174977 0.0932282
0.245973 0.108057 -0.26667
0 0 0
-0.127655 0.0763493 0.000525807
-0.00338712 -0.0216375 0.0295719
-0.242348 0.174021 0.428094
0 0 0
0 0 0
0.23228 0.11634 0.243191
0 0 0
0.116472 -0.000684663 -0.144771
0.189385 -0.399295 0.0753413
-0.00186157 0.199093 -0.166687
-0.173738 0.136127 -0.405542
0 0 0
-0.394808 0.399135 0.0550249
-0.138015 0.105795 -0.130559
-0.0923552 0.0730766 0.130876
0 0 0
0.212932 -0.187606 0.174344
0 0 0
-0.207461 -0.0793685 -0.239918
0 0 0
-0.0542102 0.0215217 -0.220296
-0.315709 -0.024503 0.139604
0 0 0
0.101651 0.224209 0.129608
-0.0463594 -0.0481842 0.076872
0.198637 0.0461374 0.302857
0.0249251 0.195985 0.0614049
-0.0253905 -0.0763799 -0.0425107
0.111082 -0.036694 0.415322
0 0 0
0 0 0
0.404681 -0.023324 0.0727562
0 0 0
0.0609976 0.0678713 -0.142047
0.0334894 0.0179308 -0.0172063
0.177499 -0.0570098 0.189188
-0.443186 -0.0467964 -0.0433553
0.000103242 0.195894 0.158439
-0.379221 -0.178445 0.12423
0.304735 0.0337106 0.258774
0.0499305 0.0435148 0.021333
0.108703 0.000652794 -0.0234175
-0.522389 -0.0142396 0.15796
-0.234218 -0.00729097 0.0121674
0.0191805 -0.0938083 -0.225525
0.00849156 0.00557304 -0.00146545
-0.119176 0.09375 -0.23148
0 0 0
0 0 0
-0.180938 0.229971 -0.10817
-0.0297274 -0.0907949 -0.000122188
0.0116895 -0.0322189 0.0297714
0 0 0
0 0 0