<?xml version="1.0"?>
<VTKFile type="RectilinearGrid">
<RectilinearGrid WholeExtent="0 32 0 32 0 32" Origin="0 0 0" Spacing="1 1 1">
<Piece Extent="0 32 0 32 0 32">
<PointData>
</PointData>
<Coordinates>
<DataArray type="Float32" format="ascii">
0 0.524874 1.04975 1.57462 2.0995 2.62437 3.14924 3.67412 4.19899 4.72386 5.24874 5.77361 6.29849 6.82336 7.34823 7.87311 8.39798 8.92285 9.44773 9.9726 10.4975 11.0224 11.5472 12.0721 12.597 13.1218 13.6467 14.1716 14.6965 15.2213 15.7462 16.2711 16.796 
</DataArray>
<DataArray type="Float32" format="ascii">
-5.03879 -3.62163 -2.20447 -0.787311 0.629849 2.04701 3.46417 4.88133 6.29849 7.71565 9.1328 10.55 11.9671 13.3843 14.8014 16.2186 17.6358 19.0529 20.4701 21.8872 23.3044 24.7216 26.1387 27.5559 28.973 30.3902 31.8074 33.2245 34.6417 36.0588 37.476 38.8931 40.3103 
</DataArray>
<DataArray type="Float32" format="ascii">
0 0.524874 1.04975 1.57462 2.0995 2.62437 3.14924 3.67412 4.19899 4.72386 5.24874 5.77361 6.29849 6.82336 7.34823 7.87311 8.39798 8.92285 9.44773 9.9726 10.4975 11.0224 11.5472 12.0721 12.597 13.1218 13.6467 14.1716 14.6965 15.2213 15.7462 16.2711 16.796 
</DataArray>
</Coordinates>
<CellData>
<DataArray type="Float32" Name="Vector" NumberOfComponents="3" format="ascii">
0 0 0
0 0 0
0 0 0
0 0 0
0 0 0
0 0 0
0 0 0
0 0 0
0 0 0
0 0 0
0 0 0
0 0 0
0 0 0
0 0 0
0 0 0
0 0 0
0 0 0
0 0 0
0 0 0
0 0 0
0 0 0
0 0 0
0 0 0
0 0 0
0 0 0
0 0 0
0 0 0
0 0 0
0 0 0
0 0 0
0 0 0
0 0 0
0 0 0
0 0 0
0 0 0
0 0 0
0 0 0
0 0 0
0 0 0
0 0 0
0 0 0
0 0 0
0 0 0
0 0 0
0 0 0
0 0 0
0 0 0
0 0 0
0 0 0
0 0 0
0 0 0
0 0 0
0 0 0
0 0 0
0 0 0
0 0 0
0 0 0
0 0 0
0 0 0
0 0 0
0 0 0
0 0 0
0 0 0
0 0 0
0.0916305 -0.00645104 -0.0716386
0.0782053 0.00954841 0.0835773
0.0279999 -0.0245958 0.0583355
0.329106 0.203993 -0.0486869
-0.119755 0.162985 0.0482072
0 0 0
0.151666 0.0519708 0.0343842
0.0104326 0.0727066 0.0451406
-0.0013653 -0.0417468 -0.00234096
-0.210807 -0.0581743 -0.0206422
0 0 0
0.107386 0.0124638 -0.0568973
0.159972 -0.277496 0.0566163
0 0 0
0.0458786 -0.19408 -0.116294
0.225937 0.0927321 -0.0592866
0.190961 -0.115686 -0.0687571
-0.146877 -0.103571 0.00822121
0 0 0
-0.0795617 0.081813 -0.00238638
-0.173104 0.00799434 -0.0563096
0 0 0
0.0695169 0.155304 0.0178735
0.0639508 -0.0180133 0.0897003
-0.0127508 -0.170701 -0.136195
0.112685 0.167272 -0.047408
0 0 0
-0.0496368 0.0484477 -0.0330571
-0.0662577 0.0825645 0.0653547
0.00523802 -0.00225004 -0.119978
-0.192651 0.0205645 -0.12395
0.029101 0.125555 0.0995508
0.169761 0.0727168 -0.0294899
0.0406868 0.0172602 -0.0711893
0 0 0
0.361994 -0.257483 0.0125661
-0.00830043 0.0245252 -0.0465255
0 0 0
-0.385482 0.453712 -0.000255648
0.115464 0.0365317 -0.0294148
0.00806685 0.00510899 -0.00636484
-0.0393361 -0.013989 0.0123247
0 0 0
-0.109382 -0.160513 -0.0831078
-0.220721 -0.0350478 0.00494672
0 0 0
0.0595408 -0.0768077 0.0874482
-0.0143153 -0.0843306 0.0557453
0.0102073 -0.0916725 -0.0546239
-0.046663 -0.0483574 0.102074
0 0 0
-0.136136 -0.048611 -0.0317307
-0.0925276 -0.0141415 0.118795
0 0 0
0.118496 -0.0783242 -0.0201908
0 0 0
0 0 0
-0.216016 0.0188581 0.00581019
0 0 0
-0.00483361 0.0100034 0.0755125
-0.144594 -0.0361494 -0.00269563
0 0 0
0.00235079 0.0958839 0.0983917
0.0792308 0.0557814 -0.0174201
0.200831 -0.185355 0.080453
0.0978388 -0.0961987 -0.00326491
0.0352039 -0.348229 0.0510211
0.0882925 -0.22418 0.0413558
0.00777966 0.310241 -0.163949
0.153649 -0.10305 -0.145217
0.00490623 0.13341 -0.167152
-0.00824802 0.094045 -0.271958
-0.046929 0.236164 -0.414369
0 0 0
0.0661728 0.0425181 0.00129202
0.196314 -0.199623 -0.0429012
-0.188759 0.00873246 -0.110383
-0.0716112 0.0792657 0.105987
0 0 0
0 0 0
-0.221242 -0.0936646 0.0566301
-0.262047 0.0905721 0.412862
-0.182844 0.0489004 -0.161569
-0.47315 0.238184 0.0990434
-0.539593 -0.12466 0.136772
-0.0564319 -0.17827 0.0764639
0.148716 -0.149813 -0.0573285
-0.0942519 -0.00266843 -0.0051131
0.0992636 -0.254528 2.86861e-05
-0.0229577 0.0600479 0.135926
-0.000521092 0.00916902 0.018496
0.120835 0.0830127 -0.187066
0.0540311 -0.0611283 -0.0469876
0.338905 0.243567 0.186681
-0.0641218 0.183124 0.0659417
0.0179014 0.221862 -0.0669368
0.381187 0.318951 0.0914716
0.16327 0.156003 -0.302473
0.0526118 -0.316803 -0.0953467
0 0 0
0 0 0
0.189514 -0.275376 0.15628
0.320401 -0.0953667 0.137625
0 0 0
0 0 0
0.018932 0.00828122 -0.00977095
0.298455 -0.00439782 -0.195066
0.106677 0.459708 0.525066
-0.0103785 0.101686 -0.165649
0.118764 -0.173096 0.0347333
0.13014 0.00731949 -0.021832
0.0383199 0.168293 -0.185087
0.109713 0.240313 -0.16226
0.196898 0.0392192 -0.113182
-0.000638909 -0.0290024 -0.01048
0.209846 -0.134785 0.335079
0.178326 -0.546983 -0.239817
0 0 0
0.132499 0.0648158 -0.525382
0.0644797 -0.249114 0.0351509
0.209089 0.0441653 -0.168062
0.10746 8.47201e-06 0.0027096
-0.0747688 -0.0006331 -0.100487
-0.0114399 0.148345 -0.061288
-0.52871 -0.253629 -0.131912
-0.226594 -0.283449 0.115021
0 0 0
0 0 0
0 0 0
0 0 0
-0.378043 0.0236648 0.501134
-0.0158284 -0.010166 0.000870535
-0.426872 -0.395876 -0.132582
0 0 0
0.136239 -0.247327 -0.154641
0 0 0
0.362925 0.0493178 0.100388
0 0 0
0 0 0
-0.0862327 -0.069473 -0.00564827
0.10821 -0.0650439 -0.101094
0 0 0
0.176103 0.0455706 0.0556295
0.090287 0.193635 -0.086161
-0.146976 -0.195475 -0.0936479
-0.00116102 0.0907545 -0.0249748
0.0536945 -0.0303727 -0.103474
0 0 0
0 0 0
-0.0139723 -0.17097 -0.06186
-0.0683703 0.293413 -0.0682836
-0.523794 0.217393 -0.044826
-0.0352257 0.0308749 -0.0463874
-4.2205e-05 -0.0601078 -0.0203991
0.125776 -0.0642046 -0.157358
0.119875 0.26926 -0.0886203
0.422715 0.523628 -0.28651
0 0 0
-0.00607269 -0.0272107 -0.23673
-0.147533 -0.134266 -0.174828
0.169714 0.339157 -0.220021
0.202762 0.0129029 0.0740138
-0.135955 0.00706009 0.217869
-0.00453652 0.00425958 0.00622886
-0.137036 0.0938632 0.276835
0 0 0
-0.00880638 -0.0860377 0.0421033
0 0 0
0.0522086 -0.241776 -0.0974259
0 0 0
-0.074963 -0.0960377 0.340137
-0.0441496 0.227786 -0.18674
0.159343 -0.0864071 -0.367885
0.141033 -0.0482886 0.252348
0.0286483 -0.217114 -0.0198844
0 0 0
0.00606012 -0.00412867 0.00839591
-0.0299585 0.0675287 0.234275
0 0 0
-0.18737 0.222069 -0.309189
-0.0715261 -0.123499 -0.0110204
0 0 0
0.217803 -0.133044 -0.111811
0.0990496 0.0177132 0.535428
-0.000669265 -0.015586 -0.316555
-0.131909 -0.028968 -0.169507
0 0 0
0.111418 0.363869 0.083463
0 0 0
0.0234251 0.0869628 0.00101971
0.0200705 0.135555 -0.0485161
-0.0131157 -0.0855449 0.0151207
-0.418503 -0.00848104 -0.00932201
-0.266881 0.0786447 0.499321
-0.0490649 -0.00394644 0.225399
0 0 0
0 0 0
-0.00576339 0.0327577 0.153679
-0.0394591 -0.00075433 0.0325158
0.17732 0.30031 0.331635
0.0881405 0.0190516 0.156025
-0.242147 0.0260223 0.195236
-0.270875 0.0484571 0.079573
0 0 0
0 0 0
-0.224798 0.0284289 0.000930259
0.110701 0.207324 0.14536
0.0776041 1.1269 0.205851
-0.0638031 0.187046 0.0263745
0 0 0
0.306813 -0.0735679 0.00174009
0 0 0
0.0424466 0.140183 -0.000706656
-0.0243399 -0.241241 0.527589
0.217775 -0.190562 -0.259733
0 0 0
-0.0180641 -0.0448153 0.00395465
-0.152267 0.191326 0.035151
-0.248596 -0.266878 -0.046981
-0.0960575 0.281659 0.120124
-0.025888 0.0950748 0.0645764
0.0200528 0.447318 0.336886
-0.0193295 0.0144933 -0.0182679
0.0281678 0.126565 0.0100434
-0.0541064 0.0981017 0.0606744
-0.252276 -0.0824247 0.117241
-0.118755 -0.0126841 0.121083
0 0 0
0.198648 0.374147 -0.220372
0.158163 -0.118836 0.160637
0 0 0
-0.025595 0.00866352 0.0157957
0.268903 -0.0337403 0.00287644
0 0 0
0.198912 0.319898 -0.104734
-0.224343 -0.0531937 0.0965184
0.136017 0.066398 0.00267458
0 0 0
-0.00114084 0.00713879 -0.0765221
0.0393452 0.098523 0.0399396
-0.227691 0.185216 -0.11166
0.0763086 0.0780643 0.149868
0.0375174 0.0249775 0.00838628
0.192981 -0.0441847 0.0092656
-0.0160833 0.044371 -0.0880767
-0.0557145 0.0524248 -0.219547
0.0011125 0.0940429 -0.0416675
0.00943341 -7.98465e-05 -0.105632
-0.165218 0.0613431 -0.12941
0 0 0
-0.0963453 0.374285 -0.0718897
-0.28779 0.129002 0.0204859
-0.1547 0.0768639 0.0256779
-0.0633912 0.0504991 0.0362297
0.0111502 0.0461975 -0.117306
-0.0507439 -0.0198229 -0.164425
0 0 0
0 0 0
0.0835982 0.0355905 0.180737
0.0210857 -0.0386342 -0.0314928
0.110658 0.0300317 0.00210252
-0.00477353 -0.00088844 0.00492867
0.0790313 -0.079942 -0.0163062
0.0924603 0.00631928 -0.150063
0 0 0
-0.0382053 -0.301344 -0.529594
0.0414698 0.145652 -0.175276
0 0 0
0.376696 0.257632 -0.0388461
0.14338 -0.0635531 -0.00147817
0.162648 0.16099 0.0559205
0 0 0
0.355747 0.153611 -0.245785
0.0574974 0.0113778 -0.113124
0.114117 -0.409586 -0.0174964
-0.0368902 -0.407738 0.297389
-0.173157 -0.12009 -0.346949
-0.0515302 -0.014892 0.315182
0 0 0
-0.114745 0.135247 0.0375223
0.086362 -0.195622 -0.0913584
0.0450592 -0.143624 -0.171825
0.0898563 0.0964654 -0.0197204
-0.00259922 0.203845 0.107008
0 0 0
-0.0169951 0.00967397 -0.000564353
0.0565084 -0.0213011 -0.110591
0.149085 0.00245627 0.110288
-0.00388496 -0.018937 0.144751
0 0 0
-0.0136488 -0.0396325 0.000251993
0 0 0
0 0 0
-0.0176558 -0.0823385 -0.00164328
-0.0506096 0.225948 -0.19195
0 0 0
0.0640741 0.171435 -0.222545
0.0668682 0.354722 -0.436566
0 0 0
0.139283 -0.152577 -0.0329861
0.00203717 0.0731329 0.0897919
0.0617657 0.000425019 -0.00385474
0.174916 0.128882 0.0109413
0.0705124 -0.107251 -0.0451273
0 0 0
0.240579 0.104617 -0.0619288
-0.00438912 -0.188757 -0.119856
-0.137423 0.0193871 0.0666427
-0.324729 -0.0116278 0.0912979
-0.0555723 0.0856945 0.00815466
-0.00731397 0.174949 -0.0463511
-0.0778293 0.732064 -0.300982
0.00032867 0.190054 -0.0846772
0.0167338 -0.00557357 -0.0134638
0 0 0
-0.0725839 0.00288982 0.0357236
-0.172887 -0.190187 0.0764066
-0.0873845 0.011332 0.122207
-0.0777275 -0.285778 0.253212
0 0 0
0.232967 -0.1756 -0.0607451
0.15399 -0.0905721 0.17946
0.488236 -0.152524 0.359215
0.0634889 -0.0118392 -0.0431562
0 0 0
0.232173 -0.460513 0.422761
0.0555557 0.0494196 -0.0859592
0.271296 0.408008 0.0327007
0 0 0
0.0331312 0.0532556 -0.0639369
0.285811 0.0893297 -0.0611389
0.217716 -0.168671 -0.0643431
0.0569278 0.0500518 0.0566819
0.294451 -0.0768154 -0.0137471
0.000403946 0.0166493 -0.0099804
0 0 0
-0.162287 0.034225 0.0449486
-0.166972 -0.0799485 0.0173007
0.04987 0.19135 -0.245815
0.0136663 -0.00428837 0.0112289
-0.0837891 -0.151899 -0.0675292
0.159743 -0.269635 -0.253859
0 0 0
0.314223 0.917003 -0.101099
0.114432 -0.03409 0.00184384
0.0520791 -0.0488415 0.157537
0.076255 -0.069974 0.207353
0 0 0
0.213629 -0.418881 0.372067
-0.00661523 -0.00820032 4.30743e-05
-0.0294327 -0.358945 0.0662449
0 0 0
-0.0540217 -0.0648985 0.182492
0 0 0
-0.12652 0.307237 0.138086
-0.00137869 0.12824 0.330584
0 0 0
-0.000122667 0.0461562 -0.000422381
-0.0460817 0.076592 0.120736
-0.200903 0.62571 0.428803
0 0 0
-0.14285 -0.0355806 -0.0372032
0 0 0
0.197208 -0.174324 -0.173153
0.000537648 0.185697 -0.00238472
0.00828913 0.000923461 -0.00707319
0 0 0
0 0 0
-0.000312037 0.00118477 0.0542022
0.325252 -0.437147 0.113768
0.00126256 -0.0288728 -0.00783879
-0.00968003 0.122565 0.293966
-0.115907 -0.0276874 -0.0642273
-0.0577034 -0.0247816 -0.157883
0.000130824 0.00645202 0.0111307
-0.00844034 -0.0886008 -0.00974487
-0.128151 -0.156295 0.05742
-0.246233 -0.151474 0.0707962
-0.0183248 -0.0594154 -0.0779674
0 0 0
-0.14143 -0.288653 0.45418
-0.0232002 -0.037503 -0.0311615
0 0 0
0.408422 -0.494882 -0.106614
-0.175539 -0.324146 -0.0206334
0.142164 -0.263149 0.207211
0.385753 0.12045 -0.0398505
0 0 0
-0.0122648 -0.00344065 -0.0406752
0 0 0
-0.0434827 0.409619 0.094432
0 0 0
0 0 0
0.0901149 -0.539263 0.506593
0.00852533 -0.00547868 -5.5127e-05
0 0 0
-0.260889 0.357165 -0.0068323
-0.00685076 0.0133469 0.00136388
-0.0349411 0.33307 0.109827
0 0 0
-0.00029712 0.0309253 -0.131197
-0.0167572 -0.00539933 0.00802655
-0.162674 0.0336748 -0.278392
0.0949507 -0.0195458 0.0914506
0 0 0
0 0 0
0.0497205 0.133648 0.0528295
-0.0486584 -0.147922 0.116799
-0.112943 0.0498891 0.129861
-0.00739371 0.113544 0.0145794
-0.0454952 -0.0963439 0.0208201
0.224781 -0.0750336 -0.330757
0.0642806 0.143776 0.0362818
-0.154267 -0.157058 -0.104604
-0.148232 -0.0273392 -0.0874373
0.275608 0.0286154 0.0942045
0 0 0
-0.0245216 0.00186798 0.00256183
-0.0438313 0.00431641 -0.0285449
0.0132369 -0.180237 0.000760302
-0.0476409 -0.0671528 -0.0534065
-0.0508287 0.142144 -0.200689
0.0338227 0.123951 0.012306
-0.192435 0.257179 -0.00139487
-0.124223 -0.244063 -0.135915
-0.1336 -0.219954 0.135655
0 0 0
0.0251587 0.0333814 -0.0441797
0.0192924 0.0394535 -0.0289599
0.193623 0.0334169 -0.0683447
0.100168 0.0791516 0.0489223
0 0 0
0.000968036 0.099178 -0.054653
-0.0160102 0.103495 -0.0269857
-0.0709114 -0.118696 -0.12122
-0.115067 -0.19956 0.0763713
-0.00240253 0.0985444 -0.0994995
-0.112249 0.109972 0.225399
0 0 0
-0.0270139 -0.0363672 -0.068193
-0.0956955 0.0830681 -0.0684322
-0.195205 -0.04756 0.0672941
0 0 0
0.114643 0.00207984 -0.0340209
0 0 0
0.0301013 0.143887 -0.0415316
0 0 0
0.192986 -0.00124954 0.0162278
-0.00931755 -0.0229718 -0.0204854
0.22272 0.152416 -0.121377
0.00144833 -0.19921 -0.0294188
0 0 0
-0.076532 -0.036875 -0.000263404
0 0 0
-0.00579483 -0.0489836 -0.00629803
0 0 0
0 0 0
3.80359e-05 -0.0590136 -4.3958e-05
0.0538331 0.219799 -0.0267751
-0.0875086 -0.119298 0.0442209
0.112334 -0.0566534 -0.0909885
0 0 0
-0.071304 -0.0103948 0.0214428
-0.0247416 0.031355 0.0454356
0.0556024 -0.0350073 -0.0909642
-0.00879719 -0.00544988 -0.016663
0.0147395 0.175616 -0.0929041
0.00331679 0.0008147 0.037767
0.0429351 -0.0400078 -0.171125
0 0 0
-0.0412118 0.0561481 0.103069
0.112371 -0.382601 -0.149104
0.431696 -0.442762 -0.262628
0 0 0
0.054609 -0.337722 0.387205
0 0 0
0 0 0
0 0 0
-0.0505069 -0.390645 -0.139913
0 0 0
0 0 0
0.13996 -0.0129678 0.108365
0.00192472 -0.0179029 -0.00048105
-0.0139151 0.126004 0.051361
0 0 0
0.00238128 -0.0596625 -0.0180328
0 0 0
-0.0617329 -0.0211835 -0.193576
-0.106752 0.00106024 0.0600895
0.178759 0.00393079 0.189142
-0.160968 0.0183116 0.0994846
0.0326875 0.0240999 -0.0347735
0.0133516 0.00760689 -0.00857273
0 0 0
0.030885 0.0574187 0.0602347
0 0 0
0 0 0
0 0 0
-0.158864 -0.0086263 -0.000639161
-0.0124384 0.0450746 0.0574322
0.357817 -0.234408 0.00494418
0.00570881 0.000394691 -0.00358667
0.157241 0.0875458 -0.130896
0.343808 -0.466966 0.540747
0 0 0
0.0725933 -0.323037 -0.28598
0 0 0
0.128121 -0.114347 -0.528578
0.288541 -0.0905756 -0.308612
0.399391 0.0325395 -0.146016
0 0 0
-0.0664673 -0.211183 0.0673194
0.0370696 -0.0591508 -0.00321788
0.0217146 0.0199985 0.128374
0.185991 -0.0148994 -0.268993
-0.0027192 0.060658 0.129357
0.1234 -0.156765 -0.161481
-0.00112502 0.00505657 -0.180251
-0.11245 -0.0787661 -0.171809
-0.000305101 0.0210531 -0.040608
-0.136947 -0.106025 0.0652644
0.0103026 0.144134 -0.164418
-0.130656 -0.178346 0.0437086
0 0 0
0.0144062 0.071268 0.00425213
0 0 0
0.259732 0.0838912 0.0102948
0.0682925 0.00908412 0.0504946
-0.00047511 -0.0579934 0.0013404
0.0483615 0.0203823 -0.12388
0 0 0
0.0852485 -0.032083 0.00128805
0.0968273 -0.0662206 -0.09355
0.0516403 0.0444634 -0.0382204
0.443484 -0.269593 -0.0862783
0.130074 -0.179863 -0.242382
0.430454 -0.450146 0.0984583
0.211436 -0.0212784 -0.0275882
0.017922 -0.0397765 -0.0265817
0.157357 -0.158217 -0.0144553
0.179837 -0.300205 0.033472
-2.71558e-05 -0.0534388 0.00912126
0.00145409 0.163502 0.0609293
0.00386682 -0.00539949 0.00457827
-0.175906 -0.0329491 0.0428312
0 0 0
0 0 0
-0.0427096 0.0101766 -0.275596
0 0 0
-0.28072 -0.367001 0.242985
0 0 0
-0.0279463 -0.301739 -0.0676872
0 0 0
0.132438 0.110013 0.0123468
0.014901 0.0192545 -0.0819373
-0.383826 -0.067007 -0.014409
0 0 0
0.12554 0.10655 -0.0767308
0 0 0
-0.0940604 0.055646 0.0165739
0.331946 0.0145353 0.0894115
0.0802275 -0.0763508 0.0261873
0 0 0
-0.264553 -0.27159 0.333964
0.102621 -0.313761 -0.468462
0 0 0
0 0 0
0.0879241 -0.0810626 0.0306121
0.138832 -0.069379 0.249212
0.0947255 0.0083919 0.0586631
0.184768 0.22923 0.265089
0.109921 0.00999454 -0.0999478
0 0 0
-0.146769 -0.318274 -0.206758
-0.534946 0.240658 -0.0453079
-0.2782 -0.13712 -0.0673288
0.118154 0.0794996 0.162093
-0.0472915 0.157092 0.154427
0 0 0
0.624276 -0.336861 -0.433603
0 0 0
-0.0207564 0.0232624 -0.00354834
0.00449761 -0.105576 0.0039456
0.24896 -0.249505 0.264007
-0.00201315 -0.00509538 0.156184
0.030344 -0.122932 0.361449
-0.0704482 0.054268 0.28555
0 0 0
0 0 0
-0.039295 -0.116438 -0.000725499
0 0 0
0.0631431 0.0619134 0.0113853
0.0385308 -0.0110769 -0.100423
0.326103 0.189777 -0.00122012
0.127538 0.00247216 -0.0831583
0.0404762 -0.0469354 -0.122759
0.0544944 -0.0968242 -0.0924407
0.0211345 0.0471703 0.0127898
0.0561375 -0.0433666 0.127763
-0.222304 0.0208211 0.00190119
0 0 0
-0.0135656 -0.194081 0.0804488
0.0616131 0.143539 -0.06086
0 0 0
0 0 0
0.0692837 0.0601828 0.198883
0 0 0
-0.192649 -0.305913 -0.189892
0.151495 0.0885903 0.125782
0.372551 0.0722848 0.0255739
0.154693 0.103271 -0.109266
0.0523097 -0.344751 -0.093937
0 0 0
0.169097 -0.205434 -0.00126308
0.14595 -0.0954822 -0.102493
0 0 0
0 0 0
-0.0516935 -0.0180776 0.000239075
0 0 0
-0.0729874 -0.170919 0.00288049
0 0 0
-0.0878557 0.31169 0.302446
0.0503714 -0.104122 0.0654328
0.0246103 -0.0555328 0.0342218
0 0 0
0 0 0
0.167775 0.0815649 -0.340342
0 0 0
0.166177 0.0924123 0.00399128
0 0 0
-0.0523046 0.0479926 -0.16381
0.258397 -0.305901 -0.0416715
0.0694534 -0.0571807 -0.0165837
0.0352193 -0.111017 0.0175025
0.0651417 0.0477374 -0.028765
-0.000377117 -0.0554694 0.0141144
0.0190142 -0.0322375 -0.023543
-0.0709337 -0.227659 -0.00223675
0.249655 -0.264659 0.0469138
-0.00172227 0.0103592 0.0412346
-0.0032066 0.0249276 -0.10022
0.0122951 -0.00974544 6.69651e-05
0 0 0
-0.254663 -0.251623 -0.0493644
0 0 0
0 0 0
0 0 0
0.00265522 0.0471039 0.0839851
-0.261239 -0.213653 -0.274232
-0.0590868 -0.0346638 0.0103236
0 0 0
-0.364969 -0.357575 -0.146248
-0.0267685 0.0303568 -0.00164721
0.0350426 -0.00230424 -0.000270288
0 0 0
0.110023 -0.0743044 0.00442259
0 0 0
0 0 0
0.064707 0.054207 -0.195567
-0.0793153 -0.0209616 -0.00271033
0 0 0
0 0 0
0.160966 0.136365 0.0954544
0 0 0
0 0 0
0 0 0
0 0 0
-0.0547129 0.26258 0.284334
0.13964 0.0893108 -0.0786411
-0.0906617 -0.16175 -0.0513548
0.10782 0.0012152 0.161317
0.0833254 -0.362183 0.229561
-0.0932935 0.0889966 -0.399551
-0.190291 -0.0401122 0.178019
0 0 0
-0.337902 -0.258369 -0.519722
0 0 0
0.0555143 -0.562449 -0.112339
0 0 0
0 0 0
0.363092 -0.0367893 -0.00560835
0.0552866 -0.0156517 0.0363866
0.310794 0.209302 0.205577
0 0 0
0.240265 0.212737 0.202635
0.500453 0.199564 -0.2922
0 0 0
-0.00644701 -0.0277278 -0.000232775
-0.0292789 0.149918 -0.176161
0 0 0
-0.0627526 -0.0215635 -0.0956386
-0.00302888 0.0463162 -0.0792018
0.17015 0.0682466 0.00399994
0 0 0
0.0329048 -0.033843 0.00669337
0.131432 -0.0208207 0.0754997
0.065306 0.00274494 -0.0575315
0.301289 -0.172562 0.191882
0.0950428 -0.0641821 0.00451651
0.117538 -0.0979204 0.0764929
0.150325 -0.212465 -0.196281
-0.00340301 -0.0116602 -0.0604855
0.1111 -0.0677291 0.0805866
0.135888 -0.0199789 0.0497489
0.000929306 -0.12481 -0.0414484
0.0568063 -0.0530911 -0.0883576
0.29407 0.262692 -0.401667
0.343686 -0.0853743 -0.0525694
0.114881 -0.0753985 -0.402794
0 0 0
0.0803132 0.0818814 -0.227488
0 0 0
-0.0772962 -0.529832 0.335105
0 0 0
-0.0303765 -0.0349747 -0.0226845
0.0179317 0.0320231 0.000449682
0.306315 0.0818012 -0.318945
0.0343354 -0.0327075 0.261858
-0.0104059 0.0585313 -0.0672912
0 0 0
0.080003 0.0312867 -0.0628475
0 0 0
-0.0922169 0.0218566 0.0828053
0 0 0
0 0 0
0.0388391 -0.307655 -0.0289211
0.0103021 -0.0160644 0.0293789
0 0 0
-0.0562727 -0.0933525 0.159573
0.567906 0.305088 0.0150692
0.297512 0.169163 -0.281875
0 0 0
0.281034 -0.505706 0.271099
0.0372051 0.0779821 -0.0401863
0 0 0
0.421129 0.155246 -0.14399
0.151779 -0.15355 0.0875922
0 0 0
-0.147978 0.14803 -0.0433847
-0.267925 0.0102338 -0.10879
0 0 0
-0.115627 -0.147532 -0.289663
0.0178533 0.036063 -0.234721
0.024331 -0.00322504 -0.00839987
0.178117 0.00354327 -0.0788152
0.00584001 0.00140599 -0.00143076
-0.161246 -0.0397883 -0.0200659
0 0 0
0 0 0
-0.0388699 -0.0961612 0.243819
0 0 0
0.0518275 0.0573018 0.299129
0.0336372 0.127952 -0.122607
0.153149 0.138893 0.202191
0.138196 0.0327911 -0.354597
-0.014346 0.123023 -0.156125
-0.108294 -0.272324 0.519121
0 0 0
0.350838 -0.0116422 0.0364217
0 0 0
0.0125629 -0.573588 0.0990832
-0.00451152 0.115789 0.0171795
-0.304691 0.230625 0.140047
0 0 0
0.113078 -0.04135 0.0907469
0 0 0
0.158638 -0.581264 -0.416989
0 0 0
-0.0311951 -0.421932 0.127517
-0.0748553 -0.0288429 -0.13306
-0.0687701 -0.126528 0.0720289
0 0 0
-0.106424 0.109861 0.121593
0 0 0
0.0340647 0.10249 -0.00208155
0 0 0
-0.0311354 -0.239409 -0.232437
0 0 0
-0.227265 0.0833202 -0.0327849
0.220068 0.243379 -0.553951
0.0501921 0.000758368 -0.270777
0.120689 0.145075 -0.0405657
0 0 0
0 0 0
0.225264 -0.258192 0.208107
0.11423 -0.165284 0.0514572
0 0 0
-0.0218525 -0.0275135 0.00632585
0 0 0
-0.217754 -0.420186 0.411171
0 0 0
0.361924 -0.51311 -0.0968344
0.104471 -0.165107 0.00770243
0 0 0
-0.12883 -0.043547 0.135992
0 0 0
0.123782 -0.13238 0.0650068
0 0 0
-0.0975721 0.185164 -0.328856
0 0 0
0 0 0
0.109666 -0.0890015 -0.26581
0 0 0
0 0 0
0.0862859 0.322793 0.00187041
0 0 0
0 0 0
0.0101022 -0.0190543 0.000227352
0.0405563 0.542 0.564815
0.00903914 0.0874808 0.0718368
0 0 0
0 0 0
0 0 0
0 0 0
0 0 0
0.00659184 -0.0316158 -0.106813
0.241384 0.00616797 0.0761176
0.159647 -0.0945736 0.205797
0.325255 -0.259782 -0.0401797
0.141205 0.0435496 0.025235
0.170705 -0.153919 0.117951
-0.0829077 0.114258 0.350536
0 0 0
0 0 0
-0.051702 -0.113767 0.0799998
0 0 0
0.0326743 0.104829 -0.16763
0.133877 -0.138046 -0.00376751
0 0 0
0.0042285 0.271603 0.0492345
0 0 0
0.0498899 -0.010407 -0.0385815
0 0 0
0.0512641 0.0284023 0.0377949
0 0 0
-0.108077 0.226165 0.285329
0 0 0
0.21618 0.442855 0.369405
0 0 0
0.0556903 0.150936 0.0370651
0 0 0
0.0494326 0.036524 -0.121088
0 0 0
-0.230444 -0.0346164 -0.0913604
-0.199617 0.241384 -0.0429748
-0.176062 0.0616109 0.18866
0.162091 -0.108409 0.00592575
0.136182 0.217953 0.357169
-0.170424 0.0574439 -0.0569493
0 0 0
0.139423 0.267471 0.109036
0.0301585 0.0268757 -0.0471623
-0.171567 -0.142271 -0.0412583
-0.0893611 0.0739715 -0.309136
-0.211159 0.0464821 0.0905147
-0.24658 0.304982 0.384835
-0.252391 0.110931 -0.108985
-0.192713 0.0367557 0.173056
0.0179674 -0.00234208 -0.0116722
-0.154926 0.0569806 0.119424
-0.0938743 -0.109887 -0.118516
-0.0304118 -0.00399293 -0.162667
0.340992 0.106034 -0.160221
0.0078032 0.0309794 0.0705757
-0.0184076 -0.126962 -0.236713
0.0388893 0.0409005 0.0153645
0.313 0.376975 0.177149
0.00246971 -0.0364235 -0.0841686
-0.00116424 -0.120684 0.0470563
0.0380592 -0.225636 -0.0195701
0 0 0
0.156492 -0.190168 0.113387
0 0 0
-0.10014 0.153731 -0.387428
-0.138442 -0.00670556 0.22836
0 0 0
0.0162131 0.288961 -0.000458639
0 0 0
-0.179995 0.0442951 -0.182421
0 0 0
0.0190517 0.0970545 0.00263795
0 0 0
0.0294414 0.225053 -0.0867328
0.100302 0.0242346 -0.00310698
0 0 0
0.32253 0.0290956 -0.276998
-0.097848 -0.0704686 -0.19438
-0.0830847 0.0645122 -0.0675274
-0.164871 0.104031 -0.195781
0.0306878 -0.0865702 -0.118051
0 0 0
-0.154717 -0.172882 -0.0534237
0 0 0
-0.259866 0.0762871 -0.198734
0 0 0
-0.22788 -0.0653234 0.0268138
0.000235766 -0.139191 -0.212475
0 0 0
0 0 0
-0.237418 -0.0132967 0.0758432
0 0 0
-0.0960994 0.190933 0.231572
0 0 0
0.0472906 -0.0468105 0.187653
0 0 0
-0.124098 0.184626 -0.118762
-0.0602298 -0.00181836 0.000263464
0 0 0
-0.0833935 -0.0612351 0.283879
0 0 0
-0.15889 -0.115418 -0.104406
-0.0917623 0.0170592 -0.0920549
0.0699509 0.0983358 -0.00286095
-0.273596 -0.198772 0.0847104
-0.320543 -0.330998 0.0839206
-0.00131425 0.155182 0.0808054
-0.196212 -0.0821783 -0.212636
-0.111057 -0.0180151 0.00109866
-0.0146677 -0.0389036 0.0018128
-0.294747 0.000845582 -0.182696
-0.17333 0.154342 -0.208405
0.253599 -0.00154192 0.0989288
0 0 0
-0.00179844 -0.00625052 -0.0164373
-0.24632 -0.0400522 -0.497359
-0.0613472 -0.222138 -0.0673019
-0.0656874 -0.00399325 -0.0159533
0.115499 -0.0851856 -0.123374
-0.300603 0.114115 -0.201952
-0.0474249 0.014224 0.0231962
0.0970561 0.0251422 0.130775
0 0 0
0.0396624 0.0605262 -0.11636
0 0 0
-0.0467119 -0.121266 -0.410389
0.102141 0.0486619 0.169149
-0.220114 -0.0990792 0.004708
-0.188455 0.016499 0.184655
-0.000145982 0.098672 -0.18233
-0.0631708 -0.133568 -0.0574715
0 0 0
0 0 0
-0.024467 0.00634881 0.106569
0.0437183 0.00134575 -0.00263569
0.0270682 0.0974943 -0.0698411
-0.122621 0.0442745 -0.0176312
-0.000400961 -0.0237334 0.104792
-0.505213 0.0218119 -0.149991
-0.0935517 -0.0890583 0.139134
0.0187862 0.0864535 -0.0373379
-0.291928 -0.0319321 0.0578288
0 0 0
0.0929741 -0.21335 -0.285154
0.0206138 -0.0260002 0.0448931
0.164914 -0.185317 -0.222582
0 0 0
0.144867 0.0165432 0.514805
0.00882409 0.00524637 0.00882856
0.305755 0.177467 -0.347548
0 0 0
0 0 0
0 0 0
0 0 0
0 0 0
0 0 0
0 0 0
0 0 0
0 0 0
0 0 0
0 0 0
0 0 0
0 0 0
0 0 0
0 0 0
0 0 0
0 0 0
0 0 0
0 0 0
0 0 0
0 0 0
0 0 0
0 0 0
0 0 0
0 0 0
0 0 0
0 0 0
0 0 0
0 0 0
0 0 0
0 0 0
0 0 0
0 0 0
0 0 0
0 0 0
0 0 0
0 0 0
0 0 0
0 0 0
0 0 0
0 0 0
0 0 0
0 0 0
0 0 0
0 0 0
0 0 0
0 0 0
0 0 0
0 0 0
0 0 0
0 0 0
0 0 0
0 0 0
0 0 0
0 0 0
0 0 0
0 0 0
0 0 0
0 0 0
0 0 0
0 0 0
0 0 0
0 0 0
0 0 0
0 0 0
0.0925843 -0.10655 -0.130449
-0.0787333 -0.0552376 0.111457
0 0 0
-0.103694 -0.0398428 0.00346596
-0.0701104 0.16464 0.232271
5.95235e-05 -0.211677 -0.0330023
0.00911768 0.0133137 0.1459
0.0122015 -0.011292 -0.0464859
-0.0043784 0.0687886 0.0506815
-0.0209539 -0.0114746 0.381851
0.00149894 0.0393471 -0.131857
-0.0265703 -0.0990491 0.122045
0.0273605 -0.0907734 0.0472221
0 0 0
0.043295 0.0323411 -0.104782
0.0703278 -0.0151612 0.0235203
0.0446824 0.0449185 -0.145034
0.0789486 0.0890413 0.119844
-0.000867906 -0.0187263 0.0232792
0.0927616 -0.0692813 0.100275
0.0100409 -0.0387715 -0.0728883
0.000789321 -0.0575982 0.0432963
0.0775651 -0.045885 -0.0579889
-0.0217199 0.221477 0.103255
-0.0314715 -0.354448 -0.184302
-0.034999 0.172443 -0.111999
0 0 0
0.0393042 0.00235884 0.122216
-0.221464 0.0312746 -0.0252746
0 0 0
0.0512147 0.0246322 -0.0210087
0.050978 0.142921 0.117436
-0.047356 0.0245828 -0.00466066
0.0267432 -0.0287487 -0.0133402
0 0 0
0.030883 -0.0122099 0.0384103
-0.0802879 0.012048 -0.0610648
0.000389017 0.0280501 0.0243927
-0.00707046 0.065356 -0.0673413
0.0271791 0.12101 0.254131
-0.000340276 -0.0189473 -0.185594
0.0590851 -0.00723082 -0.263954
0 0 0
0.0338435 0.0217569 0.0791363
-0.00920562 0.00244163 0.0167346
0 0 0
-0.0910054 -0.0831948 -0.0168439
0 0 0
-0.0178337 0.0202868 0.0672144
-0.000838205 0.0593403 -0.0526504
0 0 0
-0.0776125 0.00491457 -0.152704
-0.0504952 -0.00928674 -0.0347286
0 0 0
0.00759048 0.00126971 0.00594034
0.00444562 0.109725 0.256039
-0.0344193 -0.0495015 -0.180751
0.0926614 0.00301548 0.0972771
0 0 0
-0.01073 -0.00329974 0.0356993
0.186765 0.0495845 -0.0361049
0 0 0
-0.0105359 -0.0585868 0.0216687
0.00485337 -0.0229543 0.0217754
0.166277 0.741578 0.00338138
0 0 0
-0.0280282 0.178185 0.235072
0.156986 -0.378494 0.436001
0.01714 -0.243922 -0.313984
-0.00324185 -0.199728 -0.113226
0.157381 0.253342 0.162796
0 0 0
0.0125772 -0.14876 -0.267197
-0.0471131 0.100125 0.275177
0.168486 -0.396487 -0.189913
0 0 0
0.0318734 0.0665116 -0.202355
0.0620662 -0.0577434 0.202735
0.230415 0.318479 -0.00279953
0.0618611 -0.216675 -0.122916
0 0 0
0 0 0
-0.0865757 -0.215656 0.350045
0 0 0
0 0 0
0 0 0
0.0626362 -0.108443 -0.0774003
-0.137374 0.0732658 -0.071149
0 0 0
-0.416555 0.0438782 0.0695868
-0.0651731 -0.041147 -0.065148
0.322033 -0.663411 0.012272
0.0146238 -0.00668433 0.0223695
-0.276637 0.323661 -0.0415861
0.140184 0.0602459 0.156338
-0.00247483 -0.13305 -0.0196212
-0.0273318 0.0704009 0.00523721
0.0275239 0.00599259 -0.0127205
0.26812 -0.0669583 -0.206872
-0.303161 -0.326108 -0.0152742
-0.0928014 -0.162743 0.122638
0 0 0
-0.200341 -0.483094 -0.112437
-0.0694368 0.0851961 0.0818382
0.19973 -0.103414 -0.42494
0.367783 0.0252002 -0.0965952
0 0 0
-0.0334298 0.0110885 0.314873
0.000331062 -0.00164751 0.0134011
-0.0722613 0.0688157 -0.0202392
-0.0809988 0.483136 0.0962925
-0.0188302 0.00560776 -0.0531113
-0.0374623 -0.0394292 -0.0935764
0.0603378 -0.0487459 0.0611694
0.459222 -0.0428836 0.231335
0.00320844 -0.0939422 0.0102047
0 0 0
0.001431 -0.048656 0.0937167
0.270215 0.222056 -0.25845
-0.213333 0.000762624 -0.213022
0.307612 0.0372552 -0.0291991
0.088989 0.0877451 -0.0848755
0.349811 -0.382908 0.461658
-0.376995 -0.313803 -0.0286613
-0.240678 -0.177547 -0.356935
-0.004788 0.134551 -0.123895
0 0 0
-0.107448 0.669239 -0.301075
-0.0378083 0.660145 -0.268157
0.00479046 0.0717189 -0.0460714
0.106088 -0.215462 0.526302
0.290975 -0.0747429 0.186208
0.0033884 0.0841407 -0.00175507
0 0 0
0 0 0
0.350953 -0.00118269 0.325195
0.0234308 0.0114489 0.117674
0.160416 0.0215248 0.241589
0.0248428 -0.0185628 0.0246209
0.169817 -0.255988 -0.378262
0 0 0
-0.0835007 0.232053 0.0271631
-0.223089 0.0630439 -0.0758938
0 0 0
0.29496 0.0123838 -0.329254
0.00161505 -0.00981229 -0.0642776
0.00396234 -0.0115358 -0.0156305
0.284288 0.0831603 -0.352473
0 0 0
-0.314802 0.227479 -0.0160693
0 0 0
0.174254 0.110382 -0.204675
0 0 0
0.0142889 -0.150657 -0.241596
0.00950633 0.0372165 -0.071172
0.113981 0.10977 -0.168918
-0.0241799 -0.0461278 -0.0293838
0.212777 0.299309 0.225482
0 0 0
0.043048 0.0641794 0.00104626
-0.0488997 -0.148709 -0.0297784
0 0 0
-0.15757 -0.674849 0.0687686
0.00666051 0.0221814 0.07734
-0.246714 0.0231544 -0.279248
0 0 0
-0.02351 0.0636645 0.000832254
0 0 0
0.209763 -0.0803038 -0.00288989
0.150532 -0.461145 -0.183676
0.0198966 -0.173926 0.0359798
0.185616 -0.0704429 -0.0881368
0.0619819 -0.0368805 -0.160053
-0.280065 0.00714175 0.232344
0.076028 -0.0295314 -0.069304
0.1139 -0.0288436 0.107282
0.124854 -0.0877523 0.043612
0.019001 0.0944955 0.0172411
0.273157 0.0052698 0.162634
0.0736424 0.0372677 0.00565259
0.0164765 0.0599163 -0.063243
0.0385501 0.188364 -0.303939
0 0 0
0.268416 -0.242453 0.0868224
0.273563 0.271432 0.105902
0.247598 -0.239012 0.209308
-0.0973502 0.143579 0.157476
-0.127065 0.119955 -0.0443835
0 0 0
0.0191951 0.266671 0.197159
0 0 0
0.127496 -0.124862 0.013751
0 0 0
0 0 0
0.089597 0.093952 0.150272
0.331963 -0.0631247 -0.122175
0.407674 -0.158438 0.408785
0.0845786 0.0680192 0.0310803
0.0753942 0.151479 -0.0821034
0.00206071 -0.314251 -0.204041
0 0 0
0.0187585 0.00476948 0.141489