<?xml version="1.0"?>
<VTKFile type="RectilinearGrid">
<RectilinearGrid WholeExtent="0 32 0 32 0 32" Origin="0 0 0" Spacing="1 1 1">
<Piece Extent="0 32 0 32 0 32">
<PointData>
</PointData>
<Coordinates>
<DataArray type="Float32" format="ascii">
0 0.524874 1.04975 1.57462 2.0995 2.62437 3.14924 3.67412 4.19899 4.72386 5.24874 5.77361 6.29849 6.82336 7.34823 7.87311 8.39798 8.92285 9.44773 9.9726 10.4975 11.0224 11.5472 12.0721 12.597 13.1218 13.6467 14.1716 14.6965 15.2213 15.7462 16.2711 16.796 
</DataArray>
<DataArray type="Float32" format="ascii">
-5.03879 -3.62163 -2.20447 -0.787311 0.629849 2.04701 3.46417 4.88133 6.29849 7.71565 9.1328 10.55 11.9671 13.3843 14.8014 16.2186 17.6358 19.0529 20.4701 21.8872 23.3044 24.7216 26.1387 27.5559 28.973 30.3902 31.8074 33.2245 34.6417 36.0588 37.476 38.8931 40.3103 
</DataArray>
<DataArray type="Float32" format="ascii">
0 0.524874 1.04975 1.57462 2.0995 2.62437 3.14924 3.67412 4.19899 4.72386 5.24874 5.77361 6.29849 6.82336 7.34823 7.87311 8.39798 8.92285 9.44773 9.9726 10.4975 11.0224 11.5472 12.0721 12.597 13.1218 13.6467 14.1716 14.6965 15.2213 15.7462 16.2711 16.796 
</DataArray>
</Coordinates>
<CellData>
<DataArray type="Float32" Name="Vector" NumberOfComponents="3" format="ascii">
0 0 0
0 0 0
0 0 0
0 0 0
0 0 0
0 0 0
0 0 0
0 0 0
0 0 0
0 0 0
0 0 0
0 0 0
0 0 0
0 0 0
0 0 0
0 0 0
0 0 0
0 0 0
0 0 0
0 0 0
0 0 0
0 0 0
0 0 0
0 0 0
0 0 0
0 0 0
0 0 0
0 0 0
0 0 0
0 0 0
0 0 0
0 0 0
0 0 0
0 0 0
0 0 0
0 0 0
0 0 0
0 0 0
0 0 0
0 0 0
0 0 0
0 0 0
0 0 0
0 0 0
0 0 0
0 0 0
0 0 0
0 0 0
0 0 0
0 0 0
0 0 0
0 0 0
0 0 0
0 0 0
0 0 0
0 0 0
0 0 0
0 0 0
0 0 0
0 0 0
0 0 0
0 0 0
0 0 0
0 0 0
0.0116407 0.0194153 0.147052
-0.0501446 -0.186695 -0.0121481
0 0 0
-0.163472 0.0631693 0.00151718
-0.0778174 0.203407 0.137402
0 0 0
0.0347268 -0.135736 -0.0185008
0.014624 -0.138963 0.0594157
0.111529 -0.0367938 -0.114266
-0.177645 0.187777 -0.000153918
0 0 0
-0.0497913 -0.0930841 0.0452907
-0.00319906 0.159486 -0.0590548
-0.00359409 0.0535158 0.0549003
0.0141975 0.00290249 -0.034449
-0.153342 0.0113729 -0.0434634
-0.0492955 0.165813 0.0772574
-0.160023 0.128649 -0.00252145
-0.00128761 -0.0328749 -0.00474191
0.101594 -0.0794031 0.00642728
0.0243099 0.0995086 -0.0532421
0.00349107 -0.0738572 0.0208601
-0.0690337 -0.0520744 0.0419434
-0.0123495 -0.0236323 -0.05424
0.00353355 -0.0170872 0.101749
0.0378216 0.025803 0.0186444
-0.0102393 0.0104901 -0.0109428
-0.0684227 -0.114721 -0.0390802
-0.0156543 0.0435866 0.0328839
0 0 0
0.0676256 -0.0513806 -0.0447315
-0.0651049 -0.135101 -0.0370554
0.0885782 0.0488429 -0.0942119
-0.0120167 -0.00439144 -0.0370527
0.0167134 -0.0157468 0.0849459
0.403452 -0.0633676 -0.157855
-0.0453079 0.0499487 -0.144294
0 0 0
-0.150072 -0.155478 0.112061
-0.00213973 -0.0146169 0.0481883
0.0280834 -0.0279697 0.0266506
-0.142505 0.00404766 0.054201
0 0 0
0.0202233 -0.05087 0.0203684
-0.352668 -0.185872 -0.0162206
0.0013766 -0.0310413 0.0175491
-0.0108478 -0.00351689 0.0454318
0.0248956 0.0383044 -0.0156997
0.00470982 -0.0642327 0.0132073
0.0132328 0.0102214 -0.00969566
0 0 0
-0.340866 0.319302 -0.00532275
0.052733 0.0294412 -0.0330609
0 0 0
-0.206258 -0.314473 0.00386072
-0.0185496 0.00568049 -0.079456
-0.0546284 -0.0741459 0.0289324
-0.110887 0.123817 -0.0966245
0 0 0
0.0698739 -0.0275847 0.0967851
-0.104913 -0.257113 -0.00227929
0 0 0
0.0125616 -0.0138214 0.0110913
0.233748 -0.000181795 0.0966043
-0.255882 -0.0648703 -0.221575
0.148004 -0.0718037 -0.0986842
-0.114258 0.0360942 0.203859
-0.00450104 -0.0389472 0.0795632
0.156283 -0.077277 0.00115121
0 0 0
-0.137288 0.358016 0.285847
0.00160713 0.423984 0.0427885
0 0 0
0 0 0
0 0 0
0.201419 0.0330266 -0.0366935
0.0111329 0.00214974 -0.0187459
0 0 0
0.0830744 -0.101115 0.125045
0.113264 -0.297767 -0.347474
0.251448 -0.0355689 -0.00989948
0.15863 -0.0467634 -0.0440968
0 0 0
-0.105794 0.14287 -0.0349017
0.195381 -0.0449494 -0.120558
0.0202438 0.0805859 -0.057294
0.24038 -0.141183 -0.0856266
0.0819312 0.210038 0.00187725
-0.0635331 0.136089 -0.00193925
0.0735222 0.231282 -0.151551
0 0 0
0.092976 0.0261771 0.116345
0 0 0
0.00235018 0.0578074 -0.139885
0.0150573 0.0465466 -0.2284
-0.0470021 -0.0301423 0.0811431
0.0714094 -0.0372044 0.0682316
0.0951179 0.149678 0.0187079
0 0 0
0.0176956 -0.232853 -0.35918
-0.00361352 0.136664 0.24542
-0.013901 0.00479436 -0.0338771
-0.311013 0.130809 0.0734762
-0.0132277 0.0788214 0.519075
-0.0365524 -0.0504975 0.0221803
-0.000350326 -0.0200175 0.00211135
-0.0781578 0.29616 -0.143923
0 0 0
0 0 0
0 0 0
0.0143963 0.00261234 -0.0128938
0 0 0
-0.0273224 -0.0161775 -0.161862
0.144056 0.440135 -0.10809
0 0 0
0.302488 0.405656 0.0960691
0.388081 -0.2093 -0.0685155
0.334812 -0.287826 0.163724
0 0 0
-0.00105347 -0.0660135 -0.0516406
0 0 0
0.456222 0.0642046 0.169366
0.00809339 -0.000952595 0.00891248
-0.0492302 -0.0249674 -0.0202605
0.0587839 0.0832317 -0.00116384
0.300672 0.08604 -0.302775
0.128057 -0.0274087 -0.293887
0 0 0
-0.0490792 0.170738 -0.00030687
-0.0229895 -0.160996 0.20903
-0.150846 -0.117298 -0.212739
-0.176276 -0.0761985 0.059099
-0.0512078 0.0797274 -0.00921724
-0.109321 0.1653 0.0529204
0.0281118 -0.264897 -0.231741
0.155695 -0.0383167 -0.117055
0.0178413 0.00737821 0.0138209
0.460296 -0.0565003 0.0714598
0 0 0
0 0 0
-0.148994 0.410255 0.0374921
0 0 0
-0.33216 0.0521689 0.303635
-0.15577 0.1705 -0.271784
-0.227558 0.0566334 -0.209932
-0.0173053 0.0308516 0.0194211
-0.072645 0.060811 -0.100815
0 0 0
0 0 0
-0.00413228 -0.0204232 0.128103
0 0 0
0.0241529 -0.276634 0.105231
0 0 0
0 0 0
0.0412069 0.19749 0.176666
0 0 0
-0.0124664 0.0128057 -0.00719081
-0.000141228 0.0158008 0.0569273
-0.133487 0.200192 -0.0560788
0 0 0
-0.0645828 -0.13408 -0.0113053
-0.201111 -0.0822054 0.0140672
0 0 0
0.000488553 -0.0268171 -0.0151635
-0.163406 0.0608998 0.112797
-0.031689 -0.314748 0.00807676
-0.0597263 -0.225963 0.159341
-0.203338 0.346573 0.26722
-0.408163 -0.101177 -0.243395
0 0 0
-0.00337742 -0.313323 -0.223548
0 0 0
0.135605 -0.0365758 0.372122
0.0692423 -0.0722903 -0.00451108
0 0 0
-0.0349927 -0.0204363 -0.0823125
0 0 0
0.0384306 0.0852446 0.216109
0 0 0
0.0250585 -0.0733987 -0.113009
0.00868475 0.0744276 -0.103975
0 0 0
-0.0235631 -0.669904 -0.164314
0.0218036 -0.14513 0.0844833
0 0 0
0.0549803 -0.491967 0.488336
0 0 0
-0.367189 -0.229017 0.0189025
-0.517144 0.423324 -0.311173
-0.242091 0.189607 -0.467145
-0.210487 -0.195292 -0.0508141
-0.107591 0.162874 0.0436548
-0.00924982 -0.0959441 0.0689682
-0.00770739 0.0693503 0.0777542
-0.291867 -0.462668 0.0278025
0.19404 -0.281015 -0.132593
0.154781 -0.00686037 0.0473452
0.311934 0.202936 0.181899
0.179542 -0.688989 -0.123536
0.0985646 -0.0950188 -0.316903
0.0562748 0.0715166 -0.0701427
0.0657283 -0.158104 -0.273628
0 0 0
-0.0356357 0.0417053 0.000566168
0 0 0
-0.177692 -0.12428 0.228418
0 0 0
-0.0239408 -0.61026 0.0700539
0 0 0
0.118239 0.292433 -0.00307648
0 0 0
-0.00600306 -0.0230706 -0.389611
0 0 0
-0.0702514 0.033432 -0.0861372
0 0 0
0.468749 -0.185723 -0.0291685
0.188662 -0.106767 -0.0859275
-0.0206537 -0.0334944 0.0297213
0.262828 -0.0485326 -0.00217293
-0.20111 0.026652 -0.170219
0 0 0
0.0395587 0.167457 -0.0630577
0.0144073 -0.0166686 -0.0672325
0.103344 -0.0516455 0.276196
0.0303146 0.0425275 -0.0962653
-0.10484 -0.247861 -0.216417
-0.225218 0.00147792 0.003794
0 0 0
-0.0335539 -0.136666 0.14582
0 0 0
0 0 0
-0.000570527 -0.0259349 -0.0405538
0.0144271 0.115061 0.0445749
0.257195 -0.11813 -0.492499
0.0447615 -0.0276149 -0.0129474
0.31627 0.0184718 -0.214748
0.241299 0.0874758 0.261994
0.260745 -0.488401 0.16958
0.479885 -0.0636317 -0.106925
0.194352 -0.107516 0.241166
0.0109722 0.196823 -0.0156193
0 0 0
0.451729 0.151057 -0.103731
0.0383951 0.0840011 -0.0238217
0.0225419 -0.0444073 0.0707365
0.019563 -0.0279783 -0.0533488
0.00398095 -0.176135 -0.0233265
-0.0410376 -0.151048 -0.00781837
0.0765828 -0.209478 0.169227
0 0 0
-0.109693 -0.11487 0.00617441
0 0 0
0 0 0
0.0616187 -0.0975157 0.0253347
0 0 0
0.243664 0.366839 0.120903
0 0 0
0.075143 0.173061 0.0825202
-0.087737 -0.0613103 0.203474
-0.238426 -0.0802366 -0.381225
-0.0152287 0.0822161 -0.00121776
0.210525 0.27376 -0.0823778
0 0 0
0.0335243 0.254503 0.236556
-0.0019279 0.0255674 0.00366735
0.129936 0.0579806 0.0958914
0.102958 0.0577364 -0.249925
-0.0280258 0.0363524 0.0454516
0.0968658 -0.183616 0.110972
0.112323 -0.334328 -0.256887
0 0 0
-0.0427387 0.0211214 -0.0039331
0 0 0
0 0 0
-0.0954369 0.0341391 -0.175411
0.0328823 0.183609 -0.178161
-0.188238 0.226905 -0.08743
-0.00729013 0.0483178 -0.000382477
0.000500729 -0.0252236 -0.0556484
-0.0459878 0.19993 0.0525825
0 0 0
0.342711 -0.0096425 -0.112825
0 0 0
0.687166 0.0338937 0.379106
0.23582 -0.113819 0.0689832
0.174088 0.351885 0.139915
0 0 0
0 0 0
0.0796563 0.127845 -0.00698425
0.112173 0.181923 0.0202893
0.0210467 0.0224799 -0.0341372
-0.0822992 -0.0436862 0.0414629
0 0 0
-0.10072 -5.14866e-05 0.0710447
-0.0574419 0.0443749 -0.0649839
-0.102206 0.257327 -0.0727625
-0.190209 0.450696 -0.312625
-0.0527233 0.189233 0.0237811
0 0 0
0.0423059 -0.0928237 0.0309073
0 0 0
-0.341183 -0.299166 -0.013801
0 0 0
0.266565 -0.208239 0.137593
0 0 0
-0.182331 0.289996 -0.459237
-0.0657726 -0.106481 -0.120339
0.118977 -0.0715281 -0.23638
0.198745 0.138873 0.137183
-0.0113009 -0.00693546 -0.026784
0.00299244 0.228804 -0.496055
-0.0767064 -0.0160174 -0.0434397
-0.00166165 0.0717331 0.00459241
-0.225323 -0.116139 0.00367919
0 0 0
-0.00405515 0.0431853 0.0175439
0.0709024 0.0352223 -0.000378102
0 0 0
0.374003 0.13747 -0.073116
0.0802336 0.200117 -0.0393327
0.00735876 0.0129897 0.00396194
-0.0370232 -0.0824885 -0.0924012
-0.0721551 0.142512 0.0578535
0.000606258 0.106914 -0.0117102
-0.0658626 0.0719158 0.0978464
-0.179948 -0.143373 0.320452
0.139871 0.235672 -0.172204
0.316297 -0.0239864 -0.0498623
0.273142 -0.0730465 0.165691
-0.063328 0.023965 -0.200836
0.0857396 -0.00165852 0.108981
0.314127 -0.159807 0.499804
0.168928 -0.0717303 -0.107332
-0.0145567 0.00562306 -1.936e-05
-0.00108335 -0.00908753 0.00138996
-0.103589 0.0520188 0.00152097
0 0 0
-0.00353076 0.196109 0.0165088
0.20601 -0.299817 -0.304736
-0.3076 -0.392286 0.188028
0.117334 -0.233898 -0.0209209
0 0 0
0 0 0
-0.0446838 0.280218 -0.139949
0.104656 0.00517922 -0.00723225
0.0842978 0.0221761 0.270639
0 0 0
0 0 0
0.0184361 -0.0145226 -0.0217627
0.00706411 0.0071789 -0.0187056
0 0 0
0 0 0
0.040739 0.0239588 -0.0419704
0.395988 0.746362 -0.0881161
0.206453 0.391549 -0.165142
0.783136 0.200324 0.422329
0 0 0
-0.0630353 -0.0138208 -0.0169668
-0.120218 0.253863 0.0256036
0.276953 0.110832 -0.50834
0 0 0
0.0755224 -0.00443279 0.139013
0 0 0
-0.24412 0.290971 -0.0353507
0 0 0
0 0 0
-0.113231 0.113532 -0.0873852
-0.0189206 0.0352338 -0.0476297
-0.113686 -0.187335 -0.087645
-0.0622989 -0.230994 0.143503
0.264029 -0.12816 -0.0384273
-0.0171889 -0.0372904 -0.0655748
0.108452 0.0473936 -0.041829
0.000523993 0.0109715 0.130777
-0.213421 -0.00812338 0.307714
0 0 0
-0.14795 -0.0459353 0.11504
0 0 0
-0.0737951 0.258941 0.0252416
0 0 0
-0.0921823 0.304888 0.111197
-0.0182925 0.120192 0.0496677
-0.00106102 0.0388698 0.0109161
-0.142551 -0.129048 0.218986
0 0 0
0.13846 0.269095 0.0847341
-0.0744692 0.423089 -0.229113
0.0405373 0.0437986 0.00203907
0.124098 0.0765684 -0.0888202
-0.000517617 0.0382246 0.0773854
0.0888874 0.0957279 -0.0493768
-0.0104452 0.00162599 6.31726e-05
-0.0256946 0.0166218 -0.200186
-0.424973 -0.0731241 -0.308105
0 0 0
-0.27207 0.0655237 -0.274511
-0.0732478 -0.0163808 -0.0577202
0.0072439 -0.00420845 0.00482598
0.0283625 -0.0554108 -0.258265
0 0 0
0.0373187 0.00350692 -0.0259781
0 0 0
-0.0774743 0.0780136 -0.00974445
-0.10767 0.186701 0.367013
-0.171085 -0.116609 0.157497
-0.109539 -0.113221 -0.00214737
-0.0975688 -0.0233544 -0.0545013
-0.0168015 0.10976 -0.226967
0 0 0
-0.071431 -0.118423 -0.128541
-0.145287 -0.000372481 0.0258494
-0.101659 -0.0414387 0.0586205
-0.0895265 0.0952406 -0.0600991
-0.0887635 0.633476 -0.00118678
0 0 0
-0.127396 -0.164934 0.166116
-0.065038 0.00135381 -0.0248647
0 0 0
0.0371726 0.171559 -0.116019
0 0 0
-0.12595 -0.13371 -0.282665
-0.0290313 0.0295413 0.0604441
-0.0665204 0.453191 0.329215
-1.17405e-05 0.016578 0.0412783
-0.144327 -0.0331979 0.129352
0 0 0
0.018396 0.074911 0.00364572
-0.338747 0.21406 -0.0379542
-0.107106 0.283224 0.0830049
0.00298343 -0.0660275 0.262721
-0.00926343 0.0992171 0.153394
0 0 0
0.175864 0.11607 0.0633375
-0.0126347 0.109101 0.374552
0.0642387 0.09095 -0.0343604
0.214074 0.19985 0.0478936
-0.0882746 -0.0137783 -0.156792
0.036577 0.0360776 0.21693
0 0 0
0.0202421 0.0673295 0.103106
0 0 0
-0.204848 0.00349744 0.0694501
-0.443874 -0.0976746 -0.247739
-0.214397 -0.0683822 -0.133621
-0.495576 0.279723 -0.210874
-0.239594 0.355529 -0.205376
-0.2527 0.351306 -0.296527
0 0 0
-0.0602112 -0.29875 -0.0544752
0.0630924 0.0514523 -0.185346
0.546654 0.0346972 0.0763559
0 0 0
-0.106911 -0.326043 0.0112301
-0.00102415 -0.0813608 0.17467
0.136607 0.054539 0.134941
0 0 0
0 0 0
0 0 0
-0.0701689 0.143425 -0.087514
-0.0938237 -0.023033 0.198833
0 0 0
0.164292 -0.208617 -0.0357429
0.12579 -0.019069 -0.0429645
0.350835 0.168343 0.150588
0 0 0
0.0962219 -0.0689105 0.0499112
0.041203 -0.104185 -0.0951629
0 0 0
0.065333 -0.00839211 0.0286225
-0.144601 0.109044 -0.0027481
0.134061 -0.0528383 -0.0129068
0.513897 0.262003 -0.0999014
0 0 0
0 0 0
-0.111432 -0.062851 -0.134175
0 0 0
-0.234146 0.00267709 -0.0181958
0 0 0
0.0597109 0.796014 0.125344
0 0 0
0.137235 0.079028 0.0334263
0.257629 0.025248 -0.118809
0 0 0
0.0615501 0.058743 0.0168048
0.0562266 0.0129624 -0.0145272
0 0 0
0 0 0
0.133135 0.0419214 0.346971
0 0 0
0.10846 0.385848 -0.203849
0.00429132 0.342729 0.040158
0 0 0
0.127072 0.0202159 0.0647583
0 0 0
-0.0236995 0.00640275 -0.0614021
0 0 0
-0.00325996 -0.0112921 0.0444799
-0.0440455 0.196569 0.100766
-0.13283 0.0367696 0.141004
-0.00954038 0.0835079 -0.0201928
-0.477735 0.714771 0.285431
-0.132694 -0.0677689 0.136552
-0.200235 -0.429811 -0.0553553
-0.329146 -0.171906 -0.0234446
0.00384886 -0.0588988 0.178114
-0.0446248 -0.106365 -0.183114
0 0 0
0.044731 0.125421 0.0641616
0.1321 -0.0127939 -0.0470192
-0.290292 -0.251441 -0.258799
-0.0519215 0.0616643 0.29999
0.180123 -0.425654 -0.383363
0.215596 0.035174 0.282776
0.236612 -0.125665 -0.282109
-0.0463737 0.27288 -0.208585
0.0641196 0.0318966 0.20959
0.161386 0.406313 0.0237501
-0.0979384 0.0944714 -0.181727
0.0103506 -0.131497 -0.0346639
0 0 0
0.2775 0.0108452 -0.0837259
0.021388 0.0086351 -0.361418
0.303025 0.0614269 0.266682
0.00580707 -0.000669529 0.00116279
0.174153 0.00879532 -0.00308285
0.0583242 -0.00430992 -0.00976795
0.0511194 -0.077126 -0.0750309
0.254205 -0.047978 -0.0291887
-0.00122521 -0.00282909 0.133464
0.119137 -0.0682884 0.00378563
0.0733052 0.104193 -0.00542834
0 0 0
0.133544 0.106687 -0.000797499
0 0 0
-0.06362 -0.227359 0.323267
-0.0670299 -0.214081 0.0947847
0 0 0
-0.046233 -0.0250057 -0.0836598
-0.0175866 -0.25687 -0.0348785
0.447089 -0.0912776 -0.0924103
0.0336954 -0.0453172 0.0778781
0.195422 0.189264 0.123428
0.00585147 -0.177631 0.108239
0 0 0
0 0 0
0 0 0
0.279785 0.562006 0.165047
0.00737688 -0.165065 -0.131547
-0.250759 0.161051 -0.327329
-0.117194 -0.32883 -0.0981765
0 0 0
0.318864 0.0329412 -0.279434
0.121118 -0.0983064 0.0559614
0.279286 -0.103275 0.163306
0 0 0
-0.153347 -0.407168 -0.159653
0 0 0
-0.180373 -0.0621752 0.0751319
-0.00754735 0.0310374 0.00258121
0.097733 -0.314548 0.212603
-0.00135393 -0.143502 0.079336
0.242128 0.130479 0.0246521
0 0 0
0.0814178 -0.0504369 -0.00110911
0.0992672 0.0333296 0.00269212
0.244555 0.342884 -0.0212144
0 0 0
-0.0121774 -0.0495674 -0.0328257
-0.142181 -0.396634 -0.24922
0 0 0
-0.116398 -0.530935 -0.115736
-0.134114 -0.00161858 -0.0989315
0 0 0
-0.287773 -0.399318 0.107101
0 0 0
0.0996239 -0.20196 0.142888
-8.3484e-05 0.0218551 0.144895
-0.131132 -0.0549348 -0.171143
-0.0725647 0.130596 -0.213948
-0.0116459 0.00303648 -0.153991
-0.056245 0.453388 -0.380664
0 0 0
0 0 0
0.429383 -0.0458143 0.276855
0.0510386 -0.00772009 0.0502275
-0.045041 0.302302 -0.227873
-0.222697 0.185918 0.130916
0 0 0
0 0 0
-0.0809593 -0.0526184 -0.00347465
0 0 0
-0.0917376 -0.243898 -0.0980596
0.151116 -0.114357 0.19247
0.0217836 -0.0448126 0.0658223
0.318188 -0.0640448 -0.119014
0.121682 -0.0774578 0.112424
0 0 0
-0.0881996 0.109302 -0.00242693
0.0569915 -0.00761235 0.0380932
0.22011 -0.32516 -0.121166
0.0315699 -0.0129044 -0.0534687
-0.227075 -0.254671 -0.09661
-0.0167656 -0.00414184 -0.186721
0 0 0
-0.0190992 -0.146348 -0.088067
0 0 0
0 0 0
0.181663 -0.179453 0.336588
-0.0306291 -0.119453 0.0766309
-0.0613959 -0.0447689 -0.113326
-0.33995 0.614205 0.137324
-0.0605521 -0.227452 -0.0564924
-0.151027 -0.231547 0.0969976
-0.110292 -0.201639 -0.19136
0 0 0
0 0 0
0.0807365 0.0490996 0.00100355
0 0 0
0.12025 0.0709927 0.1256
-0.0363018 0.04257 0.200215
0 0 0
0.180175 -0.172676 -0.000519849
0 0 0
0.287304 -0.0270536 0.0611241
0 0 0
0.00268935 -0.0438515 0.13985
-0.107101 -0.367983 -0.215299
0 0 0
0.218662 0.142506 0.523638
0.00292662 -0.00290599 0.0034276
0.0697821 -0.0396644 -0.0507346
0.0621576 -0.00880552 0.254708
0 0 0
0.0652462 -0.102538 -0.0917879
0.0407528 0.0833723 0.0359886
0.0361137 0.0832322 0.00845848
0.0429917 -0.100113 -0.0289511
-0.026734 -0.254315 0.000301287
-0.0185004 -0.108348 0.205119
0.00504709 -0.00225804 0.00332706
0 0 0
0 0 0
-0.00372911 -0.0929823 -0.0192262
0.10698 0.208463 0.270556
0.0675753 0.204356 -0.518425
0.046487 -0.0975398 0.00835061
0 0 0
0.00758852 0.149247 -0.132007
-0.0643567 -0.00252565 0.212241
0 0 0
0.063663 -0.0904448 0.0555302
0 0 0
0.141869 -0.0791297 0.153443
0.097756 -0.0688414 -0.0466039
0.114733 0.155494 -0.245041
-0.218292 -0.0094579 -0.111098
0 0 0
-0.0359708 -0.0757043 0.272892
0.0378124 -0.0722202 0.523858
-0.00727487 0.00728102 0.00321662
0 0 0
0 0 0
-0.0968535 -0.10987 0.0834263
0.0683124 -0.0242903 -0.000157613
-0.0309656 -0.0705722 0.00082039
-0.0558887 0.108118 -0.00499908
0.0441976 -0.187031 -0.0338536
0.111257 0.111124 -0.28928
0.0905964 0.144366 -0.153948
0.0503776 -0.123858 0.0979518
0 0 0
-0.420953 -0.296383 -0.190309
-0.0405195 -0.210543 0.341702
-0.0258406 -0.0859024 -0.00633499
0 0 0
0.095216 -0.083517 -0.00142222
0.0028374 0.0906624 0.0736604
0.0878698 -0.1471 -0.0245993
0 0 0
-0.0617411 -0.0832437 0.0120841
0.00204281 -0.032455 0.0481314
0.469105 -0.390902 0.0387097
0.0752123 -0.165828 0.00245137
0.0619963 -0.0598445 0.0499007
0.268368 0.0719692 0.26962
-0.0366105 -0.339072 0.116379
0 0 0
0 0 0
0.00830917 -0.0138622 -0.00445574
0.0483604 -0.0924469 0.00500307
0.117922 -0.262545 0.0683501
0.498916 -0.146151 0.138899
0.20971 -0.055206 0.104102
0.147949 -0.0407012 0.187014
0 0 0
0 0 0
0.024749 -0.123701 0.00224778
0 0 0
0 0 0
-0.0388513 -0.0669964 -0.0964633
0.0235248 -0.147873 0.105439
0.241315 -0.25381 0.251581
-0.00699271 0.0336252 0.0106844
0.0960974 -0.132561 -0.0655011
0.459412 -0.0323221 0.13784
0 0 0
0.223287 0.0161461 0.00705498
0.045948 0.0765882 -0.195694
-0.0660515 -0.199158 -0.145574
0.166317 -0.146394 -0.0730403
0.18542 -0.0401676 -0.394497
0.00192336 0.222939 0.0415327
0.062812 -0.239147 -0.068775
0 0 0
-0.0056847 -0.217365 -0.00557521
0 0 0
-0.0370555 0.00534229 0.033645
0.0551987 -0.0523442 0.0672846
0.00267562 -0.0732362 0.0484331
0 0 0
-0.0290283 0.303302 -0.386241
-0.0334691 0.0066268 0.0283525
0.0427836 -0.156315 -0.156163
0.0258574 -0.0212296 -0.0263307
0.155204 -0.10775 0.0254611
0 0 0
0 0 0
0.0120699 -0.0452154 -0.0340424
0.451039 -0.472507 -0.0926568
0.232002 -0.159622 -0.104789
0.377513 -0.253377 0.0485799
0.462294 -0.0900777 0.104359
0.0426687 -0.0419249 0.121835
0.156115 0.132951 -0.223604
0.00244251 -6.10264e-05 5.27015e-05
0.00210605 -0.236302 0.0498315
0.17296 -0.216625 -0.318305
0.014509 -0.207369 0.100468
0.14574 0.0152613 -0.18869
0.281405 0.00377976 0.0525474
0 0 0
-0.124897 -0.225976 -0.208296
0 0 0
0 0 0
-0.13841 -0.0744182 -0.426874
-8.08432e-07 0.0406464 0.0461693
0.0242921 -0.208313 -0.286821
0 0 0
0 0 0
0.208473 0.0565862 -0.06276
0.0230471 0.0246704 0.0157672
0 0 0
-0.0262975 0.0385921 -0.178849
0 0 0
-0.0203731 -0.119301 0.249399
-0.00017134 -0.0927758 -0.0581835
0.0393073 0.0484591 -0.00165685
-0.00199562 -0.114982 0.101045
-0.377227 -0.159668 0.153216
0 0 0
0.189078 -0.420001 0.224987
0 0 0
-0.0244464 0.0156361 -0.124102
0 0 0
0.0838605 -0.141911 -0.0891984
0 0 0
0.00360361 0.39432 0.169047
0.0475575 -0.109371 -0.283293
0.0901851 -0.171751 -0.023594
0.0887633 -0.0154517 0.0130347
0.103371 0.005155 -0.110782
0.0980235 -0.162929 -0.103336
0.0688505 0.0348345 -0.328979
-0.00446439 0.164207 -0.0638719
0 0 0
0 0 0
-0.0312924 0.0591846 -0.00607184
0.00506103 0.0748878 0.125153
0 0 0
-0.0806558 0.00253106 -0.0438147
0.137141 -0.0124262 -0.222659
0.0317046 0.247758 -0.0408896
-0.010515 0.0221224 0.0011756
0 0 0
-0.0513541 -0.205681 0.148464
-0.107042 -0.333712 0.0487247
0 0 0
0 0 0
0.0264726 -0.0352444 -0.37733
0 0 0
0.173387 0.122322 -4.85011e-05
-0.249719 -0.0685068 -0.111327
-0.148197 -0.287625 -0.194498
0 0 0
0 0 0
0.001722 -0.000463517 0.0110849
-0.353109 0.251058 -0.0305679
0 0 0
0.0125778 0.068302 -0.197911
0.0471556 -0.0268949 -0.17166
0 0 0
0.138232 0.0545136 -0.00190685
0 0 0
-0.0384626 -0.0212081 0.000197371
0 0 0
-0.0386259 0.288453 -0.0065149
0 0 0
-0.11462 -0.136418 0.313049
-0.0146655 0.161978 -0.0250884
0.0870402 0.0477439 -0.0899251
0.110936 -0.111705 -0.0862248
0 0 0
0.242801 -0.0773807 -0.140353
0 0 0
0.170758 0.116088 -0.238439
0 0 0
-0.00248829 -0.759325 0.283598
0 0 0
-0.248147 0.0167497 0.166196
-0.0012847 0.0199137 0.0187029
0.222406 -0.000582848 -0.0702927
0.133855 0.19925 -0.0281543
0 0 0
-0.00509813 0.588862 0.0245171
-0.0414098 -0.0156731 -0.136895
-0.278376 -0.207684 0.136779
-0.176571 -0.0767024 0.0305941
-0.00124135 0.00303116 0.00892109
0.214892 -0.320866 0.03206
0.100695 0.0545017 0.0458466
0.0210764 -0.026543 0.00898926
0.0667175 0.061861 0.00467229
0.0539194 -0.0751538 0.0241901
-0.0770716 0.0731304 -0.0040558
0 0 0
0 0 0
0.177543 0.156182 0.419793
0.244003 -0.121666 -0.0207182
0.00722622 0.000683396 0.134923
0 0 0
-0.00524108 0.0482698 0.0141159
0.122403 -0.109755 0.142129
0.0633939 -0.293376 0.175071
0.0627051 -0.0644254 0.00502825
0.195287 0.220005 -0.0398345
0.0555887 -0.00777972 -0.103777
0.0684892 0.0604323 -0.0517309
-0.020974 0.216202 -0.44557
-0.0638626 -0.211262 -0.133726
0 0 0
-0.233217 -0.0840397 -0.0988222
-0.0858336 0.0446771 -0.0432688
-0.581611 0.368883 -0.101075
-0.239587 0.000106254 -0.0593477
0 0 0
0.0099838 -0.35038 -0.006008
0 0 0
0.0891377 -0.0664525 0.225478
0.0403911 0.00826617 0.410581
0.0898786 0.00282915 0.141076
-0.418962 0.023983 -0.0253327
-0.218164 0.0657169 0.0413398
-0.349524 -0.0651418 -0.131457
0.0104049 -0.19096 0.0754658
0 0 0
-0.213666 0.133561 -0.108932
-0.0799953 -0.093082 0.21081
-0.246256 -0.412626 -0.0160919
-0.0314616 0.179311 0.215075
0.0642285 -0.109778 -0.0292934
0.11658 -0.285015 -0.0545955
-0.0169005 -0.0147516 0.0221388
0 0 0
-0.0868896 -0.155443 0.098497
-0.0111451 -0.0482556 -0.0693474
0 0 0
0.0137219 0.0496896 0.0034293
0 0 0
0.0496661 0.29669 0.0871014
0 0 0
-0.0658383 -0.0249758 0.131473
0 0 0
-0.126404 -0.0611534 0.0763083
-0.268418 -0.235284 -0.100813
0 0 0
0 0 0
0.184782 -0.0982958 0.0751312
0.1479 -0.128273 -0.0334902
0.263824 -0.0907789 0.26123
0.0247628 0.0264202 -0.0260756
-0.111688 0.211237 -0.229898
-0.043758 -0.028915 0.0677734
0.17001 0.0940035 -0.523553
-0.0302366 -0.138722 -0.328679
-0.16998 0.189063 0.0382177
-0.284935 0.0386763 -0.17024
0.0215423 -0.0896945 -0.114222
-0.00497412 0.108127 -0.184168
-0.00228374 -0.00393214 -0.206288
0.0399974 0.111471 -0.35272
0 0 0
0.201574 -0.124549 0.107478
0.109676 -0.121032 -0.036588
0.00583651 0.0166072 0.0656681
0 0 0
0.0806676 0.205241 -0.0161309
0 0 0
0.000221264 0.0781802 -0.0836242
-0.315903 0.00785016 -0.299374
0 0 0
-0.0480482 -0.205393 -0.156445
-0.000146859 -0.0296434 0.0620625
-0.154848 -0.0450982 0.055793
0.0230848 0.109215 0.0559455
0 0 0
-0.000364042 -0.283248 0.0633797
-0.0822159 -0.0537718 -0.0952487
0 0 0
0 0 0
0.373801 0.000457779 0.304142
-0.224212 0.100441 -0.00655303
0.00125698 0.624174 0.0656543
0 0 0
0.0167714 -0.0500228 -0.00743528
0.0290055 -0.0839162 0.0246068
-0.0833979 0.0976896 0.299665
0 0 0
-0.0635538 0.164233 0.0058318
0.00823777 0.144914 -0.04246
0 0 0
-0.0462825 -0.111429 0.16047
0 0 0
0.0117011 -0.0659817 0.00179552
0.0267249 -0.0988659 -0.0296856
0.0432679 -0.134574 0.0444289
0 0 0
0.0545065 0.0156915 -0.219665
0.253207 0.121745 -0.0739345
0.0589647 -0.00471316 0.122646
0.00899342 -0.00112 0.0179541
0.38315 -0.0436188 0.0913203
0.228966 0.0547679 0.155165
0 0 0
0 0 0
-0.0621051 -0.495101 0.0732175
-0.000219131 -0.0147774 -0.0153432
-0.436929 -0.026598 -0.212887
-0.0172813 0.0603233 0.0163741
0 0 0
0 0 0
0.244317 -0.0423314 0.15272
-0.0107533 0.000156771 0.0148345
-0.392338 -0.00277839 0.292004
-0.145077 -0.0118634 -0.104617
-0.401915 0.0591803 0.0111848
0 0 0
-0.338956 -0.0369423 -0.209897
-0.00790676 0.0219164 0.0257932
0.0541318 -0.00617041 0.265873
0 0 0
0 0 0
0 0 0
0 0 0
0 0 0
0 0 0
0 0 0
0 0 0
0 0 0
0 0 0
0 0 0
0 0 0
0 0 0
0 0 0
0 0 0
0 0 0
0 0 0
0 0 0
0 0 0
0 0 0
0 0 0
0 0 0
0 0 0
0 0 0
0 0 0
0 0 0
0 0 0
0 0 0
0 0 0
0 0 0
0 0 0
0 0 0
0 0 0
0 0 0
0 0 0
0 0 0
0 0 0
0 0 0
0 0 0
0 0 0
0 0 0
0 0 0
0 0 0
0 0 0
0 0 0
0 0 0
0 0 0
0 0 0
0 0 0
0 0 0
0 0 0
0 0 0
0 0 0
0 0 0
0 0 0
0 0 0
0 0 0
0 0 0
0 0 0
0 0 0
0 0 0
0 0 0
0 0 0
0 0 0
0 0 0
0.0105594 0.00719961 0.0811994
0.199109 -0.064855 -0.0867634
0 0 0
0.0205778 0.00403098 -0.241469
0.0596721 0.0448742 -0.122321
0 0 0
-0.102648 -0.15956 0.0658942
0.0458979 -0.0894651 0.0611118
-8.87409e-05 -0.0517004 -0.02736
-0.0409878 -0.0319244 -0.0754808
0 0 0
-0.0882807 0.114859 -0.0238008
0.200539 -0.0230769 0.224141
-0.000467097 -0.017322 -0.0605262
-0.0294423 -0.0329152 0.136588
-0.0065796 -0.203552 0.0356946
0.0242671 0.142355 -0.0412673
-0.00751366 -0.111259 0.0476755
0 0 0
0.0617175 0.102286 0.126823
-0.146547 0.0793423 0.065337
0.00137183 -0.145374 -0.127188
0.000457624 0.0708514 0.0119837
0.0112861 -0.00759836 0.36571
0.0892457 0.121692 -0.209107
-0.0900657 -0.0459211 -0.153464
0 0 0
-0.0716093 0.129472 -0.0926742
0.0168918 -0.0468871 -0.0220164
0 0 0
0.00920379 -0.0963157 -0.00564669
-0.00406264 0.100981 -0.0446363
0.0463939 0.0287412 0.00813158
0.0968483 0.0128577 -0.0736591
0 0 0
0.0814609 -9.63433e-05 0.0720011
0.0315671 0.0118429 0.059375
0 0 0
0.135806 -0.0620634 -0.0123864
-0.000927939 0.38133 -0.00403659
-0.000527459 -0.429145 0.0465544
-0.0341828 -0.00409742 -0.0141927
0 0 0
0.0244293 0.0264363 0.0339297
-0.155737 0.00683629 -0.158779
0 0 0
0.173148 -0.00644158 0.0482565
-0.0603324 -0.0334957 0.00796846
-0.0482035 0.0194889 0.0458295
0.0177868 -0.00171462 0.0606789
0 0 0
-0.0461416 -0.00544206 -0.175799
0.0459809 0.00778967 -0.0773755
0 0 0
0.056443 0.0458992 0.0343692
-0.00838173 0.571576 -0.193591
-0.042149 -0.487484 0.0175103
0.0480186 -0.00856998 0.12891
0 0 0
-0.0359155 0.0306907 0.0144003
0.0729938 -0.0464588 0.0862624
0 0 0
0.0507857 0.0114423 0.00729218
0 0 0
0.14306 0.202226 -0.477997
-0.0360102 0.0359339 -0.0150632
-0.157291 -0.306312 0.121745
-0.0858087 0.331335 -0.0234951
0.0857082 -0.328187 -0.0419709
0 0 0
-0.0333095 -0.00903476 0.0691966
0 0 0
-0.145584 -0.0201547 0.0720337
0.00335817 -0.14527 -0.0428656
0.146273 0.00616077 0.154166
0.0359822 -0.333497 -0.153479
-0.197587 -0.219543 -0.0983316
0.393144 -0.488236 -0.17064
0 0 0
0.246064 -0.0174035 -0.0691462
-0.0419956 -0.0138637 -0.0895207
-0.0819939 -0.025914 -0.108724
0.0987443 0.0895845 0.0101838
0.15167 -0.0264292 -0.21595
0 0 0
0.000708095 0.228692 -0.0891416
-0.0579735 -0.00523999 -0.0485233
0.000604173 0.142241 -0.125719
0.00260958 0.129775 0.328992
-0.0806276 -0.0353993 -0.0167974
0.00164183 -0.183103 -0.128311
-0.00191778 -0.217715 0.524247
0.237544 -0.0876234 -0.201889
0 0 0
-0.0064951 -0.206928 -0.170099
0.0482887 0.0167373 0.0663
-0.179135 0.103501 -0.000911025
0.0959602 0.0285514 0.0106074
-0.00515285 -0.0662037 -0.252036
0.318191 -0.243488 -0.220995
0 0 0
-0.0212841 0.118449 0.0319562
-0.00836294 -0.150766 -0.0321221
0.0737416 0.0328899 0.0575457
0.116968 0.0205285 -0.0141776
0.16044 -0.396373 -0.159131
0.0526039 -0.0354295 -0.0445355
-0.153421 -0.293271 0.180305
-0.000135992 0.00373669 -0.0109887
0.059695 -0.415717 0.0490442
0.157989 -0.22523 -0.128253
0 0 0
0.0623825 -0.160351 -0.447326
-0.0863611 -0.00587136 0.0137112
-0.357911 -0.0292172 0.0568298
-0.00163493 -0.00260995 0.0301451
-0.138815 -0.248671 -0.0905214
0.0385563 -0.0879526 0.0500008
-0.000511672 0.0121927 0.0707433
0.196252 0.0829822 -0.355991
0 0 0
0.260738 -0.097021 -0.382399
0.115581 -0.0374235 0.18297
0.387018 -0.0972093 -0.126563
0.190296 -0.0767371 0.0622588
0.0442174 -0.0169017 -0.116066
-0.357995 0.306045 -0.172995
-0.227745 0.112963 -0.309892
-0.123421 0.0511184 -0.0382185
-0.28259 -0.142696 0.474158
-0.0834172 -0.256355 -0.200576
-0.152368 -0.039736 0.163628
-0.0557462 -0.18021 -0.00133447
0.112505 -0.121664 -0.227208
0.000571414 -0.0562324 0.0495715
-0.0559877 0.243821 -0.134706
-0.136481 0.32797 0.18371
0 0 0
-0.00116106 -0.0600902 0.205307
0.231573 0.148018 0.189106
0 0 0
0.197766 -0.14955 0.0185282
0.520569 -0.0633103 -0.123706
0.358813 0.374795 -0.0385349
-0.127347 -0.107586 -0.126418
-0.217956 -0.10239 0.00882634
-0.0327292 0.164131 -0.00854244
-0.251446 0.0287142 0.0309239
0 0 0
0.0396848 0.0874253 0.536028
-0.00342317 -0.0100702 -0.0102174
0.0725069 -0.368317 -0.00779344
0.245299 0.117112 -0.241574
0 0 0
0.0293676 -0.0623648 0.189249
0 0 0
0.0258428 0.199604 0.176982
0.0392581 0.0837327 -0.24474
0.0617739 0.0955878 -0.000372534
-0.35757 0.125903 -0.0818316
-0.135385 0.0642933 0.0208643
0 0 0
0.0241473 -0.00078908 0.144008
-9.4226e-05 -0.182841 -0.0010867
0.0125958 -0.154523 -0.0866827
0.00314089 0.0489813 -2.77644e-05
-0.0105937 -0.12034 0.522407
0.0386535 0.00413513 0.0438424
0.162888 -0.204048 -0.125813
-0.00160192 0.0167794 0.0144519
0.152067 0.0809973 0.103361
0.0017635 0.000639632 -0.000686054
0.0602881 -0.250312 0.263111
0.0914417 -0.0482731 0.0327984
-0.218289 -0.225437 -0.00069536
-0.11633 0.0192032 0.0328732
0 0 0
-0.141913 -0.0242301 0.00155043
0 0 0
0.0522768 0.16218 -0.345489
-0.02459 -0.151946 -0.0481192