<?xml version="1.0"?>
<VTKFile type="RectilinearGrid">
<RectilinearGrid WholeExtent="0 32 0 32 0 32" Origin="0 0 0" Spacing="1 1 1">
<Piece Extent="0 32 0 32 0 32">
<PointData>
</PointData>
<Coordinates>
<DataArray type="Float32" format="ascii">
0 0.524874 1.04975 1.57462 2.0995 2.62437 3.14924 3.67412 4.19899 4.72386 5.24874 5.77361 6.29849 6.82336 7.34823 7.87311 8.39798 8.92285 9.44773 9.9726 10.4975 11.0224 11.5472 12.0721 12.597 13.1218 13.6467 14.1716 14.6965 15.2213 15.7462 16.2711 16.796 
</DataArray>
<DataArray type="Float32" format="ascii">
-5.03879 -3.62163 -2.20447 -0.787311 0.629849 2.04701 3.46417 4.88133 6.29849 7.71565 9.1328 10.55 11.9671 13.3843 14.8014 16.2186 17.6358 19.0529 20.4701 21.8872 23.3044 24.7216 26.1387 27.5559 28.973 30.3902 31.8074 33.2245 34.6417 36.0588 37.476 38.8931 40.3103 
</DataArray>
<DataArray type="Float32" format="ascii">
0 0.524874 1.04975 1.57462 2.0995 2.62437 3.14924 3.67412 4.19899 4.72386 5.24874 5.77361 6.29849 6.82336 7.34823 7.87311 8.39798 8.92285 9.44773 9.9726 10.4975 11.0224 11.5472 12.0721 12.597 13.1218 13.6467 14.1716 14.6965 15.2213 15.7462 16.2711 16.796 
</DataArray>
</Coordinates>
<CellData>
<DataArray type="Float32" Name="Vector" NumberOfComponents="3" format="ascii">
0 0 0
0 0 0
0 0 0
0 0 0
0 0 0
0 0 0
0 0 0
0 0 0
0 0 0
0 0 0
0 0 0
0 0 0
0 0 0
0 0 0
0 0 0
0 0 0
0 0 0
0 0 0
0 0 0
0 0 0
0 0 0
0 0 0
0 0 0
0 0 0
0 0 0
0 0 0
0 0 0
0 0 0
0 0 0
0 0 0
0 0 0
0 0 0
0 0 0
0 0 0
0 0 0
0 0 0
0 0 0
0 0 0
0 0 0
0 0 0
0 0 0
0 0 0
0 0 0
0 0 0
0 0 0
0 0 0
0 0 0
0 0 0
0 0 0
0 0 0
0 0 0
0 0 0
0 0 0
0 0 0
0 0 0
0 0 0
0 0 0
0 0 0
0 0 0
0 0 0
0 0 0
0 0 0
0 0 0
0 0 0
0.0176474 0.104509 0.0306699
0.0718107 -0.0453273 0.0123541
0 0 0
0.335112 -0.277092 0.00242333
-0.132858 -0.0693382 0.0252554
0 0 0
0.263356 0.310655 0.0072317
-0.0139317 0.0753643 -0.00799699
0.127868 -0.209868 0.0173008
-0.137144 -0.00342774 0.0228506
-0.0203195 0.131902 0.0151832
-0.153752 -0.127525 0.141848
0.211834 -0.0429617 0.132637
0.0516509 0.174586 -0.116827
0.044392 0.00905542 -0.00814549
0.0131259 -0.000851296 0.0229147
0.0478334 -0.0159553 0.0239438
0.176254 -0.00451449 0.0232266
0 0 0
0.193234 0.0855565 0.0538788
0.0315337 -0.0556094 -0.0814333
0 0 0
0.117909 0.137423 -0.071144
-0.0707943 -0.0546671 0.0802395
0.101983 -1.07158e-05 -0.0934655
0.0238014 -0.0658742 0.00153624
0 0 0
-0.113818 -0.130986 0.00116261
0.152495 0.0803702 0.0692239
0 0 0
0.200411 0.131649 0.0191695
0.00608751 0.0334097 0.00664915
-0.0283867 0.155587 0.0488402
0.0296515 -0.00124515 0.02923
0 0 0
0.258222 0.0832514 0.00258237
0 0 0
0 0 0
0.130523 0.0725811 -0.0912176
-0.0184964 0.073981 0.0194255
0 0 0
-0.325615 -0.0466996 0.0137591
0.0226715 0.0178565 -0.018315
0.142829 0.0637071 -0.0653131
-0.0902634 -0.037364 0.0239225
0 0 0
-0.0867252 -0.00350397 0.0073453
0.184329 0.124651 0.0465161
0.0887882 -0.0101291 -0.0424198
-0.00297342 0.00324102 -0.00370622
0.0544382 0.0471153 0.0348429
0.404096 -0.00770165 -0.030055
-0.0421257 -0.0312794 0.0418718
0 0 0
-0.321872 0.484003 0.00683543
0.0769471 0.0490532 -0.0788661
0 0 0
0.161864 0.122099 0.00400909
0 0 0
0.00418423 -0.0151549 0.0143499
-0.280053 -0.25738 0.00450922
0 0 0
0 0 0
0.0203887 -0.263771 -0.0398067
-0.00269171 0.0857514 -0.0288868
-0.0195065 0.0292311 0.0930973
0.107906 0.0261012 -0.00194481
-0.00935406 0.0928956 -0.328407
-0.205838 0.0103905 -0.0566901
-0.168939 0.275144 -0.341585
0 0 0
-0.235641 -0.0567657 0.158841
-0.000910299 -0.0217793 -0.0105204
0 0 0
0 0 0
-0.211493 -0.126504 -0.0164732
0.226596 -0.230418 -0.573187
-0.0991538 0.164332 -0.236553
-0.156271 0.0942575 0.0302003
0 0 0
0 0 0
-0.0315086 0.00130832 -0.135501
-0.348692 -0.141239 0.274899
0.0805108 -0.0442676 -0.0142631
0 0 0
0.341815 0.302683 -0.424081
0 0 0
0.0337999 0.254468 0.0446466
-0.0806429 -0.105408 -0.0446692
0 0 0
0.161341 0.0688287 -0.0114716
0.461871 -0.176983 -0.288952
0.538838 -0.1656 -0.24796
0 0 0
0 0 0
0.0107827 -0.00733391 0.00659784
0 0 0
0.12018 -0.107239 0.075754
-0.0174122 0.00729518 -0.00327127
-0.145128 0.363557 0.00252041
0 0 0
0.220926 0.621508 -0.0907352
0 0 0
0 0 0
0 0 0
-0.0896653 0.0701744 0.00332204
0.00895992 0.0205532 -0.344443
0 0 0
0.22595 -0.129255 -0.112852
0 0 0
0.468168 0.388527 -0.404114
0.0428737 0.0957057 -0.108692
0.44454 0.187845 -0.114682
0.142227 -0.329162 0.0857561
-0.123708 0.127532 0.0172201
-0.384395 0.124729 0.0971024
0 0 0
0.154515 -0.535702 0.000491813
-0.00271928 -0.578597 -0.319619
0.0383419 -0.165973 0.153085
0.166571 0.0342623 0.230754
0.0414426 0.0124305 -0.0308073
0.094556 0.0927653 0.439723
-0.0242173 -0.0223428 -0.14891
-0.107712 -0.0614921 -0.279484
-0.0883451 -0.0107349 -0.0571807
0.0791488 0.0847976 0.216838
0 0 0
0 0 0
-0.0686484 -0.0661621 0.0598224
0.00244333 0.0687517 -0.0969127
0 0 0
0 0 0
0 0 0
-0.114186 0.240593 -0.308166
-0.0875123 0.0470796 0.0448019
0.0799999 -0.182971 -0.117093
0.176021 0.0120013 -0.0392098
-0.0740193 0.0277414 -0.0461428
0 0 0
0 0 0
0 0 0
0.154284 0.166946 -0.244944
-0.00158079 0.0523545 -0.0397489
0.317627 0.0706324 0.110952
0.0246689 0.0744529 0.00144028
0.039486 0.387618 -0.0242842
0.382122 -0.0952527 -0.0563066
-0.00184414 -0.0591388 0.0436746
0 0 0
0 0 0
0 0 0
-0.171259 0.0352371 0.000926524
-0.0740909 -0.0473388 0.0806718
0.01702 -0.00392727 -0.0328525
0.0984251 -0.0996566 -0.160203
-0.395292 -0.108131 -0.1443
-0.0442704 0.0011732 0.0882645
0.130506 -0.172446 0.066332
0.152843 -0.277388 -0.136617
-0.140571 -0.0818427 -0.00150646
-0.0194469 -0.123424 0.139526
0 0 0
0.0774112 0.0189436 -0.0286202
0.169453 0.373993 0.0844918
0.0281528 0.158911 -0.00638899
-0.0975094 0.077446 0.0560437
0.022454 0.12923 0.0960765
0 0 0
0 0 0
-0.136618 0.194494 0.0452651
-0.0653223 -0.000533726 -0.0527973
-0.225064 -3.96089e-05 -0.406078
0 0 0
0.0765273 0.00561656 0.111426
0.212471 -0.0504758 0.116097
0.406989 0.534233 -0.0684586
0.284364 -0.0174692 0.249317
0 0 0
-0.240488 0.194632 -0.024307
-0.24399 -0.039409 -0.00531827
-0.04879 0.000318152 -0.0041348
-0.129095 -0.0223062 0.00403757
-0.0349926 -0.0445629 0.32046
-0.391404 0.0523117 -0.0577795
-0.228009 -0.016156 -0.0807926
-0.0930922 -0.342947 -0.257313
-0.118593 0.0550196 0.25804
0 0 0
-0.0184722 -0.221456 -0.0907989
0 0 0
-0.278213 -0.419097 0.140335
0.00526164 -0.00686548 -0.0137393
-0.0939301 0.268727 -0.592837
0 0 0
-0.0965634 0.0923958 -0.266329
-0.148531 0.379778 -0.026248
0 0 0
0 0 0
-0.0740565 -0.331609 -0.0682979
-0.00436019 -0.00443191 -0.00320718
-0.124114 0.049162 0.0554606
-0.132479 -0.0561886 -0.0269385
-0.373293 0.35238 -0.494768
0 0 0
0 0 0
-0.0275254 0.00401488 0.00272097
-0.0933966 -0.170704 -0.0302041
-0.0361146 0.0721462 -0.231818
-0.033461 -0.215934 -0.106485
0.331554 -0.119058 -0.205455
0.212264 0.0336875 0.0883588
0.0153148 -0.101007 -0.0421481
0.0903781 0.0296962 0.262427
0.0224253 0.0231304 -0.0424261
-0.0719215 0.355028 -0.27059
0 0 0
0 0 0
-0.277044 -0.137202 0.134492
-0.575196 0.0949971 0.0166282
0.0645445 0.237984 -0.0169724
0 0 0
0.00921739 0.0698985 -0.0419653
0 0 0
0.0984273 0.0791552 0.234235
0.082333 -0.0204251 0.220354
-0.143455 0.242176 -0.0854776
0 0 0
-0.208922 0.0232815 0.287295
0 0 0
0.173913 -0.107555 0.00216912
0.0609354 -0.168306 0.168956
0.221594 0.241874 0.0724687
0.095362 0.0534422 0.0233561
0.0719012 -0.146258 -0.0721588
0 0 0
-0.184021 -0.223746 -0.52849
0 0 0
0 0 0
0.289786 -0.218494 -0.0500315
0.0316524 -0.01587 -0.0133934
0.230996 -0.442481 -0.280171
-0.154542 -0.367305 -0.194356
-0.0186969 -0.00593458 -0.0169993
-0.000267031 -0.140845 -0.107934
-0.0569326 -0.0992772 -0.207042
-0.0465466 0.13456 -0.52666
0 0 0
0.328446 0.161025 0.0137027
0.295439 -0.0252055 0.404401
0 0 0
-0.365303 0.49317 0.349079
-0.134139 0.0115707 0.0623493
-0.196211 0.0348069 -0.0814593
0.00137444 0.180168 -0.242585
0.139855 -0.103959 0.210378
-0.0656245 -0.0494257 -0.143754
-0.24733 -0.130344 0.242114
0 0 0
-0.390273 -0.0243331 -0.00333546
-0.000427197 0.0096508 -0.0254115
-0.458006 0.655853 -0.0738666
0.000483811 -0.000191754 -0.00710688
0 0 0
0.188321 0.105992 -0.266064
0 0 0
0.0954442 -0.0719328 -0.0217125
-0.525188 0.0185618 -0.0112035
0.113762 0.344034 0.163382
0.00386642 0.14717 0.128274
0.0452957 0.293733 0.0264299
0 0 0
-0.034279 -0.0680133 -0.139757
0 0 0
0.113733 -0.207904 -0.329548
-0.0926439 -0.0599101 -0.000611056
0.157073 -0.15599 -0.2117
-0.0785509 -0.0333357 0.263136
0 0 0
-0.068113 0.263677 -0.11327
-0.120307 0.122221 -0.129083
0 0 0
0 0 0
0.416199 0.144132 -0.177045
0 0 0
0.0560709 -0.089543 -0.319806
0.0560051 0.109916 0.0685567
0 0 0
0 0 0
0 0 0
0.0413329 0.285007 0.186737
0.00480233 0.042714 -0.169991
-0.000159154 0.199088 -0.0405334
-0.0710359 0.213816 -0.336333
0 0 0
-0.242321 -0.0867986 -0.1533
0 0 0
-0.0481073 0.00357471 -0.526822
0 0 0
-0.20303 0.04415 0.000187558
0 0 0
0 0 0
-0.188285 -0.00619531 -0.0632807
0.246051 -0.441554 0.209345
0.184725 -0.128932 0.0227574
0 0 0
-0.0283873 -0.000446261 0.0308174
0 0 0
0 0 0
-0.21672 0.0851856 -0.171618
-0.504823 0.0355557 0.108985
0 0 0
0 0 0
0.0215184 -0.0104763 -0.094605
0 0 0
0 0 0
-0.0778118 -0.19022 -0.457171
0 0 0
0.25183 0.21639 -0.115694
0 0 0
0 0 0
0.197578 -0.374547 -0.0318872
0.176794 -0.0490801 0.131011
0.0286526 -0.0142448 -0.029742
0.00250173 -0.0119078 0.0173201
0.300418 -0.322238 0.0677716
0.00249816 -0.115415 0.0196254
0.260348 0.124546 0.121261
0 0 0
0 0 0
-0.040933 0.116243 -0.116544
-0.198396 -0.0115252 0.0817891
-0.086694 -0.0364458 0.0100556
-0.290596 0.0805512 -0.0286531
-0.00915939 -0.123139 -0.189202
-0.0363052 -0.0297146 -0.0451371
-0.00718034 -0.00730554 0.0159814
-0.220684 0.0844904 -0.0872457
-0.0452942 -0.0288566 -0.150115
-0.24754 0.0273179 0.058227
-0.34176 0.256763 0.120552
-0.422727 -0.259319 -0.092044
-0.308552 0.0520625 0.00766877
-0.194083 -0.292452 0.0964422
0.0177898 0.0220161 0.00331073
0.26704 -0.0798044 0.0927482
0 0 0
-0.211619 0.477289 -0.180015
0 0 0
-0.0137831 -0.0160183 0.000254102
0 0 0
-0.235006 0.116212 -0.369091
0.0371383 -0.337155 0.527814
-0.183498 -0.126947 -0.0341222
0.104663 0.0880995 -0.207614
-0.0356538 -0.166283 -0.011173
0 0 0
0 0 0
-0.06221 -0.0257696 0.0124803
0.0142866 -0.0148223 0.0117408
0.249906 0.0740193 0.155673
0.0855544 0.0619612 0.0513739
0.00703987 0.0381432 -0.0354574
-0.130136 0.243612 0.173776
0 0 0
-0.0827934 -0.154318 0.083461
0 0 0
-0.174605 0.0709804 -0.105137
0.0365459 -0.179094 0.119872
-0.0322938 0.107467 -0.0344981
0.221424 -0.0663412 -0.119555
0.0390812 0.0314114 -0.0155193
0 0 0
0 0 0
0.0074345 -0.0517788 0.138716
0.060543 0.211418 -0.285017
0.0734676 0.114839 0.096545
0.0749519 0.0142716 -0.0275182
-0.078542 0.198787 -0.0128603
-0.0407915 0.0651296 0.0386433
0.0286633 -0.13257 0.0831589
0 0 0
0.133259 -0.386828 0.434426
0 0 0
0 0 0
0.206861 0.0673978 -0.170706
0 0 0
0 0 0
0.000112782 0.030963 -0.0213887
0.0296576 -0.0207498 -0.0384572
-0.0735916 -0.0224741 0.118838
0.464919 0.203771 -0.0969693
-0.0784044 0.0395785 -0.0567771
-0.12247 -0.358403 0.0582233
0 0 0
-0.208711 0.334223 -0.111544
0 0 0
-0.424319 0.0258513 -0.0607433
0 0 0
0 0 0
0 0 0
0 0 0
0.0471767 0.0969834 0.116489
0.00905839 -0.00717833 0.101797
-0.16462 -0.0936821 -0.0715593
0 0 0
0.355306 0.0139128 -0.0311187
0.0738249 -0.142002 -0.12663
0.248636 -0.0414349 -0.0668671
0.00337405 0.203851 -0.159051
0.1603 0.129419 -0.274788
0.0499492 0.285857 -0.186388
0 0 0
0.107761 -0.00247434 -0.338211
0.121793 -0.104705 -0.328744
0.000829358 0.0979257 -0.161495
-0.422854 -0.351854 -0.265384
0 0 0
-0.0105605 0.0740368 -0.000700871
0 0 0
-0.267384 0.106589 -0.00914288
-0.0021207 -0.0879553 0.0774304
-0.330275 0.0849103 0.110533
0.0673817 -0.244128 -0.138359
-0.0699747 -0.344612 0.243531
0 0 0
0.00485227 0.0934256 -0.0728342
0.071759 -0.105883 0.0448004
0 0 0
0 0 0
0.25078 -0.0362936 0.0762115
0 0 0
0.213819 -0.0993186 -0.0754992
0.200666 0.0153074 0.0125896
-0.262087 0.331483 -0.189527
0.230067 0.120004 -0.0649013
0 0 0
0 0 0
-0.0231087 -0.122203 -0.0812983
-0.117419 -0.129031 -0.0405917
-0.36425 -0.432673 0.153168
0.0566247 0.0073809 -0.00425733
0 0 0
0.0182381 0.103314 0.00369808
0 0 0
0 0 0
-0.159084 -0.239662 0.0348917
-0.0109521 -0.0923551 -0.0420713
-0.12497 -0.475822 -0.0392542
0 0 0
-0.284577 -0.316687 0.0996523
0 0 0
-0.172709 -0.0111371 0.310695
0 0 0
-0.0259441 -0.0757954 -0.00128178
0.306738 -0.0743517 -0.114411
0 0 0
-0.0315737 -0.0829547 -0.00368374
-0.455602 -0.292372 -0.252135
0.0702488 -0.122379 0.00431788
-0.141171 0.167225 0.251722
-0.0809303 -0.0205709 0.0531807
0 0 0
0 0 0
0.241118 0.0377945 0.184856
-0.0501018 -0.0825748 -0.0161637
0.0839867 -0.0216498 0.0196179
0.223958 0.229086 -0.252089
0.22281 -0.0145605 0.304312
0.0945909 0.104385 0.0496952
0 0 0
-0.22164 -0.323839 0.0162439
0 0 0
0.0609028 0.173168 -0.0373486
0.031441 0.137432 0.119217
0.118193 -0.264373 -0.4255
0 0 0
0 0 0
0.044026 0.0371869 -0.144037
0 0 0
-0.0486508 0.0402655 -0.0623066
0.15606 0.0285559 0.158835
-0.0403701 -0.344238 0.233643
0 0 0
-0.116285 0.0622024 0.231336
0.0491749 0.235272 0.124203
-0.118298 -0.0489546 -0.172682
-0.0420456 0.108013 0.0871151
-0.0865271 -0.0193379 -0.0920421
-0.119524 0.0473397 -0.219546
-0.21711 -0.151626 -0.0972734
0.048191 0.0176711 0.0214168
0.106608 -0.0380455 -0.00361793
0.0705976 0.0544659 0.230659
-0.0703429 0.00171963 -0.0365164
0.028195 0.00474857 0.177282
0 0 0
0.141172 0.2691 0.0665353
0.0300516 0.0344636 0.0460306
0.0351016 0.0403966 0.071509
0.00221822 0.299577 0.274677
0.0362726 0.24908 -0.0188301
0.020252 0.0551992 0.0112882
0 0 0
-0.233573 0.0520721 -0.142297
0 0 0
-0.131727 -0.243051 -0.0424929
0.143661 -0.028817 -0.0337477
-0.0377821 0.00130483 -7.4559e-05
-0.0242419 -0.0246396 0.132376
-0.00154338 -0.389171 0.122314
0.0123931 0.362509 -0.171061
0.121994 -0.0768625 -0.22701
0.309921 -0.21141 -0.329062
0.15872 -0.0301813 0.334511
-0.00333999 0.141435 -0.415907
0.0203542 0.00877021 -0.182871
-0.0896894 -0.0464178 0.186914
0.00192318 0.114865 0.0379848
-0.273841 -0.0948216 -0.0563334
-0.0795317 -0.122037 0.0187748
0.32452 0.16732 0.132107
0 0 0
0 0 0
0 0 0
-0.224707 -0.51352 0.136056
-0.108193 0.16618 0.0192336
-0.361323 -0.256774 -0.00468802
-0.121522 -0.0383856 -0.130056
0.0108338 0.154766 0.0932198
-0.035261 0.385339 0.264828
0 0 0
0 0 0
0.109471 0.139351 0.141499
0.222825 0.380505 0.109908
0 0 0
0.218678 0.0143433 0.211382
0.0999048 0.424909 0.524738
-0.148598 -0.0756611 0.145955
-0.320534 -0.081854 -0.354148
0.00284401 -0.0171636 0.0335552
-0.141155 0.203705 -0.008047
0 0 0
0.201988 -0.0376038 -0.125146
-0.00554955 -0.216101 0.0806035
0 0 0
-0.0513228 -0.0646464 -0.0903887
-0.159773 -0.0807803 -0.0152738
-0.248538 -0.282036 0.520826
0 0 0
-0.0652568 -0.135729 -0.238475
-0.00097191 -0.144241 -0.0594294
0.0169059 -0.316806 -0.208527
0 0 0
-0.0352763 0.021068 0.0705199
-0.0785152 0.0830815 0.0552707
0.209115 0.10273 0.430674
0 0 0
0.104065 0.261817 -0.264122
-0.233653 -0.0528122 -0.145577
0.158615 -0.00196644 -0.47657
0 0 0
0 0 0
-0.0578176 -0.0238126 0.0878902
-0.173147 0.176088 0.0651088
-0.0744862 0.301998 -0.00902816
-0.260172 0.214916 -0.0939638
0 0 0
0 0 0
0 0 0
0.276152 0.371653 0.126401
-0.403875 0.0612904 0.14973
-0.181401 -0.435818 -0.0400294
0 0 0
-0.0411417 -0.0892579 -0.09464
0 0 0
0.00310783 -0.18237 0.100101
-0.0558943 -0.0228399 -0.162275
0.00726264 -0.0771933 -0.0209336
0.000330553 -0.0621943 -0.0506815
-0.0751819 0.0121583 -0.00284719
0 0 0
-0.0219286 0.23657 0.326012
0 0 0
0.0381427 0.0146058 0.0532796
0.161365 0.143051 0.0317303
0.0768753 -0.126723 -0.118926
0.03464 0.261785 -0.0372566
-0.26767 0.118469 0.0514805
0.0184623 0.199406 0.264379
0.163523 -0.478928 0.199477
-0.0338094 -0.102733 0.150958
-0.183834 -0.117328 -0.402072
-0.0760462 0.0147988 -0.000313489
0.00105508 -0.0670656 0.0251385
-0.319196 0.10051 -0.0027126
0 0 0
-0.149844 -0.180478 0.502482
-0.0191963 -0.194664 0.113233
0 0 0
0.348843 0.250683 0.00649359
0.21236 0.125464 0.0227999
0.0335274 -0.08839 0.0452311
-0.0302387 0.0751407 -0.0537101
0.0799001 -0.074737 0.300306
0 0 0
0.123646 -0.0258066 -0.0766107
0 0 0
0 0 0
0.122055 -0.0324306 -0.0393068
-0.217649 -0.034835 -0.277808
-0.0252311 0.017652 -0.322486
0 0 0
-0.13612 -0.0137733 -0.0893165
0 0 0
0.169874 0.218442 -0.054152
0 0 0
0.479158 -0.0873354 -0.343563
0.000957266 0.0425036 -0.0895409
0.118386 0.74245 -0.195057
-0.0388774 0.0533219 -0.0257375
-0.210399 -0.0241447 -0.0560442
-0.0222179 -0.0209864 0.042003
0 0 0
-0.0724001 0.143598 0.0134744
-0.115538 0.146623 -0.135585
0 0 0
0 0 0
-0.247915 -0.0801576 0.0602002
-0.0543118 0.00617685 -0.0712084
0.123575 -0.315814 -0.213323
-0.176645 0.18616 0.159951
0.0038097 0.132601 -0.0586622
-0.110985 -0.107873 0.0322672
0 0 0
-0.0166301 -0.155862 0.00623286
0.0105383 -0.00538375 -0.00239536
0.0334462 0.0406326 -0.185237
0 0 0
0.178634 0.214373 0.194794
0.0597774 -0.0739969 -0.000586573
0.0108672 0.00680753 0.0056113
0.0419459 -0.0141803 0.0775783
-0.284326 -0.249176 -0.0229363
-0.152768 -0.0717036 0.00198658
-0.144463 -0.24496 -0.139245
0.100123 0.415227 0.0673232
0.0912593 -0.0761974 0.111236
-0.0438715 0.0823296 -0.00404743
-0.137294 -0.0791122 0.143041
0 0 0
-0.177158 0.136014 0.57945
-0.00637016 0.202307 0.0998347
0.0126257 -0.00783824 -0.0128934
0.0204675 0.0264966 -0.0928251
-0.0617529 0.29842 0.197227
0.37008 0.561005 0.174845
0.0918325 0.101448 -0.00292845
0 0 0
-0.237259 -0.036703 0.492988
-0.0346081 -0.0199849 0.0587763
0.00298889 -0.0827091 0.0380667
-0.0640247 0.123056 -0.261404
0 0 0
0 0 0
0.0110295 -0.280672 0.0393665
-0.0230956 -0.00611389 -0.151806
0.0489656 -0.249355 0.201865
-0.153475 0.0379892 0.00190316
-0.00313653 0.00129188 0.00717042
-0.432017 0.173457 0.0207971
-0.0984151 -0.173389 0.0560836
0 0 0
-0.100176 0.0282187 -0.164856
-0.115805 -0.113495 0.164486
-0.0694941 -0.210365 -0.0995931
-0.0340397 -0.0450077 -0.0281533
0 0 0
-0.193198 0.0345966 -0.111179
0.0611412 -0.059713 0.0626871
-0.101592 0.159472 -0.125981
0.413822 -0.202759 0.224687
-0.186754 -0.0104589 0.463062
0.00115885 -0.0281668 0.0366476
-0.180303 0.212895 -0.117214
-0.0322838 0.277072 0.111179
-0.160152 0.638529 0.337919
0.0317057 -0.00148626 0.236659
-0.0882299 0.0867507 -0.263046
-0.196963 0.487882 0.108753
0.00292697 0.166678 -0.163933
0.237433 -0.0118186 0.11652
0 0 0
0 0 0
0 0 0
-0.302266 0.35211 0.119893
0 0 0
0.165666 0.169324 -0.115182
0 0 0
-0.0806619 -0.0855589 0.108321
0 0 0
0 0 0
-0.0308991 0.0138049 -0.00273237
-0.414749 0.47977 -0.116964
0 0 0
-0.216831 -0.0115003 0.102023
0 0 0
0.0270407 -0.125608 0.0299044
0.0977575 -0.0948429 0.0782546
0.124828 -0.0583373 -0.0584882
0.329215 0.186461 -0.00927298
0.00197055 0.045317 0.167745
0.159087 -0.0504325 -0.039079
0.278038 0.323883 -0.104143
-0.131949 0.0487841 -0.00398452
-0.279235 0.286463 -0.0547003
-0.132108 0.0438323 -0.09231
-0.380869 0.492951 -0.099305
-0.0145274 -0.0643218 -0.0456437
0 0 0
0.00979913 0.052612 -0.157448
0 0 0
-0.0877636 0.0362755 0.170184
0 0 0
0.0109979 -0.276255 -0.109976
-0.0746446 0.0601184 -0.011381
0.399198 0.387731 0.371986
0 0 0
0.155992 -0.000442965 -0.0856208
0.0710855 0.105296 -0.116343
-0.0726689 0.041958 -0.144548
0 0 0
0.133085 0.0709964 0.228276
-0.0543882 -0.000338511 0.00144073
0 0 0
0 0 0
0.139636 0.141577 -0.0570775
-0.0636386 -0.00983228 0.00117798
0 0 0
-0.283094 -0.0721303 0.0601402
-0.101084 0.141275 0.0840167
-0.0617347 -0.213389 0.133194
-0.146974 -0.080277 -0.109346
-0.0136801 0.184323 0.00238346
-0.208807 -0.0881771 -0.286172
-0.136924 -0.0488136 0.13902
0.0118261 -0.0951171 -0.00338754
0.0493552 -0.390525 0.124027
0.0037721 0.168661 -0.0026177
0 0 0
-0.0278338 0.231151 -0.0019048
0 0 0
0.0606939 -0.0878203 -0.128688
0.0215527 -0.0193747 0.005419
-0.155991 -0.0672432 -0.165424
-0.145528 -0.679652 0.0973574
0.00624579 -0.216176 0.0302859
0.03888 0.0353657 0.00191716
0.0253264 -0.0682311 0.0185935
0.0419807 -0.0258265 0.0083719
0.272242 0.236492 -0.0212029
0 0 0
0.0993467 0.179927 -0.34886
0 0 0
0 0 0
0 0 0
-0.20823 0.109547 -0.0211679
0 0 0
-0.0602887 0.0894678 0.243503
0 0 0
-0.064539 -0.28467 -0.071072
0.06227 -0.148045 0.0866821
0.131328 -0.501769 -0.0690943
0.166261 0.0350325 0.224362
0.0634812 -0.100795 -0.0215868
0.015344 -0.00474202 -0.0543807
-0.24927 -0.080377 0.272462
-0.139538 0.0669909 0.00620188
-0.00379954 -0.303524 -0.103541
0.0573128 -0.0234195 -0.127231
0 0 0
0.00609964 -0.0203614 -0.114509
0 0 0
0.0539008 -0.382701 -0.076575
-0.0622803 -0.042835 0.0213032
0.0128952 0.00230911 -0.049757
0.0942655 -0.0299156 -0.072899
0.310095 -0.313572 -0.066858
-0.0276351 -0.215309 -0.128978
0 0 0
-0.0165273 -0.107139 -0.0474919
-0.150487 0.0312764 -0.158339
-0.165795 0.219084 -0.126253
0 0 0
0.291586 0.189714 0.00102094
0 0 0
-0.0192823 -0.119376 0.45502
-0.031041 -0.000923908 0.0080892
0.0559908 0.127621 0.0577444
0 0 0
0.0552844 0.011068 0.157757
0.103971 -0.175234 0.0174855
-0.00224694 -0.0108737 0.000344296
-0.0422372 -0.201354 -0.0735195
-0.442029 -0.486793 -0.0463474
-0.241979 -0.0389087 -0.080738
-0.220601 -0.157069 -0.0706924
0 0 0
0 0 0
-0.377545 -0.0354992 0.345659
-0.0629649 -0.0698692 -0.0500076
-0.0317767 -0.0614359 -0.0259697
0 0 0
0.180695 0.0446679 -0.125065
0.148471 0.0102431 0.110857
0.334523 0.016378 -0.0236341
0 0 0
0 0 0
-0.0583456 -0.0670926 0.00107348
0 0 0
-0.169659 -0.0229771 -0.0224464
-0.149253 0.0154435 -0.250231
0 0 0
-0.385845 0.26496 -0.322142
-0.0774819 -0.238457 -0.275472
-0.359533 0.0937234 0.0517782
-0.0198487 -0.227744 -0.057688
-0.0563788 -0.0145096 -0.000243705
0 0 0
-0.0921977 -0.0793963 -0.0346743
0 0 0
0.203595 0.00569687 -0.0001203
0.000345651 -0.000552696 -0.0608295
0.220603 -0.426264 -0.0488282
0 0 0
-0.119357 -0.17865 0.00351214
-0.0222774 -0.121363 -0.000307738
-0.00290257 0.118462 -0.0568335
-0.125489 0.0832563 0.0257743
-0.0956269 0.136254 0.0963655
0.029414 -0.128717 -0.000767889
0 0 0
-0.423273 0.0820677 0.0199274
-0.00645658 0.00289762 -0.00743314
0.158578 0.00397323 -0.019998
-0.066364 -0.0641477 -0.00354565
-0.167088 -0.0310998 0.0729307
-0.0555834 0.0757125 0.208004
-0.176232 -0.754079 0.0180062
-0.0690953 -0.0235122 0.065257
-0.146435 0.0900074 -0.550901
-0.108176 -0.0706877 -0.0053209
-0.0832515 0.00221937 -0.188687
0 0 0
-0.0370239 0.053548 -0.115304
-0.0187609 -0.00695627 0.454203
-0.1674 -0.166109 0.0757254
0.0470471 0.142412 0.256416
0.00128394 -0.0151626 0.0434653
0 0 0
-0.113293 0.0504775 -0.0558949
-0.133309 0.18209 0.150901
-0.189147 -0.168653 0.0546155
0.210394 0.0621476 0.0526616
0 0 0
-0.348931 0.0875294 0.103867
-0.144426 0.0747337 0.118625
-0.139481 -0.0307029 0.316216
-0.183012 0.102085 -0.149395
0.189562 -0.588198 -0.0306791
0.489327 -0.141455 -0.17413
0.436872 -0.161233 -0.00504563
0.110235 -0.100766 0.0412965
0.0294635 0.036547 -0.000430591
-0.0833162 0.0150644 0.0607509
-0.000391156 -0.0342059 -0.0460877
-0.0749176 -0.192886 0.106514
-0.0788791 0.0980419 -0.17733
-0.396937 0.263641 -0.173535
0.0133055 -0.039513 0.000714231
0 0 0
0.150388 -0.0549759 0.00224976
0.02295 -0.0068206 0.0384608
0 0 0
-0.234798 -0.278339 0.14907
-0.0389721 0.167943 -0.0653441
-0.13269 0.00701746 0.164905
0.0900517 -0.00469807 0.0923817
0.145116 0.31149 0.234613
0 0 0
0.0151141 0.223527 -0.00382319
0.143925 0.131954 0.0464067
0.0902574 0.120861 0.0785416
0.120847 0.0605768 0.152077
0 0 0
0 0 0
0.108339 -0.10549 -0.053322
-0.100233 -0.0931343 -0.306995
0.000713692 -0.0952773 0.0397349
0 0 0
0.104111 -0.0467925 0.0527327
0.00954861 -0.00463712 0.00746068
-0.0553082 0.0418768 -0.046665
0 0 0
0.0316275 0.00126472 -0.00733476
0.0317834 -0.0833354 0.00825649
0.042039 0.0194652 0.0015256
0 0 0
-0.0312555 0.0769844 0.116134
-0.0119211 -0.12132 -0.0914177
0 0 0
0.0687603 -0.0261407 -0.256143
0 0 0
-0.0598957 -0.195862 0.349055
0 0 0
-0.0349063 0.00813337 0.256407
0 0 0
0 0 0
-0.085936 0.0183193 0.115557
0 0 0
0.324514 -0.249773 -0.144193
0.0843578 0.124431 -0.123014
0.390897 -0.162494 -0.221175
-0.00228836 0.0100911 0.0054913
-0.0565479 -0.0623675 -0.0479285
0.0679288 -0.117939 0.0857003
-0.105655 0.522862 -0.069833
-0.193269 0.275226 -0.312126
0 0 0
-0.07953 0.0366815 -0.14396
-0.40997 -0.0254496 0.0112421
0.00092034 -0.035078 -0.134938
0.0251485 -0.348339 0.122683
0 0 0
0 0 0
0.147224 0.117784 -0.0993037
-0.0014988 0.0667714 -0.0097168
0 0 0
0.0160896 0.0550758 -0.00793068
0.0786295 0.122102 0.00722758
-0.124955 0.0672669 0.0035261
0.0280961 -0.000360509 0.00324455
-0.21156 -0.0206388 -0.167777
0 0 0
-0.0533705 0.125121 -0.057467
0.012188 -0.0490514 -0.10684
0 0 0
0.000563157 -0.0213479 -0.000113726
-0.0590071 -0.0376432 -0.0766717
-0.156423 0.218741 -0.301465
0.0140187 0.00468868 0.00191617
0.00978029 -0.185278 -0.0738649
0 0 0
0.106073 -0.124847 -0.00516289
-0.10218 -0.072063 -0.316733
0 0 0
0 0 0
-0.0150268 0.0320785 0.00580187
0.201426 0.268103 -0.00872679
0.0176784 -0.0246396 -0.155681
0 0 0
0 0 0
0 0 0
0 0 0
0 0 0
0 0 0
0 0 0
0 0 0
0 0 0
0 0 0
0 0 0
0 0 0
0 0 0
0 0 0
0 0 0
0 0 0
0 0 0
0 0 0
0 0 0
0 0 0
0 0 0
0 0 0
0 0 0
0 0 0
0 0 0
0 0 0
0 0 0
0 0 0
0 0 0
0 0 0
0 0 0
0 0 0
0 0 0
0 0 0
0 0 0
0 0 0
0 0 0
0 0 0
0 0 0
0 0 0
0 0 0
0 0 0
0 0 0
0 0 0
0 0 0
0 0 0
0 0 0
0 0 0
0 0 0
0 0 0
0 0 0
0 0 0
0 0 0
0 0 0
0 0 0
0 0 0
0 0 0
0 0 0
0 0 0
0 0 0
0 0 0
0 0 0
0 0 0
0 0 0
-0.0348077 0.104708 -0.28723
-0.0295061 0.115235 -0.0413289
0 0 0
-0.0681782 0.0257827 -0.108838
0.0410622 -0.0183381 0.0734324
0 0 0
0.207524 0.0419668 -0.0533919
-0.0234526 -0.232629 0.247318
-0.0468745 0.118072 -0.307959
0.13884 0.0639855 -0.143531
0.00122874 0.0162098 -0.0169764
0.0637978 0.000369586 0.124081
0.0908256 -0.0150474 0.0512403
0 0 0
0.0261742 0.0169767 -0.0115379
0.0536433 0.0480428 -0.125348
0.0229507 0.0459262 -0.0722101
0.00571864 0.131167 -0.111781
-0.00118722 0.0295801 -0.000979063
0.119532 0.00369263 0.0810101
-0.039435 0.186158 -0.0587898
0 0 0
0.0215502 0.0387482 0.0202202
-0.00698748 0.0992993 -0.0765489
-0.00822113 0.000845461 0.0878322
0.0915521 -0.0393406 -0.0200772
-0.0101284 0.167933 -0.00683052
-0.171254 0.0379581 0.045212
-0.139295 0.0109325 -0.0543171
0 0 0
0.044064 0.0583163 0.10208
5.403e-05 0.0588547 0.229341
0.0286975 0.078436 -0.0153269
-0.00802031 0.0364331 0.00866261
0.00154494 0.00310488 0.00589376
0.00790998 -0.00536021 -0.0106327
0.0582305 0.142691 0.0329617
0 0 0
-0.201378 -0.0018977 0.112469
-0.00698759 0.0862966 -0.119408
-0.0423091 -0.0963638 0.161999
-0.0204029 0.0497798 0.0531411
0 0 0
-0.00189629 0.0793054 -0.0473767
0.00887712 -0.0102123 0.03623
0 0 0
-0.074091 -0.0875534 -0.132546
-0.0716898 0.00137572 0.11355
0.0097431 0.0435139 -0.0415536
0.0168846 -0.0958535 0.0436896
0 0 0
-0.00261688 -0.000632817 -0.0481972
-0.0120865 0.156698 0.0526891
0 0 0
0.037472 -0.00760119 0.0507718
0.0105347 -0.0324208 0.144069
0.0229312 -0.0489605 -0.202556
-0.130676 -0.0114995 -0.148454
-0.00182241 -0.0829948 -0.000272364
-0.0245622 0.00751319 0.0336137
0.159384 -0.00542174 0.0626
0 0 0
-0.100994 -0.0508616 -0.0639313
0.0826334 -0.0505072 0.0478946
0.123699 0.497793 -0.21015
0.113394 0.141086 -0.208616
-0.0484775 -0.110275 0.0949599
0 0 0
0 0 0
-0.404698 0.39642 -0.344388
0 0 0
-0.171323 -0.251841 0.0760489
0.0577712 -0.0864816 -0.0957121
-0.1021 0.362433 -0.258293
-0.051309 -0.167988 0.0495129
0.291266 0.17586 -0.300467
-0.00294334 0.140257 -0.054453
0 0 0
0.106597 -0.162296 -0.224867
0.0677812 0.13848 0.0270924
0.128631 -0.36988 -0.0328556
-0.00207556 -0.0231201 -0.178945
-0.000269664 -0.0466564 0.222278
-0.00293121 0.117644 -0.215257
-0.151549 -0.169488 -0.266444
0.123407 -0.192529 0.0160615
0.00906278 -0.22886 -0.242384
0.00225918 -0.126336 0.142752
0.211678 0.123526 -0.265913
0.121052 -0.0550477 0.495612
0.253012 -0.0346438 -0.169799
0.0461099 -0.0254999 -0.183564
0.0778517 -0.0793363 -0.117274
-0.00035007 -0.30665 0.019119
0.151539 -0.247595 0.0418501
0.0453031 -0.459339 0.228219
0.0511839 0.2044 -0.227082
0.153287 0.248106 0.354878
0 0 0
0 0 0
0.0326114 0.0065039 -0.00127943
0 0 0
0 0 0
0.147039 -0.0450775 -0.0637103
0.00152459 0.295323 0.0580454
-0.0229753 0.0284734 -0.0766437
0.450312 0.144953 -0.34133
0.159698 0.0679204 0.049889
0.00211778 -0.0521574 0.000752142
0 0 0
0.111503 0.0702274 -0.0390459
-0.0659489 0.0680151 -0.208763
0 0 0
0.0133157 -0.0549832 0.0179595
-0.0286875 -0.0717767 0.0760532
0.121154 0.0497153 0.00395831
-0.135326 -0.244753 0.313142
0 0 0
0 0 0
0 0 0
-0.190012 -0.0954539 0.00199639
0 0 0
-0.0196314 0.0732139 -0.0570054
0 0 0
0.293738 0.153905 -0.00580243
0.000509608 -0.062567 -0.0137344
0.0281966 0.110543 -0.0751765
0.0533183 -0.0448218 0.0385176
-0.00483374 -0.0497638 -0.0364847
0.212222 0.099545 -0.0821117
0 0 0
0.159994 -0.141349 -0.294368
-0.000288121 -0.00833589 -6.80101e-05
-0.00643848 -0.110023 -0.177908
0.00178211 0.0218549 0.173085
0 0 0
0.198039 0.253082 -0.0463937
0 0 0
0 0 0
0.358185 0.25675 -0.0732221
0.357166 -0.239487 0.173472
0.217922 -0.119495 -0.1086
0.0785225 0.0200372 -0.000967527
-0.0392545 0.127348 -0.00231391
0.0502064 -0.0721355 0.0867235
0.184001 -0.254668 0.227769
0.178876 0.313212 0.128622
0.018059 -0.188041 -0.00137316
-0.0850133 -0.0342697 0.0962688
-0.112384 0.258807 0.159424
-0.370468 -0.153246 -0.0486003
-0.0673263 -0.111455 0.0666887
-0.507683 0.150778 0.208478
-0.182002 -0.0291395 -0.208074
0.0419578 0.0567381 0.276737
0 0 0
0 0 0
0.12267 0.110801 0.0246933
0 0 0
0 0 0
0.0906147 0.224367 -0.101538
-0.045238 0.127272 0.0232263
-0.24049 -0.0408211 0.0132748
0 0 0
0.000931951 0.0417131 -0.0755972
0.0263135 0.128331 -0.165004
0.187019 -0.043946 0.196155
0.0389391 -0.0183695 0.0329403
0.268171 -0.0251768 -0.299808
-0.000813094 0.025587 -0.178026
0.098969 0.14892 0.173821
-0.205639 0.275202 -0.105876
-0.0603496 0.387484 -0.481878
-0.117502 0.102338 0.418335
-0.00303579 -0.124796 -0.298281
-0.0235346 0.108097 -0.350341
0.110687 0.0705124 -0.00178976
0.0640427 0.285578 0.127656
0.352748 0.132133 0.301348
0.0199774 0.0545849 0.0384467
-0.278729 0.0478111 0.000458024
-0.345234 -0.107735 0.105861
-0.346992 -0.227976 -0.156081
-0.154713 -0.052051 0.276229
-0.251057 -0.108577 0.233024
-0.0304554 0.00126532 0.0310053
-0.81443 -0.48492 0.0267003
-0.167083 0.0772333 0.0147786
-0.305738 -0.164415 -0.265773
0 0 0
-0.142876 -0.0189065 0.190002
0 0 0
-0.180893 -0.0663653 -0.204755
-0.0136725 0.0190957 -0.0250353
0.102759 -0.430192 0.024847
0 0 0
0 0 0