<?xml version="1.0"?>
<VTKFile type="RectilinearGrid">
<RectilinearGrid WholeExtent="0 32 0 32 0 32" Origin="0 0 0" Spacing="1 1 1">
<Piece Extent="0 32 0 32 0 32">
<PointData>
</PointData>
<Coordinates>
<DataArray type="Float32" format="ascii">
0 0.524874 1.04975 1.57462 2.0995 2.62437 3.14924 3.67412 4.19899 4.72386 5.24874 5.77361 6.29849 6.82336 7.34823 7.87311 8.39798 8.92285 9.44773 9.9726 10.4975 11.0224 11.5472 12.0721 12.597 13.1218 13.6467 14.1716 14.6965 15.2213 15.7462 16.2711 16.796 
</DataArray>
<DataArray type="Float32" format="ascii">
-5.03879 -3.62163 -2.20447 -0.787311 0.629849 2.04701 3.46417 4.88133 6.29849 7.71565 9.1328 10.55 11.9671 13.3843 14.8014 16.2186 17.6358 19.0529 20.4701 21.8872 23.3044 24.7216 26.1387 27.5559 28.973 30.3902 31.8074 33.2245 34.6417 36.0588 37.476 38.8931 40.3103 
</DataArray>
<DataArray type="Float32" format="ascii">
0 0.524874 1.04975 1.57462 2.0995 2.62437 3.14924 3.67412 4.19899 4.72386 5.24874 5.77361 6.29849 6.82336 7.34823 7.87311 8.39798 8.92285 9.44773 9.9726 10.4975 11.0224 11.5472 12.0721 12.597 13.1218 13.6467 14.1716 14.6965 15.2213 15.7462 16.2711 16.796 
</DataArray>
</Coordinates>
<CellData>
<DataArray type="Float32" Name="Vector" NumberOfComponents="3" format="ascii">
0 0 0
0 0 0
0 0 0
0 0 0
0 0 0
0 0 0
0 0 0
0 0 0
0 0 0
0 0 0
0 0 0
0 0 0
0 0 0
0 0 0
0 0 0
0 0 0
0 0 0
0 0 0
0 0 0
0 0 0
0 0 0
0 0 0
0 0 0
0 0 0
0 0 0
0 0 0
0 0 0
0 0 0
0 0 0
0 0 0
0 0 0
0 0 0
0 0 0
0 0 0
0 0 0
0 0 0
0 0 0
0 0 0
0 0 0
0 0 0
0 0 0
0 0 0
0 0 0
0 0 0
0 0 0
0 0 0
0 0 0
0 0 0
0 0 0
0 0 0
0 0 0
0 0 0
0 0 0
0 0 0
0 0 0
0 0 0
0 0 0
0 0 0
0 0 0
0 0 0
0 0 0
0 0 0
0 0 0
0 0 0
-0.00343235 -0.0144331 -0.0419118
-0.0223619 0.196315 -0.000434109
0 0 0
-0.131441 0.0234053 0.0826193
-0.12693 0.0783266 -0.0435783
0 0 0
0.0745423 -0.0354714 0.00542507
-0.0394052 -0.0440155 0.0262849
0.0370358 0.0261736 0.00812392
-0.0253898 -0.170642 -0.00445042
0.000475295 0.0238707 -0.00058681
-0.121668 0.0440834 -0.0258962
-0.336292 0.0323912 -0.127089
-0.0261379 0.019221 0.0462731
-0.0445148 -0.0945712 0.0201587
0.0186703 -0.13192 0.0222529
0.103241 0.0263214 -0.0554395
0.0171676 0.143456 0.0227514
0 0 0
0.073137 -0.118367 -0.00390654
-0.0891859 0.0492647 0.0764621
0 0 0
0.136207 0.0976918 -0.0332413
-0.0372798 -0.20513 -0.0827188
-0.102273 -0.0107761 0.140253
0.133527 0.103851 0.0615208
0 0 0
0.304363 0.0469688 -0.0889817
0.0626362 0.0899427 -0.0206959
0.000649345 0.000252634 -0.0110539
0.0771608 0.126921 0.00473088
-0.0137056 0.083511 -0.0264155
0.110913 0.0600992 -0.0645158
0.0409461 -0.0235427 -0.032069
0.0293522 0.067226 0.269722
0.64787 -0.227603 -0.262386
0.0873914 0.0546586 0.0486584
0 0 0
0.146824 -0.135976 -0.0686337
-0.046254 0.00401339 0.00831116
-0.061139 0.0414586 -0.0368015
0.25312 0.154372 0.0449313
0 0 0
0.00771848 0.0129799 -0.0264697
-0.0412992 0.271345 -0.00228828
0 0 0
-0.0978867 -0.0409514 0.0583961
-0.0509722 -0.0911144 -0.0614291
-0.0178713 0.0121595 0.0608384
0.128481 -0.0598651 -0.085578
-0.00051728 -0.0135775 -0.0245606
-0.0377817 -0.00847443 0.0200198
-0.0898246 0.0651884 0.0376242
0 0 0
0.22421 -0.116209 0.0349562
-0.0372523 -0.02324 -0.0464894
-0.0140519 0.0844658 0.0214856
-0.0257908 -0.0919869 -0.00238388
0 0 0
-0.0668331 -0.0357235 0.0471864
-0.0592653 0.037619 -0.013131
-0.00322573 0.0883628 0.0144043
0 0 0
0.0444438 -0.0832156 0.0616461
0.196945 0.203144 -0.388942
0.00511183 -0.105994 0.0524058
-0.0622511 -0.0838804 0.0581852
0 0 0
-0.295617 -0.00162233 -0.0046489
0 0 0
-0.279646 0.00335013 -0.326507
-0.208097 -0.0647537 -0.44779
0.0692589 -0.0190638 0.464831
0.0479778 0.153571 -0.063654
0.142687 0.0844417 0.0596947
0.122769 0.592911 -0.0011183
0 0 0
0 0 0
-0.0436434 0.357171 -0.0856879
-0.0183072 0.0560597 -0.17589
0 0 0
0.259514 -0.120178 -0.386789
0 0 0
0.260636 0.199474 0.164215
0 0 0
0 0 0
0 0 0
-0.0863372 -0.107335 -0.0390214
-0.067124 0.132606 0.0410837
0.269068 -0.455794 -0.215127
0.00173427 0.136292 -0.0496329
-0.0532182 0.0442422 0.0492147
0.148565 0.0540944 0.147384
0.0632142 -0.338462 -0.145298
-0.0118357 -0.0257654 -0.0128847
0.000105712 -0.000944321 0.00283317
0.423173 -0.299681 -0.0725919
0.0819599 -0.0402469 -0.0883264
0 0 0
-0.199817 0.189536 0.115142
0 0 0
-0.0799901 0.175706 -0.189289
-0.00995848 -0.14569 -0.0587648
-0.0562394 0.0947774 0.0600595
-0.196403 0.133858 -0.0764238
-0.105394 -0.457369 -0.376553
-0.262633 0.152458 0.000251154
0 0 0
0.487702 0.223523 0.131156
0.199499 -0.0185636 -0.0707977
0 0 0
-0.00259566 -0.105953 -0.0875449
0 0 0
0.0280976 -0.0886031 0.0137152
0 0 0
0.097653 0.15609 0.193672
0.146231 0.25547 -0.0389951
0.0614964 0.798164 -0.336578
0.22793 -0.000728834 0.0867425
0.240284 -0.333235 -0.372813
0.374546 0.157968 0.0152918
0 0 0
-0.0953734 -0.234323 0.0248492
0.146653 -0.0299001 -0.0800863
0.386661 0.031643 -0.0810201
0.0311038 0.068896 -0.000962334
0.233985 0.384785 0.101356
0 0 0
-0.116196 0.256437 0.331552
0 0 0
-0.0104026 -0.0846125 -0.197904
-0.00294678 -0.0551638 0.136623
-0.0953059 0.14063 0.243944
0.0894339 -0.521449 -0.0452104
0 0 0
-0.35283 0.160647 0.0946435
-0.0180018 -0.11807 0.122449
-0.465221 -0.100637 -0.266886
0.00231657 0.180152 0.182607
-0.0353869 -0.0315258 0.0568044
-0.10784 0.0199188 -0.035987
0.0243587 -0.208167 0.0517145
0.421674 0.0151529 0.175413
0.145556 0.107018 -0.108297
0.352731 -0.0162572 -0.135102
0.155118 0.0821871 0.13768
0.0172961 0.0644443 -0.0541757
0.0361277 0.07709 0.000153495
0 0 0
-0.0160462 0.58649 -0.108716
0 0 0
0.0734108 0.438492 -0.167229
0 0 0
0.0639817 -0.0751156 0.00191586
0.0881434 -0.218743 0.249403
0 0 0
0 0 0
0 0 0
-0.0471376 0.0585427 0.000526343
0 0 0
-0.0991575 0.0799928 -0.0675728
0.225607 0.0921848 0.222115
-0.116409 -0.0181695 -0.0102562
0.00844608 -0.025646 0.00584194
0.0566834 0.0439393 0.155627
0.0758795 -0.126138 0.0709461
0.157407 -0.0616359 0.00384057
0.149866 0.116144 -0.136089
0.0158557 0.101555 -0.0843229
0 0 0
-0.17292 0.219599 -0.104864
0 0 0
0.0500225 0.045729 0.0490449
0.176229 -0.176301 0.447095
0.0338646 0.111933 0.0207209
0.265151 -0.247302 0.0586126
0.000417069 0.0194395 -0.0332241
0.0220062 0.146818 -0.0816665
0.00348527 -0.0214994 -0.0393599
0.31224 -0.00272492 -8.30498e-05
0.0213257 -0.0696842 0.100785
0.132779 0.387749 -0.00150269
0.0530779 0.322336 0.23313
0.142181 0.428214 0.17937
0 0 0
0 0 0
-0.267617 -0.197838 -0.157127
-0.0703531 0.107997 -0.0599056
-0.109115 -0.0160997 0.230881
0 0 0
-0.0877316 0.43407 -0.363679
-0.000119499 0.0640714 0.166501
-0.0635872 -0.0928865 -0.0738416
0 0 0
0.16898 -0.169138 -0.49414
0 0 0
0.318551 0.149445 -0.0274537
0.00284539 -0.0577127 0.0655943
0.176667 -0.0475728 -0.244646
0 0 0
0.252016 0.218932 -0.0968459
0 0 0
0 0 0
0.00757921 -0.0685402 -0.113525
0 0 0
0.217264 0.103091 0.140467
0.0400953 0.0117671 0.162284
-0.0771927 -0.0305627 -0.00656388
-0.0308048 0.0731069 -0.0893777
0.15779 -0.0304833 0.00371994
0 0 0
0.500407 0.22917 0.354781
0.0397866 0.00823218 -0.0213272
-0.0840279 -0.155214 0.0814985
-0.0288068 -0.0595149 -0.000738589
-0.0352924 0.0805614 0.193072
0.354195 -0.129004 -0.251838
0.220608 0.141722 -0.119638
0.172549 0.172669 0.294838
0.0638798 0.187979 0.214461
-0.146295 -0.218568 -0.00376117
-0.312643 0.363708 0.05129
-0.000335959 0.105394 -0.236683
0.236053 -0.0895827 -0.456408
0.00879678 0.0171846 -0.0402141
0.243347 0.134317 0.0484491
0.143187 0.0891747 0.0733602
0 0 0
-0.111983 -0.0326952 0.178383
0 0 0
-0.0732305 0.133584 -0.343871
-0.135327 0.00893455 0.146958
-0.237515 -0.0343111 0.0151663
0 0 0
0.0494248 -0.0213655 0.0129254
0 0 0
-0.0785766 -0.143023 0.0861891
0.267989 0.106194 0.0185573
-0.0167694 -0.0183042 -0.0612121
0 0 0
0.0454815 -0.226545 0.45964
0 0 0
-0.0936693 0.301819 -0.0544607
0 0 0
-0.193224 0.0326865 -0.207396
-0.151028 -0.00240301 -0.316484
-0.161754 -0.00369568 -0.0498898
-0.160015 -0.255183 0.177794
-0.0465481 -0.190055 0.00558609
0.0177345 0.002024 -0.0131804
0.00888138 0.0139152 -0.0961894
0 0 0
0 0 0
0.118783 0.0314585 0.142855
0.0171549 -0.0078821 -0.0115574
0.446428 -0.18116 0.0725585
-0.106767 -0.141245 0.344229
0.000428141 -0.0129775 -0.0131135
-0.0945034 -0.11124 -0.162641
0.0427304 0.00495883 0.0631507
-0.0647781 -0.222813 0.524176
0.00920343 -0.171173 -0.0393651
0.18536 0.242045 -0.403988
0.176567 0.12805 -0.213998
0.00545318 0.179152 0.0730842
0.320654 -0.215186 -0.0759627
0.0479992 -0.190762 0.251388
-0.00821266 0.00585245 -0.0487467
-0.00069316 -0.00461689 0.00253036
0.0142873 0.019927 0.000644043
0 0 0
0 0 0
-0.0489573 0.215489 -0.0152814
-0.0261616 0.033343 0.00139853
0 0 0
-0.246788 0.285969 0.23062
0.387767 0.0586664 0.287145
-0.121272 0.340428 -0.220937
0.241733 -0.265533 -0.121855
0.0294762 -0.400758 0.371929
0 0 0
-0.154596 0.0720704 -0.121994
-0.235198 0.493339 0.238176
0 0 0
0.00727601 -0.0892274 -0.333478
-0.291606 0.176402 0.379268
-0.0809296 -0.0816708 0.0535293
-0.0820322 0.0602095 -0.135116
-0.0921782 -0.0398149 0.197044
0.131787 0.0300067 0.0305942
0.123004 0.165444 0.205027
0.299033 0.403562 -0.048612
-0.0185922 0.0193273 -0.00335131
-0.15008 -0.0721162 -0.22941
0.07791 0.094982 -0.458816
-0.060048 0.275607 -0.0495718
0 0 0
-0.0131445 -0.23926 0.0029875
0 0 0
-0.00493834 -0.00242665 -0.0347788
0 0 0
-0.123921 0.26844 -0.221313
0 0 0
-0.215412 0.201723 -0.000750725
0.0964468 0.188737 -0.125196
-0.136648 0.464712 0.0589308
-0.0334563 0.00867693 0.00123942
-0.0906932 0.0750997 -0.0546635
-0.0170372 0.123285 0.231122
0.0622517 -0.00274185 0.0824804
0.0486925 0.0660975 -0.0831151
-0.0972214 -0.0561472 -0.0213331
0 0 0
0 0 0
-0.156269 0.0562786 -0.00697583
-0.32176 -0.177247 -0.129608
0 0 0
0.0609048 0.236982 -0.103155
-0.00330002 0.128319 -0.128893
0.113926 -0.103657 0.17664
0 0 0
0.209862 0.0977154 0.0737224
0.102396 0.0867731 0.0641582
0.106425 0.236183 -0.17794
0 0 0
-0.154428 -0.135912 0.149913
0.00131447 -0.00112181 -0.00683466
0.00144655 0.000748455 0.0838909
0.00834085 0.103693 0.014063
-0.256868 -0.324083 -0.267556
-0.0864054 -0.448071 0.0301529
-0.335408 0.214777 0.0425563
-0.396805 -0.0304239 -0.247467
-0.147525 -0.0168402 0.162072
0 0 0
0.162226 0.46608 -0.436572
-0.0206073 0.00154495 -0.00646105
-0.0234145 -0.00496297 -0.00644319
0 0 0
0.0693031 0.305604 0.0121178
0.0995754 -0.0159552 0.158162
0 0 0
0 0 0
-0.322832 0.0861062 -0.071219
-0.102628 0.0131099 0.275838
0.0102921 0.0538948 0.0894865
0 0 0
0 0 0
0.0506898 0.047079 -0.109953
0.129853 -0.0611327 0.0030663
0.0816194 -0.138097 0.0207261
0.0742948 -0.123581 0.0585932
-0.04028 0.0255078 -0.0381951
-0.0662748 -0.1557 0.0644145
0 0 0
0 0 0
0 0 0
0.11124 -0.022312 -0.0517569
0.0410826 0.0645135 0.055922
0 0 0
0 0 0
0.193709 -0.110577 -0.0162803
0 0 0
0.14698 -0.0804301 -0.102308
0 0 0
-0.0471519 0.150135 -0.00232562
0.0193529 0.036889 0.0172723
-0.0861228 -0.109803 0.000564805
0.0115026 0.383934 -0.208737
0.186896 0.234193 -0.0969803
-0.0972524 0.224242 -0.0394991
-0.0161563 0.0123984 0.0147114
0.0421856 0.0756949 -0.10521
-0.458378 -0.240046 -0.0511354
-0.102802 0.0204813 0.0359246
-0.211524 0.00518354 0.0527449
-0.121998 -0.152926 -0.00332407
-0.0798251 -0.026437 0.00647034
-0.224627 0.15694 0.220993
0 0 0
0 0 0
0.0941281 -0.100622 0.121046
0 0 0
-0.0964945 0.158521 0.126131
-0.0613725 -0.00149001 -0.00326456
-0.221117 0.205286 0.239939
0.0370268 -0.0970642 0.0419714
0.0692371 -0.0314134 -0.011008
-0.0361616 -0.0599948 0.155108
0.038528 -0.237329 0.133105
0.00548744 0.049286 0.00558808
0 0 0
0 0 0
-0.0516038 -0.0394581 0.0486751
0.0619874 0.0483411 -0.0461275
0.331668 0.0868857 0.111969
-0.0845091 0.0634679 -0.241069
-0.0866961 0.0754989 0.00227754
-0.00258479 0.264514 0.00655863
0 0 0
0.0865256 0.0178582 0.00131631
0 0 0
0 0 0
0 0 0
-0.0593283 0.0930182 0.150482
0 0 0
0.00178603 0.106061 -0.0836364
-0.0682641 -0.273153 -0.210218
-0.0411099 -0.187836 -0.00189977
-0.183678 -0.301217 -0.187006
0.00815126 0.0195908 0.0356649
-0.344143 -0.111313 0.306265
0 0 0
0 0 0
-0.188254 0.15481 0.282819
-0.0189899 0.104373 -0.0570237
-0.00232733 -0.0721742 0.0792989
0 0 0
0 0 0
-0.104593 -0.0361394 0.246979
0.0218167 -0.407705 0.0217619
0 0 0
0.00224304 -0.0286906 0.142137
0 0 0
0.107878 -0.227165 -0.439338
0 0 0
-0.0729416 -0.342008 -0.296644
0.0141823 -0.0502125 -0.017061
0 0 0
0.262436 0.0516341 -0.00521965
0 0 0
-0.00624519 -0.0667045 -0.0622195
0 0 0
0.206899 0.210444 0.113358
-0.0938233 0.150034 0.021208
0.171162 0.0235981 0.0341974
0.0364687 0.0511103 -0.0735344
0.00318611 -0.0517445 0.029947
-0.135311 -0.131377 0.0618904
-0.104659 -0.0450133 0.0487194
0 0 0
-0.00045063 0.00094432 -0.0142747
0 0 0
-0.461888 -0.247098 -0.109963
-0.0313856 0.0288422 -0.00965513
-0.290527 0.661643 -0.175607
0 0 0
0 0 0
0.0857242 -0.0720193 0.0386092
0.150196 -0.590379 -0.304447
0.0714705 -0.113713 -0.000680138
0.21613 0.0137213 -0.292375
0 0 0
-0.181058 0.0163048 0.226379
-0.0520214 0.0938938 0.0377583
0 0 0
0.106036 -0.200349 0.300584
0 0 0
0.132109 0.0510022 -0.169793
0.133591 -0.371681 0.182715
0.0889093 0.161596 0.132244
0.200764 0.16852 -0.41699
0.0370323 -0.00465314 0.00974557
0.119209 0.270305 0.028899
0 0 0
-0.0272221 0.0485755 0.000881176
0 0 0
0 0 0
0.0735544 -0.147951 0.283001
0 0 0
0 0 0
0.00850591 0.00482849 0.00355269
0.211541 0.559 0.30611
0 0 0
0.167702 -0.177611 -0.133552
0 0 0
0.00252858 0.00660623 0.0191744
-0.120378 0.415994 0.399482
0.233644 -0.202819 -0.120894
0.0734318 0.0248608 -0.00526253
0.117551 -0.118044 0.0734994
0 0 0
0.103521 0.00217614 0.0989279
0.123382 0.0483744 0.14892
-0.220945 0.206218 -0.00332693
-0.117901 0.0497712 0.00897446
0.0138253 0.0365137 0.135943
-0.0318681 -0.236253 0.179646
0.275774 -0.380952 0.269182
0.146782 -0.00586608 0.00744432
0.122895 -0.247865 0.0668033
0 0 0
-0.124089 -0.218593 -0.0227185
0 0 0
-0.0352014 -0.157687 -0.0531396
0.120247 0.0732375 0.000471503
0.00335671 0.0555225 0.0860081
0.0781642 0.260255 -0.230736
-0.00581542 0.184421 -0.0171893
0 0 0
0.0905859 -0.0131185 0.0626263
0 0 0
0.004952 -0.002986 0.1149
0 0 0
-0.269887 0.286549 -0.21751
-0.124913 0.0192216 -0.0923135
0 0 0
0 0 0
0.0356058 -0.0494142 -0.00187571
-0.146458 -0.133474 -0.133299
0.164528 0.0881502 -0.0352982
0.293557 -0.324075 0.243037
-0.191716 -0.139139 -0.107758
-0.0430339 0.105643 0.000150231
-0.0988708 -0.16429 -0.000942542
0 0 0
-0.376212 0.151329 -0.362317
-0.0669063 0.120948 0.0925492
-0.15907 0.445567 -0.338725
0 0 0
-0.0208016 0.300125 -0.321074
0 0 0
-0.0650783 0.0554855 0.0523229
-0.161122 -0.165259 0.155989
-0.0431671 0.0307959 0.0357165
-0.0630063 0.0955235 -0.0981578
-0.0773911 -0.436889 -0.0198472
-0.0547277 -0.359734 -0.0417314
0.148536 0.146749 0.392308
0 0 0
0.139087 0.019422 -0.141685
0.0032556 0.155138 0.0332298
0.0326885 0.0125283 0.0459065
0 0 0
0.0253771 0.00855337 0.218252
0 0 0
0.00227521 0.0134176 -0.0233266
-0.262961 0.1964 -0.0604945
-0.0541254 -0.162281 -0.0880695
-0.25558 0.00611887 -0.431124
0 0 0
-0.267589 -0.207297 -0.0327791
0 0 0
-0.0139003 0.00234783 0.0291121
0 0 0
-0.168635 0.123533 0.236572
0.00144757 0.137701 -0.117169
0.147216 0.303672 -0.314316
0 0 0
0.026109 0.0661816 0.0594579
-0.224001 0.100035 -0.0534272
-0.091508 0.204211 -0.106597
0.0309337 0.107366 -0.0147742
-0.0598822 0.0229633 0.00113198
0.101668 0.129727 -0.0486684
0.0984023 0.0304678 -0.0675098
0 0 0
0 0 0
0.00971172 0.0235165 -0.00343197
0.0859736 -0.327836 -0.146059
0.00343528 0.0342841 0.0350372
-0.290258 0.408863 0.18979
-0.0846454 0.538865 -0.254492
0.0906212 0.0408664 0.00389126
0 0 0
0.123453 0.180065 -0.294165
0.0794885 -0.0294768 -0.0333376
0.283146 0.0868377 -0.140345
-0.00161355 -0.376609 -0.147038
0.104631 -0.0201653 -0.245128
-0.0629246 -0.0344821 -0.107758
-0.15397 -0.0193659 -0.14227
0.00393511 -0.27511 -0.154173
-0.025956 -0.010633 0.0940377
0 0 0
0.0885434 -0.332378 -0.385046
-0.00862668 -0.00117451 -0.00999069
-0.194058 -0.174774 -0.442893
0.0455264 0.208601 -0.216924
0.00158951 0.0531347 -0.0683825
-0.0578817 -0.00872863 -0.0444567
0.0395315 -0.103028 -0.528232
0 0 0
0.0294696 0.038405 0.15724
-0.0746793 0.284615 -0.0710349
0.0296051 -0.101838 -0.188483
0 0 0
-0.200201 -0.116873 -0.378353
-0.180442 -0.0713673 0.103746
0 0 0
-0.0456013 0.0164492 -0.0100022
-0.227172 -0.501975 -0.00203443
0 0 0
0 0 0
-0.0277439 -0.396528 0.049474
0 0 0
0 0 0
-0.0826612 -0.0154009 -0.10743
-0.0986967 -0.143266 0.050046
-0.159812 0.0537986 -0.220171
-0.0268541 0.044612 0.0084899
0.245459 0.0529329 -0.520822
0.0209082 -0.0218344 -0.0239808
0.377368 -0.106781 -0.280286
0.0264781 -0.012244 0.0616116
0.1667 0.0135135 -0.240229
0 0 0
-0.0513331 -0.19946 -0.0494081
0.0578431 0.195995 0.00040064
0.106478 -0.0402183 -0.0741253
0.337521 0.282388 -0.293085
0.087041 -0.176825 0.0993765
-0.115069 -0.0656318 -0.228055
0 0 0
0.00594285 -0.00963567 -0.0887003
0 0 0
0.019988 -0.0164982 -0.0203137
0 0 0
0.0278909 -0.0418332 0.0688184
-0.0149733 -0.713808 -0.0710965
0.00234518 -0.00700934 0.0148226
0.0948387 0.00820885 -0.0167138
0 0 0
0.291601 -0.303895 -0.0515283
-0.000410799 -0.0242125 -0.0306867
0.122016 -0.0300747 0.143945
0.320485 0.129369 0.0774692
0.0348183 0.118521 0.449815
0 0 0
0.0931985 -0.224551 -0.252962
-0.0322699 0.00399015 0.0164205
-0.140787 -0.0532718 0.269705
0 0 0
0.0695411 -0.152684 -0.0614608
0.0212176 -0.00649866 -0.0191865
0.0776911 -0.0490587 -0.0285711
0.00832129 -0.000834867 -0.0126734
0.0666971 0.0274159 0.00521164
-0.0491256 -0.163832 -0.0933593
0 0 0
-0.0681523 -0.0385528 -0.000819016
0 0 0
-0.231017 0.0312705 -0.385045
0.175778 -0.0289712 -0.10788
0.000892241 0.201402 -0.179362
0 0 0
0.219908 -0.187699 -0.107899
0 0 0
0.141676 -0.021848 0.0609996
-0.0771385 -0.0915509 -0.0133209
-0.139853 0.0369646 -0.12148
0 0 0
-0.0884829 -0.173636 0.116137
0.0670422 -0.0615536 -0.170463
0.158655 -0.197483 -0.0712723
0.0436352 -0.0210461 0.169517
0 0 0
-0.00437488 0.0997325 -0.00507793
0.0141199 -0.0144615 -0.00664557
0 0 0
-0.168275 -0.129544 0.172682
-0.310341 0.20283 0.266631
-0.0956536 -0.0475457 -0.24708
0.232705 0.226738 0.021038
0 0 0
-0.285389 0.267918 -0.10482
-0.127381 -0.208101 -0.0109074
-0.196834 -0.0697009 -0.00021039
-0.14441 0.012108 0.0538773
-0.203553 0.30371 -0.0525623
-0.253308 -0.135222 0.0806672
-0.0797914 0.107735 0.0464408
-0.177372 0.199234 -0.171663
-0.00229258 -0.0179495 -0.0257853
0.0846888 0.273073 -0.181134
0 0 0
0.324808 -0.0804445 -0.311321
0.274401 -0.119213 0.186414
0.176717 0.0659184 0.0776419
0.00558506 -0.00322232 -0.012059
-0.0841941 0.00100842 -0.0592029
-0.288305 0.0690314 0.235608
0 0 0
0 0 0
-0.383586 -0.345621 -0.272567
0 0 0
-0.00552512 0.0583604 0.00166635
0 0 0
0 0 0
-0.100132 0.180128 0.183126
0.0496117 0.000241968 0.0142679
-0.364607 0.357037 0.215399
0 0 0
-0.0651303 0.011032 0.0707583
0 0 0
0.0410644 -0.346512 0.0232708
0 0 0
0.00323464 -0.239382 -0.118933
0 0 0
0 0 0
0 0 0
-0.054861 0.220849 -0.27869
0 0 0
0.134775 -0.115375 -0.100051
-0.23651 -0.0158858 -0.169311
0.065748 -0.204908 -0.230262
0.0758448 -0.125143 -0.00376495
0.0749652 -0.0618404 0.00740579
0.0751292 -0.0619009 0.16122
-0.0960585 0.245492 -0.00419099
-0.198767 0.343163 -0.156759
-0.185483 -0.023706 0.253973
-0.263532 0.127546 -0.0553834
0 0 0
0.373126 -0.0831734 0.108941
0.0683575 -0.00804979 0.0515535
0 0 0
-0.24735 0.00731719 0.0988045
0.355514 0.0132724 -0.117199
0.0162834 -0.417502 0.0945495
0.057238 0.0309505 0.239287
-0.0294112 -0.147043 0.00952773
0.0627566 -0.283227 -0.0330689
0 0 0
0 0 0
0.194985 0.053727 0.168551
0.177878 -0.00130233 0.110313
-0.010744 0.0264306 -0.0101369
-0.0909865 0.056739 0.0817767
0.196388 -0.0417564 0.340108
0.0296398 0.0494047 -0.118518
-0.328843 0.0794449 -0.0370225
-0.0291441 -0.0425509 -0.135241
-0.166973 0.00917547 -0.275675
0 0 0
0 0 0
0.0898808 0.0458884 -0.264623
0.156767 -0.0474803 0.0534008
-0.256355 -0.0890771 0.128072
-0.278721 -0.114274 -0.100595
0 0 0
0.0574746 -0.121698 -0.026278
-0.261804 0.208115 -0.0460685
-0.0304077 0.00915926 -0.0320492
0 0 0
0 0 0
0.272968 0.35963 -0.0684295
0 0 0
0 0 0
-0.0729458 -0.109841 -0.114296
-0.0247526 0.0491993 0.0451497
0 0 0
0.0101915 -0.00208419 -0.0093806
0.0154401 0.000710155 0.0345352
0.242835 -0.427855 0.106383
0 0 0
-0.114175 0.158193 0.0869082
0.00440928 -0.188503 0.0779617
0.524076 0.18307 0.0175242
0.0251234 0.126287 0.0498718
0.0910765 -0.0393254 -0.091544
0.0755176 0.150958 0.235861
-0.218083 0.060024 -0.145104
0 0 0
0 0 0
-0.00501556 0.0670603 -0.144496
-0.104727 0.289039 -0.216878
0.217517 -0.0545881 -0.0356251
0 0 0
0.207892 0.0072171 -0.016343
0 0 0
0.129234 0.435379 0.209631
0 0 0
0.218797 0.0587799 0.405577
0 0 0
0 0 0
0.206984 -0.254053 0.0220425
0.143168 0.0305503 -0.0149931
0.160194 0.0996074 0.449902
0.055675 0.0506146 -0.0737351
0.0127587 0.0183903 0.027658
0 0 0
0.0662062 0.0957741 0.00216492
0 0 0
0.00112715 -0.0613712 -0.0283951
0.14541 -0.0963818 -0.0140805
-0.0131074 -0.0854747 -0.0639849
-0.00299773 0.0333944 -0.0510626
0.098381 -0.286939 0.106789
0 0 0
-0.059323 -0.100655 0.00554291
0.246604 0.0861794 0.0347735
0.0760363 0.0811353 -0.193874
-0.151642 0.141226 -0.15977
0.00165357 0.0822257 -0.0100572
-0.179798 -0.184535 -0.222938
-0.18847 -0.0399092 -0.098798
0.110893 0.157986 -0.135829
0.00424937 0.0610982 0.0130236
0.00449016 -0.0103525 0.0349329
-0.112571 0.0627954 0.00729141
-0.228553 -0.0928873 0.148271
0 0 0
-0.0361686 -0.0490215 0.000553934
0 0 0
0.0355575 -0.0582159 0.321815
0.267421 -0.0144826 0.134377
0.114835 -0.0187857 0.0239395
0.247427 -0.0586645 -0.268085
0.169946 -0.26204 -0.368909
0.07315 -0.036591 -0.0095775
0.0666144 -0.0243713 0.0931415
0.355056 -0.0128671 0.0604423
0.163268 0.0301459 0.0268194
0.00204589 0.00267031 -0.0147555
-0.00564258 -0.264628 0.0348775
0 0 0
-0.179432 -0.254207 0.193792
-0.0607573 0.0177444 0.104136
-0.0521119 0.0591317 -0.0154591
0 0 0
0.190716 -0.152606 0.367032
-0.0585584 0.000299812 -0.00353914
0.0182838 0.0268029 -0.022675
-0.197716 0.289258 0.245327
0.19223 -6.94797e-05 0.0630941
0.000490083 0.18532 -0.258683
0 0 0
-0.0760072 0.0284562 -0.0035744
0.0079588 0.077317 -0.00378711
0 0 0
0 0 0
0.0857691 -0.00329413 -0.0938052
0 0 0
-0.0927445 0.117027 -0.00583298
0 0 0
0 0 0
-0.104891 0.00392296 0.147757
0 0 0
0 0 0
0.11656 0.127843 0.00332359
0.0743198 0.111953 0.0241767
0.19283 0.188638 -0.269224
-0.0857267 -0.0823137 0.150794
0.0155971 0.0623947 0.188557
0.235063 0.332934 0.0241613
0.000810795 0.160996 -0.0513008
0.358035 -0.147477 0.161167
0 0 0
0 0 0
0 0 0
0 0 0
-0.00166839 -0.174935 0.0615152
-0.0249938 -0.0343341 -0.0102958
0 0 0
0.129796 -0.0954317 -0.246935
0.170171 0.0945556 -0.120686
0.374269 -0.00111109 -0.112092
0.0807031 0.309402 0.175755
-0.0103005 0.218802 -0.0262932
0.00173525 -0.018947 0.00462092
0.0928051 0.00662457 -0.118382
0.241208 0.370067 0.0331316
0 0 0
0 0 0
0.163505 -0.0727021 -0.138243
0.118794 0.0118618 0.109528
0.245246 -0.150193 -0.230839
0.0914652 -0.0723017 -0.0894739
-0.0427904 -0.0305713 0.0114436
-0.160325 -0.115667 -0.412656
0 0 0
0 0 0
-0.0597831 0.210538 -0.100085
-0.084215 0.1615 -0.0277386
-0.0119037 -0.0473406 -0.0273841
0.0978665 0.0827049 -0.00288612
0 0 0
0.179146 -0.411419 0.255293
0 0 0
0.208515 -0.187836 0.0664973
0 0 0
-0.287309 -0.16788 -0.22473
-0.0118857 0.0886236 0.0275322
-0.093715 0.0680992 -0.0268882
0 0 0
-0.237096 -0.187935 0.248119
-0.403932 -0.0883983 -0.140719
-0.0867453 0.0674574 -0.0128804
-0.0778516 0.403985 -0.16149
-0.415174 0.122243 0.149956
-0.180442 0.0461259 -0.176941
-0.103668 -0.0491056 0.0108673
0 0 0
0.0478369 -0.118442 0.177419
0.132622 0.284041 -0.251677
0.00208656 0.177733 0.276027
-0.0110147 0.0105502 0.240087
0 0 0
0 0 0
0 0 0
-0.00223166 -0.241214 -0.180076
-0.113714 -0.214521 -0.124307
-0.419528 0.267241 0.120872
-0.23182 -0.0534228 -0.0117546
0 0 0
0 0 0
-0.368863 0.269559 -0.0687629
-0.054301 0.0174063 0.100705
-0.0275824 0.0249108 -0.0252468
-0.053395 -0.042454 0.142349
0 0 0
-0.0638401 -0.0531717 0.262098
0.0362677 -0.0716071 -0.000882602
0.233772 0.0263134 0.0568099
-0.00125203 0.197538 0.101889
0.0530893 -0.0582955 0.0628856
0.00115857 0.0626471 0.142162
-0.360257 0.015862 -0.299873
0.053646 -0.000349974 -0.0222248
-0.0791321 -0.00325389 0.000926234
0.0106353 -0.0018749 -0.00438404
0.089339 0.373383 0.139521
0.20645 -0.001735 0.00150098
0 0 0
-0.0619255 -0.376044 -0.140346
0 0 0
0.0371398 0.352112 0.18308
0.356668 -0.141001 -0.0223292
0.0294054 -0.0556633 0.171622
0.521619 0.0629533 -0.209499
-0.133266 -0.138902 0.197003
-0.0310862 -0.00696501 0.0866136
-0.197508 -0.141911 0.0268403
-0.0350726 0.1719 0.198309
0.0326866 0.000567436 -0.013562
-0.0943142 0.0659846 0.282701
-0.453113 -0.0873292 0.00541689
-0.0576586 -0.0329769 -0.00112947
0 0 0
0 0 0
-0.0667492 -0.007533 -0.0843633
-0.0750374 -0.00984048 0.0014209
0 0 0
-0.0808039 0.358209 0.339149
0 0 0
0.115535 -0.216702 -0.182287
0 0 0
-0.0093286 0.204653 0.256212
-0.00111033 0.0419787 -0.0421162
-0.085762 0.0411132 -0.129011
0 0 0
0.0293436 -0.0247036 -0.000533819
0.149605 -0.011015 -0.0887892
0.0203494 -0.0190863 -0.0242
0 0 0
0.120142 -0.0060482 -0.144838
0.0640003 -0.00153716 -0.00185687
0.048257 -0.137393 -0.137191
-0.064486 0.0245329 0.0356179
0 0 0
0 0 0
0 0 0
0 0 0
0 0 0
0 0 0
0 0 0
0 0 0
0 0 0
0 0 0
0 0 0
0 0 0
0 0 0
0 0 0
0 0 0
0 0 0
0 0 0
0 0 0
0 0 0
0 0 0
0 0 0
0 0 0
0 0 0
0 0 0
0 0 0
0 0 0
0 0 0
0 0 0
0 0 0
0 0 0
0 0 0
0 0 0
0 0 0
0 0 0
0 0 0
0 0 0
0 0 0
0 0 0
0 0 0
0 0 0
0 0 0
0 0 0
0 0 0
0 0 0
0 0 0
0 0 0
0 0 0
0 0 0
0 0 0
0 0 0
0 0 0
0 0 0
0 0 0
0 0 0
0 0 0
0 0 0
0 0 0
0 0 0
0 0 0
0 0 0
0 0 0
0 0 0
0 0 0
0 0 0
0.00626936 -0.0641372 -0.110395
-0.110016 0.0594204 0.0900192
0 0 0
-0.00424374 -0.101567 0.151805
0.0325047 0.0273082 0.0513607
-0.00286583 0.00393647 -0.00630844
0.149076 0.0982976 0.0268854
0.0121737 -0.199509 0.0219336
0.00519678 0.279966 -0.0152746
0.132402 0.0422633 0.0482877
0 0 0
-0.0328512 -0.0158782 -0.043075
-0.0178571 0.0543784 -0.0100414
0 0 0
0.0351663 -0.0326537 -0.0213797
0.155335 -0.0184339 -0.161839
-0.0674064 0.0597525 0.0556109
0.00930861 0.200732 -0.149374
0.00215724 -0.0291831 -0.000141836
0.15211 0.0102591 0.15698
0.0819663 0.104917 0.149794
-0.00247754 -0.0368666 0.0727686
-0.161684 -0.0402474 -0.0564008
0.00363368 -0.0882645 0.127576
-0.0827319 0.158004 -0.174982
0.015085 -0.0477134 -0.0725064
0 0 0
0.0816075 -0.114243 0.0335334
-0.198105 0.0772813 0.0656269
-0.002519 -0.0288117 0.0867532
0.0594943 0.107366 0.0685566
-0.0667369 -0.0187208 -0.0310796
-0.117051 -0.0285927 0.141822
-0.0543578 0.00798725 0.0636676
0 0 0
0.00551654 -0.0135273 -0.021807
-0.0675806 0.0302067 0.0811741
0 0 0
-0.0544068 0.00410019 -0.0125228
0.0293067 -0.156092 -0.319505
0.131631 0.0963923 0.314635
0.0241747 0.0120086 -0.0644383
0 0 0
0.0684682 -0.156036 -0.0790695
-0.0370591 -0.00448103 -0.040715
0 0 0
-0.0506659 -0.05635 0.00309175
-0.0902341 -0.0406304 0.0431342
0.0991581 0.0367993 0.0176681
-0.0181737 0.0231243 0.000137964
0 0 0
-0.202626 0.0125422 0.0260905
-0.045314 0.0260591 0.0730566
0 0 0
0.056797 -0.0370207 -0.0183593
-0.0534943 0.11457 -0.031095
-0.00159975 -0.233848 0.0905355
0.0176504 0.00079695 0.0103707
0 0 0
0.0150776 -0.047012 -0.00335518
0.0735411 0.0354216 -0.139447
0 0 0
-0.0722334 -0.0796096 0.0359704
0 0 0
0.0420062 0.256833 -0.0759657
0 0 0
0.00275664 -0.0555951 -0.0199134
-0.110626 0.0255674 -0.0323498
0.300223 0.0215008 0.306934
0.000482476 0.127462 0.064451
-0.246097 -0.204522 -0.438034
0.0235413 0.00118206 -0.525903
0 0 0
0.10566 0.290189 -0.29876
0.368415 0.0572454 0.119031
-0.0143185 0.0992578 0.0282112
0.0913851 0.0814133 0.0144093
0.0452465 0.105036 0.0989367
0.494318 0.00420393 -0.074581
0.0855686 -0.15658 0.0354513
0.0686121 0.0945104 -0.392983
0.435599 -0.408373 -0.278704
0.00140882 -0.0399464 -0.00658625
0.0544941 -0.13192 -0.237546
0.27635 0.137143 -0.318055
0.245908 0.398676 0.0251054
0.115955 -0.147092 -0.157332
0.12788 0.148135 0.0525418
0 0 0
-0.187868 -0.0176245 0.178884
0 0 0
0.240354 -0.0254652 -0.113338
-0.094079 0.0603678 -0.0653644
-0.00172167 -0.0700183 0.0709482
0.106408 0.168989 -0.275898
0.263847 0.116074 -0.329032
0.0795339 -0.0325992 -0.394934
-0.00336759 0.146589 -0.0584712
-0.138341 -0.153538 -0.0574002
-0.0964899 -0.261491 0.390833
0.116997 -0.0222934 -0.0807285
-0.2756 0.150824 0.0558158
-0.0941365 -0.0699019 -0.0487945
0.0571517 0.182904 0.182947
0.088469 -0.187948 0.0573787
0.211587 0.451432 0.00193525
0 0 0
0.0321547 0.194787 -0.0223671
0.116001 0.109513 -0.267526
-0.0194808 -0.357561 0.276048
-0.155144 0.0174783 -0.0513714
-0.154913 -0.0393508 -0.0115836
-0.102914 0.094483 -0.064584
0.0781849 -0.0148365 0.0627687
0.0779128 -0.144527 -0.0479622
0 0 0
0.456037 0.251757 -0.194786
0.117449 0.0313402 -0.0838923
0 0 0
0 0 0
0 0 0
0 0 0
0.123302 -0.551483 0.167359
-0.0201513 -0.0487002 0.0244644
0.0871574 0.0376125 -0.433057
0 0 0
-0.0147166 -0.178491 0.295856
0.0128245 -0.085262 0.106813
0 0 0
-0.225739 0.160924 -0.0437276
0 0 0
-0.170428 -0.156908 -0.157444
0.0778342 -0.17597 0.160516
-0.33832 0.191668 0.172655
0 0 0
-0.451679 -0.156985 0.00964273
-0.000120068 -0.0658265 0.0114918
-0.0431097 0.0367949 -0.126033
0 0 0
0.211337 0.47456 0.0722145
-0.287223 0.118016 -0.306044
0.146537 0.0122512 0.278577
-0.0571623 0.00405348 0.00217915
-0.0578766 -0.182255 0.006849
0 0 0
0.0116846 -0.137806 0.0135344
0 0 0
-0.0483599 -0.0801921 0.0604599
0 0 0
0.0733346 0.264617 0.240543
-0.0629899 -0.0979378 0.00125475
-0.314433 0.474327 0.0719593
-0.0444525 0.021133 0.104133
-0.201979 -0.132361 0.0794681
-0.2056 -0.12971 0.119658
-0.204889 -0.178374 0.262231
-0.230465 -0.0224829 -0.193855
0 0 0
-0.0388253 -0.190813 0.189806
-0.317691 0.305374 0.205751
0 0 0
0.0728525 -0.0361199 0.191374
0 0 0
-0.0112789 -0.189549 -0.0479981
-0.0552599 -0.248796 0.117833
0.0378742 0.265929 -0.0672498
0.0578656 -0.0224674 -0.205146
-0.0129574 0.0492349 -0.167117
-0.335 0.210043 -0.17008
0.0115671 0.121253 -0.104758
0.0761272 -0.143135 -0.172814
0 0 0
-0.183276 0.360824 -0.0931752
0 0 0
0.00639828 0.0187414 -0.0989039
0 0 0
0 0 0
0.221514 0.177379 -0.00171778
0 0 0
0.149155 0.462578 -0.0804443
-0.00111828 0.0304909 0.0551326
0.0181621 0.339143 -0.0193719
0 0 0
0.12693 0.0659319 0.110883
-0.248805 0.250609 0.225894
0.187389 0.0444906 0.261957
0.180782 0.00900785 -0.0692929
0 0 0
-0.0247257 -0.0831487 -0.000571012
-0.019492 0.227059 -0.204312
0 0 0