<?xml version="1.0"?>
<VTKFile type="RectilinearGrid">
<RectilinearGrid WholeExtent="0 32 0 32 0 32" Origin="0 0 0" Spacing="1 1 1">
<Piece Extent="0 32 0 32 0 32">
<PointData>
</PointData>
<Coordinates>
<DataArray type="Float32" format="ascii">
0 0.524874 1.04975 1.57462 2.0995 2.62437 3.14924 3.67412 4.19899 4.72386 5.24874 5.77361 6.29849 6.82336 7.34823 7.87311 8.39798 8.92285 9.44773 9.9726 10.4975 11.0224 11.5472 12.0721 12.597 13.1218 13.6467 14.1716 14.6965 15.2213 15.7462 16.2711 16.796 
</DataArray>
<DataArray type="Float32" format="ascii">
-5.03879 -3.62163 -2.20447 -0.787311 0.629849 2.04701 3.46417 4.88133 6.29849 7.71565 9.1328 10.55 11.9671 13.3843 14.8014 16.2186 17.6358 19.0529 20.4701 21.8872 23.3044 24.7216 26.1387 27.5559 28.973 30.3902 31.8074 33.2245 34.6417 36.0588 37.476 38.8931 40.3103 
</DataArray>
<DataArray type="Float32" format="ascii">
0 0.524874 1.04975 1.57462 2.0995 2.62437 3.14924 3.67412 4.19899 4.72386 5.24874 5.77361 6.29849 6.82336 7.34823 7.87311 8.39798 8.92285 9.44773 9.9726 10.4975 11.0224 11.5472 12.0721 12.597 13.1218 13.6467 14.1716 14.6965 15.2213 15.7462 16.2711 16.796 
</DataArray>
</Coordinates>
<CellData>
<DataArray type="Float32" Name="Vector" NumberOfComponents="3" format="ascii">
0 0 0
0 0 0
0 0 0
0 0 0
0 0 0
0 0 0
0 0 0
0 0 0
0 0 0
0 0 0
0 0 0
0 0 0
0 0 0
0 0 0
0 0 0
0 0 0
0 0 0
0 0 0
0 0 0
0 0 0
0 0 0
0 0 0
0 0 0
0 0 0
0 0 0
0 0 0
0 0 0
0 0 0
0 0 0
0 0 0
0 0 0
0 0 0
0 0 0
0 0 0
0 0 0
0 0 0
0 0 0
0 0 0
0 0 0
0 0 0
0 0 0
0 0 0
0 0 0
0 0 0
0 0 0
0 0 0
0 0 0
0 0 0
0 0 0
0 0 0
0 0 0
0 0 0
0 0 0
0 0 0
0 0 0
0 0 0
0 0 0
0 0 0
0 0 0
0 0 0
0 0 0
0 0 0
0 0 0
0 0 0
-0.0778547 -0.085127 0.00749559
-0.234405 -0.0270255 -0.094735
0 0 0
-0.144868 0.00463055 -0.00135582
-0.0348621 -0.0831279 -0.0586196
-0.0755164 -0.014057 0.0071584
0.269626 -0.0417884 -0.0160641
-0.0192278 -0.0655209 -0.0109216
0.0153603 0.061426 0.0397569
0.10082 0.00244551 -0.0738599
0.000452596 0.0257181 -0.00871431
0.102604 0.0252943 -0.038436
-0.046037 0.157409 -0.0619502
-0.0298772 -0.0954479 0.0197159
0.172612 0.0989717 0.15721
0.0127793 0.231476 -0.0500815
0.0318993 -0.0737554 0.0971725
0.0396471 -0.0698074 0.0299324
0 0 0
-0.00172757 -0.082986 0.113662
-0.0325848 -0.0998167 -0.000664242
0 0 0
0.262928 0.0649983 0.139248
0.110453 -0.0276147 0.11245
-0.00698319 0.0346142 -0.0646568
0.187041 -0.0779097 0.0753673
0.00224858 0.00442345 -0.0358553
-0.00628308 0.0633716 0.049441
0.0887496 0.0218868 0.0889345
0 0 0
-0.209062 0.0882432 0.00388553
-0.0682236 -0.0714478 -0.00260208
-0.0385004 -0.01256 0.0129707
0.180882 -0.0651529 0.0823279
0 0 0
-0.102253 0.190358 0.000655799
-0.0318584 -0.0153303 0.0610149
0 0 0
-0.14665 -0.161432 0.0595088
0.00351871 0.00416007 0.004743
-0.00655545 0.0305845 -0.0192421
-0.0629685 -0.2203 0.00148384
0 0 0
0 0 0
-0.00561414 0.0456138 -0.0334797
0 0 0
-0.0918947 0.0451097 -0.204587
0.21062 -0.237858 0.0693308
0.197542 -0.0285157 -0.143891
0.0798776 -0.0566623 -0.0974585
0 0 0
0.143644 0.241155 -0.0189887
-0.0648717 -0.00239008 -0.00201437
0 0 0
-0.203306 -0.035398 -0.0021426
-0.0471349 -0.0999726 -0.0151848
-0.0131078 -0.00914858 0.0172537
-0.0224314 -0.336721 0.0160448
0 0 0
0.0798589 -0.0218264 -0.0310952
-0.134095 0.448474 -0.0195872
0 0 0
0.0173923 0.0158988 0.00691653
-0.0554848 -0.0455335 -0.0777292
0.220102 -0.0223543 0.09097
0.434265 -0.277832 -0.567643
0 0 0
0.167475 -0.0732479 -0.45879
-0.346191 0.0360548 -0.0154867
-0.0171623 0.0113 0.0329071
0.0329511 -0.0140579 0.00114664
0.0740451 -0.0887128 0.113617
0 0 0
-0.0653366 -0.30582 0.158537
0.0026728 -0.064053 -0.0532798
0.316321 -0.015573 0.0712022
0 0 0
0 0 0
-0.115239 -0.0218394 -0.00273391
0.0502 -0.0425193 -0.0780143
0.0576636 -0.0538067 0.0230386
-0.178687 0.225833 -0.177891
0 0 0
0.149835 0.518214 0.0028646
0.0494473 -0.0165935 0.0932599
-0.17092 0.163246 0.0943386
0.0026151 0.277023 0.17525
0.0687534 -0.0985628 -0.107612
-0.03398 0.119308 0.110416
-0.215455 -0.246542 -0.369057
0.105187 0.164759 0.0126921
-0.0467652 -0.00427083 0.0251437
0.0301964 0.0533455 -0.172
0.0939868 0.189116 -0.136607
0.0106959 0.0180909 -0.0130164
0.00233546 0.273491 0.0100864
-0.291832 -0.214754 -0.247007
0 0 0
0.00464275 0.196714 -0.306871
-0.0176327 -0.0712848 -0.111177
-0.0563057 0.0425398 0.00233913
-0.247832 -0.178767 0.263377
-0.0802597 0.0159768 0.0668875
-0.0585604 -0.167738 0.118662
0 0 0
-0.0784485 0.0946064 -0.126827
0.107298 0.0552202 -0.082876
-0.104814 0.0358828 0.262971
0 0 0
0 0 0
0.25432 -0.121896 0.123054
-0.0698749 -0.285608 -0.118767
0 0 0
-0.239708 0.00726637 -0.0238476
-0.00525191 0.0207892 0.0261476
0 0 0
0 0 0
-0.0985909 0.514707 0.138411
0 0 0
-0.148031 -0.171225 -0.271755
-0.147578 0.18645 0.267831
-0.238389 -0.337235 0.305579
-0.528313 0.609647 -0.0459559
-0.189063 0.28757 0.65021
0 0 0
0 0 0
0 0 0
-0.425683 0.00334042 -0.109975
0.366592 0.286837 -0.390424
0.186821 0.0233724 -0.133232
0.191608 0.309583 -0.136114
-0.170928 -0.0489815 -0.0318079
0.298682 0.468888 0.0571966
-0.118806 -0.075411 -0.00452439
-0.387689 -0.559191 0.0387829
-0.0156265 -0.0256248 -0.188557
0.064637 -0.0022618 0.0965399
-0.194615 -0.079286 -0.0336654
-0.12502 0.133286 0.17753
0 0 0
-0.025369 0.0127258 -0.0001748
-0.308957 -0.0326686 0.154132
0.101951 0.00222008 -0.0373281
-0.0652459 -0.0559212 0.324093
-0.00326165 0.0677721 -0.2256
0.213221 -0.0237081 -0.102479
0.0524128 0.0191198 -0.000614676
0.255586 0.161677 -0.372509
0.309319 -0.0780003 -0.0696706
0.0411904 0.00318339 0.264098
0 0 0
0.00105365 0.492028 0.230501
0 0 0
-0.193449 0.106058 0.192987
-0.00113495 0.0666555 0.107633
-0.00648218 0.000588069 0.0386504
0.109171 -0.172579 -0.119641
0.00577897 -0.329685 0.35575
0.295962 -0.0435419 0.272323
0.084715 0.0141298 -0.000275822
0 0 0
-0.353641 0.337628 0.307064
-0.0737669 -0.144774 0.0262509
0 0 0
-0.216106 -0.0370248 0.0376083
0 0 0
-0.247735 -0.14455 0.0875934
-0.190262 -0.584846 -0.24008
0 0 0
0.400912 0.21655 0.364785
0.180501 -0.0690158 0.178423
0.0200745 -0.00489312 0.0267472
0.0968868 0.0604631 -0.0379361
-0.254689 -0.0638284 0.0339969
-0.236604 -0.154479 0.141582
-0.1081 -0.00031035 0.0633097
0 0 0
-0.0767582 -0.332942 -0.232959
0 0 0
0.0372962 -0.272486 -0.407658
-0.169389 -0.0722563 0.00655832
-0.223221 0.137341 0.0085853
-0.0518333 -0.00039598 0.0582404
0 0 0
0 0 0
0 0 0
0.1208 -0.0379014 0.0806141
0 0 0
-2.52623e-05 -0.00381918 -0.00162295
0.220017 -0.197204 -0.0834584
0 0 0
-0.298228 0.267887 0.12257
0.242745 -0.353097 0.0277157
0.0906425 0.00070481 0.200107
0.168111 -0.042374 -0.00790155
0.0286365 -0.050955 0.105677
-0.142603 0.086422 0.076831
0.155056 0.0972044 0.0300704
0.259958 0.0336 -0.267129
0.258827 0.265353 -0.0513027
0 0 0
-0.00167235 -0.079029 -0.0142363
0.033313 0.391812 0.0107636
0 0 0
-0.00423965 0.022868 -0.0109617
-0.0448236 0.0566076 -0.0452534
0 0 0
0 0 0
0.0686879 -0.0632781 0.00601132
-0.0422182 -0.145079 0.232086
-0.0585029 -0.0408977 0.130592
-0.307709 -0.0624815 -0.200045
-0.111493 -0.0630201 0.197175
-0.0171287 0.0498823 -0.0499255
-0.386 -0.0976029 -0.225183
-0.0730518 0.0496085 0.0078039
0 0 0
0.0742249 -0.072433 -0.078374
0.121901 0.127675 -0.158508
0.10682 -0.344578 -0.170285
-0.0529715 0.00658056 -0.0938646
0.12644 -0.0358503 0.0679776
0.051138 0.195417 -0.204588
0.000757689 -0.00591397 -0.0117607
0 0 0
-0.256362 -0.0444161 0.209485
-0.0988681 0.0193295 0.0228866
-0.0205498 -0.0549754 0.291548
0 0 0
-0.046306 0.155552 0.518695
0 0 0
0 0 0
0 0 0
0.000783319 0.30682 0.134248
0.118107 0.206554 0.153401
0.0537794 -0.0763802 -0.0893483
0 0 0
0.111354 -0.117091 0.2905
0 0 0
0 0 0
0.0108549 0.0493283 -0.00763224
0.0346629 -0.168205 0.368336
-0.000498703 -0.0389054 -0.18308
-0.284752 -0.106226 0.0281568
0 0 0
-0.183853 -0.117856 -0.0601119
0 0 0
0 0 0
0 0 0
0.0397096 -0.092185 -0.0431557
-0.169472 -0.290801 0.241981
0.00198182 0.0567208 0.0782522
0 0 0
0 0 0
-0.0156525 -0.127257 -0.217595
0.0295339 -0.0975299 -0.0229667
0.0559631 -0.0581687 0.108015
-0.102574 0.0937312 -0.0050866
0 0 0
-0.00782867 -0.17601 -0.304334
0 0 0
-0.00807099 -0.0523328 -0.143756
0 0 0
0.12498 -0.0309904 0.126064
0.0367773 0.319183 -0.124343
0.00860475 0.0180541 -0.00366224
0 0 0
-0.295312 0.207353 -0.0368918
0 0 0
0.149738 -0.0243597 -0.347432
0.0129587 -0.0802474 -0.0726732
-0.0926907 0.203384 0.00157313
0.0667414 -0.0731597 0.120257
0.136334 0.0916236 -0.122769
-0.0656707 -0.0318906 -0.0677223
0.336363 0.00506438 0.0583945
0.129638 0.0741728 0.069512
-0.187561 0.0178196 0.0403667
-0.210632 -0.0324209 0.00889579
-0.291402 0.259812 -0.331011
-0.431698 0.220507 -0.153603
0.0253884 -0.0507056 -0.0212615
-0.344006 0.046793 -0.026922
-0.0385284 -0.018516 0.0127256
0 0 0
0 0 0
0.378196 -0.140958 -0.19002
0.000698524 0.0121447 -0.00976839
-0.0400425 0.408953 -0.0627694
0.40089 0.141238 -0.0570159
-0.018224 0.00647218 0.00841438
-0.520116 0.341368 0.0946223
-0.179219 0.00639291 -0.160375
0 0 0
0.00897783 0.0474623 -0.490663
-0.151752 -0.0402189 -0.00838306
0.00139347 -0.0543236 0.00559781
0.0997029 -0.114848 0.0505294
-0.0373821 0.0136739 0.0363227
-0.126186 0.0143409 0.0219414
-0.0650682 0.118652 -0.000220107
0.154749 0.371254 -0.190473
0.0195262 -0.0321333 0.00335366
0.171844 0.0119474 -0.200922
0.166474 -0.0194042 0.0242147
0 0 0
0.237454 0.159044 -0.0163672
0.0789424 -0.237571 0.0195824
0.115369 0.394446 -0.406664
0.359535 0.118006 -0.0718229
0 0 0
0 0 0
-0.0228109 -0.013716 -0.249068
0.00159979 0.0643954 0.0661208
-0.0261076 0.350941 0.127876
-0.00185347 0.148868 -0.0644595
0.0932892 -0.0302849 -0.0703303
0.0529872 0.102723 -0.0967127
0.185534 -0.00219659 0.098386
-0.0606262 0.0844733 0.0453766
0.0286957 -0.0241618 -0.00103623
-0.0563567 0.169066 0.087328
0 0 0
0.128201 0.31212 0.18917
0.150012 0.26001 -0.0878498
0.0545277 0.0265983 0.152885
-0.0986708 -0.228068 -0.140057
0.0414868 -0.291106 -0.0348852
0.230098 0.0165292 0.137619
0.39447 0.0134446 -0.138689
0 0 0
0.118322 0.196617 0.0192654
0 0 0
0 0 0
0 0 0
0.0931539 -0.177871 -0.077956
0 0 0
0.150882 -0.252891 -0.0483838
0.0731399 0.0782679 -0.00248171
-0.116229 0.0563541 -0.0896386
0 0 0
-0.0730145 0.117241 0.0625856
0.0427843 0.18231 0.480331
0 0 0
-0.0549072 -0.0356631 0.0827275
0 0 0
0.189793 0.203032 -0.0517445
0.0971864 0.283641 0.098905
0.00252514 -0.0264331 -0.0168266
-0.0507034 0.00780755 0.328371
0 0 0
0.06723 -0.195551 -0.13509
0 0 0
-0.00901533 -0.0197053 -0.0138256
0 0 0
0.0437685 0.0224845 -0.02203
0.23577 0.136315 -0.181781
0.16215 0.0518443 -0.119433
0.0296762 0.0217219 0.120792
0.00341817 0.0631453 0.0626673
0.0969613 -0.08326 -0.216284
0.0577257 0.230024 0.00303105
0 0 0
0.0257141 0.356084 0.521652
0 0 0
-0.155054 -0.0899373 -0.384378
-0.0249922 0.0109642 -0.0580127
0.0334927 -0.28295 -0.00479213
0.188005 0.0582623 0.0250755
0.00553449 -0.203713 -0.0323371
0.0288928 0.39566 0.193017
0 0 0
0.214033 -0.0227491 -0.076606
0 0 0
0.324786 -0.0298283 -0.362254
0.0529683 -0.0740038 -0.0409053
-0.151984 -0.0532102 0.0675352
-0.0404944 0.00127934 -0.010223
0.028555 0.264846 0.111426
-0.168441 0.108354 -0.0732448
-0.00189882 -0.005677 -0.00303621
-0.222824 0.161581 0.0630996
0.134978 0.0422372 -0.0308204
-0.139336 -0.312469 0.109192
-0.224083 0.130368 0.174558
0 0 0
-0.0320902 0.161743 0.0915441
0 0 0
0.018565 0.0225014 -0.031845
-0.204089 -0.151388 -0.294407
0 0 0
-0.01399 -0.0736128 0.000185021
-0.033091 0.0222574 0.0225107
0.109437 0.162658 0.337252
0.0206021 0.0294505 -0.0132436
0.0875433 0.0705897 0.191109
0.00503244 0.0149369 -0.0804171
-0.0489969 0.0382656 0.476166
0 0 0
-0.0984359 0.0278597 0.0776863
0 0 0
0 0 0
-0.0788909 -0.300905 -0.376945
0 0 0
0.0518406 -0.0155788 -0.123315
-0.0307588 0.0247555 -0.0832594
-0.0968787 -0.129146 -0.0763202
-0.0116494 -0.00780909 0.0114401
0 0 0
0 0 0
-0.0139263 0.111389 -0.00263443
0.0463119 0.00171515 0.00295056
0.346518 -0.0918986 -0.260911
0.0133832 0.0166321 -0.00991375
-0.247396 -0.198625 0.366162
0 0 0
0.0157393 0.018748 0.063759
0.188502 -0.0984815 0.0731085
-0.0109266 0.0150809 -0.0502866
-0.300031 -0.00277455 0.102006
-0.114349 0.0563178 0.129978
0 0 0
0.0504229 -0.00116757 -0.243506
-0.0118583 -0.113591 0.111686
-0.241867 0.0496352 0.0265638
0.0551274 0.0930863 0.160995
0 0 0
0.0287571 0.135957 -0.389922
0.0430492 0.0504942 -0.143595
0.321293 0.22394 0.294838
0 0 0
-0.0475003 -0.21362 0.176246
0.0105073 0.28007 0.294627
-0.0147403 0.0816695 0.0819821
0 0 0
-0.0791788 0.616866 -0.206818
0 0 0
0.226123 -0.388758 0.0754574
-0.0564086 0.0583751 -0.127974
-0.192439 -0.0305304 0.0264348
-0.0766963 -0.0999297 -0.00269361
0.0353235 0.240765 0.146757
-0.00378339 0.0242907 0.0102909
0 0 0
0.0839993 -0.0266369 0.132492
0.00342244 0.0439552 -0.0732553
0 0 0
0.275221 0.278989 -0.0857612
0.0527871 0.208486 0.14567
0.038158 -0.0246754 -0.061318
-0.000669977 -0.0285341 0.0875358
-0.224809 0.010071 0.122156
-0.195344 0.271056 -0.137137
0.0491728 -0.0335004 -0.103857
0.00581611 -0.0260045 9.21801e-06
0.0080275 0.01608 -0.000524175
-0.00147697 -0.104048 0.0842075
-0.244318 -0.130938 0.0683229
0 0 0
0 0 0
0 0 0
0 0 0
0.220797 0.223605 0.102042
0 0 0
-0.357276 -0.0143493 0.0990859
-0.224289 0.122759 -0.0516246
-0.0797037 0.451301 0.442988
-0.0176033 0.0316738 0.0368046
0 0 0
-0.0169439 -0.0950826 -0.00139269
-0.00254679 0.0710174 0.0346556
-0.006408 -0.0467589 -0.00155034
0.040479 -0.198112 0.372053
0.109824 0.00806186 -0.0345807
0.238413 0.0439814 -0.17451
-0.0669473 -0.378608 0.14751
0 0 0
0.0589687 -0.339609 -0.0986394
-0.183898 0.0107354 -0.157363
0.0874483 0.135984 -0.267252
-0.0838668 -0.151977 0.0145174
-0.107529 -0.0947563 -0.0304875
0 0 0
0 0 0
-0.236372 -0.367341 -0.320509
0 0 0
-0.329698 -0.394198 0.0368613
0 0 0
-0.264838 0.10791 -0.00217727
-0.0370077 -0.387518 -0.214959
0.097876 -0.109154 -0.0840494
0 0 0
-0.00237097 -0.266821 -0.437187
-0.177292 -0.32912 0.209125
0 0 0
-0.0616845 0.0480601 0.176733
0 0 0
-0.0758719 0.114841 -0.125825
-0.000954119 -0.135885 -0.0598152
-0.0771905 0.0234478 -0.207031
0 0 0
0 0 0
-0.0997949 -0.461666 -0.0125988
0.146214 -0.0564016 0.00949161
0.281752 -0.0228097 0.0398952
0 0 0
0.0295747 -0.22293 -0.264083
0.223867 -0.0391409 0.0832456
0.0136903 -0.287882 0.446324
0.114758 -0.237422 0.230448
0.196027 0.0711147 0.18716
-0.0728079 0.214613 -0.225195
0.00652318 0.230122 -0.125865
0 0 0
-0.00378401 -0.0101159 -0.0999464
0 0 0
-0.0226656 -0.0476235 0.0187211
-0.184699 -0.589002 -0.220083
0 0 0
0.0663523 -0.0988838 -0.256221
0 0 0
-0.162921 -0.099459 0.189119
-0.000459432 -0.226507 -0.0320087
-0.374651 0.00885556 -0.0258819
-0.140096 0.054391 -0.123304
-0.0847961 -0.251113 0.183583
0.226953 0.0783763 0.141873
-0.0143367 -0.229206 0.115085
0 0 0
-0.318028 0.364474 -0.320876
0 0 0
-0.103619 -0.0661363 0.194106
0 0 0
-0.155871 -0.165098 0.0868609
0.00642799 0.0196151 0.0364113
-0.0540849 0.0569276 0.0361395
0.0876863 -0.0146773 -0.072122
0.363156 0.626749 0.228372
-0.0127553 0.00099664 -0.143218
-0.166066 -0.00978933 0.0472614
0.144384 0.200331 -0.26532
-0.17765 0.00963199 -0.00360472
-0.0122801 0.0675572 -0.105336
-0.0720896 0.051287 -0.0203324
-0.0527545 0.00966066 -0.142473
0 0 0
-0.243626 0.165238 -0.0671507
0.233214 -0.0199453 0.288911
0 0 0
-0.217122 -0.291389 -0.0639633
-0.22478 -0.137768 -0.136715
-0.359544 0.124306 0.142517
-0.0560168 0.0139338 0.0563617
-0.0649966 0.0428429 0.259961
0 0 0
0.0179052 0.142286 -0.00361006
0.139036 -0.000199983 -0.121478
-0.16306 0.0913389 0.0472565
0.231993 0.124287 0.139786
0.0336943 -0.018358 -0.049366
0.014677 0.114047 0.229797
0 0 0
0.0199606 -0.000453429 0.0225153
-0.0903281 0.0412538 0.114523
0.0747945 0.0272883 -0.264035
0.281933 0.0285568 -0.0651344
0.145177 0.0246563 0.0668456
-0.188018 -0.173564 0.295957
0 0 0
-0.249766 -0.10057 0.0301435
0.0460371 0.00186497 -0.0116131
0.312731 -0.164599 0.0108585
0.0895514 0.0719496 -0.0357131
0.101589 0.16721 0.0113981
0 0 0
0 0 0
0.200355 0.0448225 -0.109066
0.0241425 0.083462 -0.0289144
0.361485 -0.388711 -0.28569
0.00585876 -0.0321323 0.00792681
0.0120188 -0.0938078 -0.196984
-0.117298 0.145239 -0.0423262
0 0 0
-0.33444 0.0609398 -0.205262
-0.0375618 -0.0473079 -0.0851673
0 0 0
0.0103808 -0.390762 -0.00256949
0.00368611 0.0350967 -0.0369913
-0.0271455 -0.187816 -0.264708
0 0 0
0.171494 0.0383407 0.0340107
0 0 0
0 0 0
0.115391 0.167071 -0.078141
0.0149191 0.146355 -0.0441607
0.0506287 -0.0104486 0.00508828
-0.00217132 -0.257548 -0.0501091
0.0158934 -0.097705 0.133763
0 0 0
-0.0250844 -0.0254297 0.0102165
-0.00218235 -0.0282696 -0.053251
0.153057 0.0237075 -0.364226
0 0 0
-0.24268 -0.139706 0.00185017
0 0 0
0.223923 0.38883 -0.21584
-0.0210585 -0.436845 0.113678
-0.0673268 -0.132982 0.293312
0 0 0
0.189165 -0.055868 0.0743834
0 0 0
-0.156562 -0.00767181 -0.243152
0 0 0
0.0891928 0.0616183 0.104875
0.226318 0.149413 0.0868075
0.0796882 -0.0675012 -0.00790309
0 0 0
0.0884206 -0.0203762 0.00134835
-0.0967274 -0.0308114 -0.122733
0.000289491 -0.0911309 0.0205342
-0.0358927 -0.00632944 -0.0800697
-0.110208 -0.164552 -0.295294
0.0384447 -0.107653 0.012531
-0.0838209 0.0220422 -0.0846026
0.083483 0.293992 -0.0958038
0.0707891 0.225812 -0.304124
0.0597923 0.0495511 0.195259
0.0634051 0.00561437 -0.119802
0.0882747 -0.0930939 0.0398691
0.0322127 0.0179607 -0.0528142
-0.0995373 0.00409805 -0.474125
-0.0692108 -0.0336018 -0.260767
0.158167 -0.118665 -0.147469
0.425269 -0.0689657 0.102364
0 0 0
0 0 0
-0.0689632 -0.480761 0.244318
0.00107417 -0.0216988 0.0396198
0.385505 0.205054 -0.0847886
0.235595 -0.0676889 -0.0135691
-0.0394918 0.00396868 -0.0407966
0.14486 0.209454 0.0764093
-0.0516006 0.00936948 -0.0435719
-0.287756 0.00368203 0.224119
0 0 0
0.0232664 0.199087 0.260287
0 0 0
0.147408 -0.178484 -0.096916
0 0 0
0 0 0
0 0 0
0 0 0
-0.174031 -0.107157 -0.335967
0 0 0
0 0 0
0 0 0
0.0412041 0.094614 0.0469198
0.0963972 0.0411134 -0.0408024
0.218625 -0.0019868 0.194034
0 0 0
0.323057 0.0924982 -0.184245
0.0693724 -0.0539982 0.0854821
-0.205591 -0.100688 0.07237
-0.210587 -0.142419 0.114753
0.0211891 -0.0168414 -0.00762479
0.247756 -0.0252159 -0.222196
0.276631 -0.0802316 0.180185
0.233285 -0.114609 0.328193
0 0 0
-0.239417 -0.100277 0.16911
-0.196174 0.116657 -0.0340146
0.157611 0.311629 0.0544224
-0.00015538 -0.00417198 0.00309559
0 0 0
-0.117103 0.0373579 -0.10384
-0.0996131 -0.0188182 -0.043233
-0.081716 0.18108 -0.00129922
0 0 0
-0.123878 -0.216657 -0.26995
0 0 0
0.0197496 3.54927e-05 0.103045
0.0090222 -0.012792 0.0121291
0.333238 -0.250818 0.0487357
0 0 0
0 0 0
-0.0913141 0.107996 0.0866016
-0.163799 0.0718754 0.018068
0 0 0
0 0 0
0.124549 -0.211887 0.362477
0.24283 0.25522 0.0400264
0 0 0
-0.00178073 -0.0257125 -0.0606574
0 0 0
-0.104378 -0.0555061 0.135768
0 0 0
0.00197891 -0.105295 -0.0392012
0 0 0
-0.231652 0.118062 -0.167764
0 0 0
0.126579 -0.000745495 0.0958509
0 0 0
-0.0158121 0.0502581 0.0487123
0.147425 -0.301093 0.384417
-0.0206778 0.0139764 -0.00537079
-0.00694789 -0.226236 -0.36392
-0.0133735 -0.0003668 -0.0204022
0.0135658 -0.0441651 0.0114657
0 0 0
-0.0331444 -0.0280776 0.0996246
0 0 0
0.0588422 -0.210131 -0.199583
-0.144457 -0.300244 -0.182289
0 0 0
0 0 0
-0.0308991 -0.0604894 -0.0350738
0 0 0
-0.226835 0.0675135 -0.160009
0.0503285 0.0132334 0.147646
-0.0595831 -0.325861 0.000868317
0.329609 0.0296254 -0.426031
-0.0474969 -0.0509113 -0.0790751
-0.156338 0.10752 -0.111447
0 0 0
0 0 0
-0.398315 0.288342 0.0503889
0.00419718 -0.0263999 -0.158232
-0.212979 0.11784 0.474548
-0.143042 0.0147644 0.0733699
-0.0760761 -0.134877 -0.216348
0 0 0
0.0941904 0.203793 -0.455459
0 0 0
0 0 0
-0.183981 0.154668 0.145423
0 0 0
-0.00155109 0.0691779 -0.0864561
0.363763 -0.496007 0.0917717
0.0469174 -0.195075 -0.0725404
0.448926 0.0926591 0.197337
0.0368095 0.0720463 0.0214918
0.337556 -0.3566 -0.192586
0.16127 -0.36343 0.224686
0.0697599 -0.0642547 -0.133577
0.0309825 -0.0227579 -0.00163995
0 0 0
-0.0647313 -0.0112794 0.0441217
-0.157526 0.149936 0.0419311
-0.358525 0.076319 -0.0829298
0 0 0
0 0 0
-0.134847 -0.0503492 0.337139
0 0 0
-0.341935 0.665181 0.023472
0 0 0
0.0601999 -0.50477 -0.0785767
0 0 0
0.012927 -0.222977 -0.00445176
-0.0643093 0.205054 -0.241639
-0.167139 0.00616139 0.123145
-0.0943987 -0.173274 0.110627
0.00929107 -0.019557 0.00118154
0.181625 0.611176 0.364946
0 0 0
0.0537455 0.116695 0.282033
0 0 0
0.10598 0.0721919 0.0577632
0 0 0
0.00965187 0.101913 -0.324854
0 0 0
-0.196638 -0.134119 -0.132483
-0.276389 0.00163512 0.264305
-0.116257 -0.0564605 0.0280718
0.000874835 -0.0742434 0.259604
0.0356313 -0.00553554 -0.00240494
0 0 0
0.0464248 -0.0285155 0.155199
0 0 0
-0.29379 -0.293044 0.248518
0 0 0
-0.124632 0.142845 -0.186654
-0.0683003 0.159152 -0.422815
-0.0571383 0.0879589 0.125722
-0.52622 0.0456474 -0.131103
-0.187549 -0.0340224 0.0768564
-0.000610052 0.0226311 -0.0264504
-0.14534 0.111875 -0.0651057
0.102213 -0.070352 0.114807
0 0 0
-0.2791 0.400739 -0.181881
-0.0462294 -0.0738277 0.097486
0 0 0
-0.0161761 -0.0187555 0.0247059
-0.277992 -0.213027 0.0979109
-0.0180239 -0.152692 0.0657982
0.0172308 -0.0131763 -0.145818
0.458074 0.283573 -0.200775
0 0 0
-0.0126308 0.101159 0.32604
0.0594351 0.395522 0.0388475
0 0 0
-0.244343 -0.208063 0.228524
0.0645339 -0.0792596 0.00750406
-0.115917 0.0197014 0.13966
-0.153355 -0.125855 0.0860542
-0.00208082 -0.0316844 0.114756
-0.491547 -0.268442 -0.0799805
-0.216 -0.0678417 0.0163829
0.00975439 -0.283776 0.528413
0.153755 0.0648774 -0.112408
0.336421 -0.103128 0.032215
-0.00145916 -0.0414712 -0.0294957
0 0 0
0.0641176 0.0587744 0.48236
0 0 0
-0.0790239 0.0206498 -0.0300138
-0.00196045 0.00102189 0.0129588
0 0 0
0 0 0
-0.273903 0.0847498 0.058122
-0.0297279 -0.0693392 -0.0203569
-0.431695 0.178928 0.286212
-0.177636 -0.184533 -0.212202
0 0 0
0 0 0
-0.397328 0.0766955 -0.0147254
0 0 0
-0.122824 0.136586 0.115792
-0.204588 0.225979 -0.0308598
0.0904315 -0.0135648 0.0524561
0 0 0
-0.18893 0.400569 0.0995829
0 0 0
0.120464 -0.00583411 0.196822
0.00847004 -0.0281301 -0.00390942
0 0 0
-0.0316762 -0.306074 0.0792595
0.396782 -0.328635 -0.0448914
0.172284 0.187463 0.0700529
-0.00250825 -0.0147387 -0.00967763
-0.0751664 -0.0682965 -0.145569
-0.196446 -0.14475 -0.20152
-0.217642 -0.0376901 -0.075872
0.0142582 -0.110376 0.133608
0 0 0
0.075897 0.155173 -5.36745e-05
0 0 0
-0.168096 -0.0562394 0.116906
0 0 0
0.00134916 0.00610551 -0.0378952
-0.15303 -0.0905151 -0.127001
0.00265776 -0.0257951 0.0877795
-0.0480572 0.211283 -0.202819
-0.0259461 0.00733781 0.0358199
-0.0547122 0.00120797 -0.0357615
-0.0114767 -0.0776182 -0.0238191
0 0 0
0 0 0
0 0 0
0.0235663 -0.173057 0.0999925
0.411403 0.510468 -0.140441
0.0460699 0.0462965 -0.143547
0.30444 0.118767 -0.0244163
0 0 0
-0.0135981 0.00607835 0.00425931
-0.520287 -0.0995075 0.305355
-0.056735 -0.229774 0.076015
-0.0727005 -0.255125 -0.00405703
0.121682 0.0589987 -0.0545705
-0.38198 -0.246017 0.0816211
-0.0978939 -0.00936785 -0.103468
0 0 0
0.0043431 -0.0094858 0.0391982
0.0546295 0.0389078 -0.00144949
0 0 0
0.041363 0.0399535 0.0187948
0 0 0
0.0740234 -0.112945 0.182866
0 0 0
0.227004 0.00126327 0.0975566
0 0 0
0 0 0
0.0838064 0.0972125 -0.137387
0.313344 -0.0655784 0.342981
0 0 0
0.141529 0.0957208 -0.00145106
-0.163037 0.305251 -0.0765624
0 0 0
-0.0292607 -0.242184 -0.174119
-0.0123249 -0.158987 0.163414
0.0427308 -0.0687041 0.0315509
0.0685354 0.135177 -0.0485764
-0.054017 0.128633 -0.0541848
0.00969252 0.000985443 -0.0287403
0.124626 0.289612 -0.0674785
0 0 0
-0.0635059 0.0100591 0.150287
0 0 0
0.00584384 0.0323018 0.127953
0 0 0
0.0677153 0.238932 -0.0807109
0.115666 0.313632 -0.297584
-0.129194 -0.0498679 0.186932
0.0533866 -0.258673 0.0825626
0.159002 -0.0798432 0.337728
0 0 0
-0.0205947 0.24131 0.358612
0 0 0
0 0 0
0.18792 -0.000707278 0.17931
0.10792 -0.0429444 -0.156297
0.380561 -0.321537 -0.253882
0 0 0
-0.0371756 0.0568926 -0.284082
0.0376039 0.0290424 0.383657
-0.0117512 -0.190289 -0.0980428
0 0 0
-0.00981029 -0.00660924 0.0125095
0.0436853 -0.0212153 -0.000359761
-0.142095 -0.130226 0.0388794
-0.151889 -0.157322 -0.0294775
0 0 0
0.0310457 -0.0445156 -0.071327
0.116594 0.134426 0.0731072
0.12198 -0.0344396 -0.0244022
-0.149658 0.201314 -0.156379
-0.102358 8.51876e-05 -0.200628
-0.0961428 0.137349 -0.000929029
0.00150463 0.0362701 -0.0257513
-0.0662834 -0.00934401 -0.0319318
-0.147747 -0.0555262 0.0190961
-0.452255 -0.349931 -0.279363
-0.146673 -0.0953801 0.0816044
-0.0177483 -0.00681623 0.0191214
0.0358197 0.123127 0.0193033
-0.000989659 0.0704116 -0.0422785
-0.160159 -0.0510984 -0.181136
0 0 0
-0.0526283 0.255197 -0.256525
-0.306503 0.0165539 0.0466644
0 0 0
0.077905 0.113445 0.0969927
0.0659357 -0.0974986 0.107249
0 0 0
0.0753672 0.0493003 -0.179326
0.104497 0.0850404 -0.033117
-0.17443 -0.0269942 -0.0694244
-0.122836 -0.00799391 0.116581
-0.542639 0.200376 0.188694
-0.357845 -0.0707452 -0.211376
0.0792614 0.0371907 0.0257532
0.133979 -0.137133 -0.286109
0.0453112 -0.27555 -0.264825
0 0 0
-0.089405 -0.104374 0.276187
0.519979 0.0149032 -0.474381
0.412995 -0.132391 -0.00203255
0.326471 -0.157229 -0.128424
0.00579229 0.110826 0.0381727
0.0471484 0.018138 0.0247666
0 0 0
0 0 0
0 0 0
0 0 0
0 0 0
0 0 0
0 0 0
0 0 0
0 0 0
0 0 0
0 0 0
0 0 0
0 0 0
0 0 0
0 0 0
0 0 0
0 0 0
0 0 0
0 0 0
0 0 0
0 0 0
0 0 0
0 0 0
0 0 0
0 0 0
0 0 0
0 0 0
0 0 0
0 0 0
0 0 0
0 0 0
0 0 0
0 0 0
0 0 0
0 0 0
0 0 0
0 0 0
0 0 0
0 0 0
0 0 0
0 0 0
0 0 0
0 0 0
0 0 0
0 0 0
0 0 0
0 0 0
0 0 0
0 0 0
0 0 0
0 0 0
0 0 0
0 0 0
0 0 0
0 0 0
0 0 0
0 0 0
0 0 0
0 0 0
0 0 0
0 0 0
0 0 0
0 0 0
0 0 0
0.0513932 0.202674 -0.10193
-0.182115 -0.0862409 -0.0989953
0 0 0
-0.00724111 -0.00948078 0.140209
-0.0241976 0.102907 -0.0231716
0.000625672 0.0950604 0.0595501
-0.142996 0.0815853 -0.121245
0.00703543 -0.140836 -0.0181947
-0.0294345 0.169328 0.0252278
-0.0716655 -0.0312099 -0.18456
0 0 0
-0.0103948 -0.0407546 -0.0500877
-0.00914659 -0.127339 -0.0556135
0 0 0
0.118943 0.080416 -0.119473
-0.0164757 0.0372287 0.0106704
0.00270822 -0.0822587 -0.0427658
0.00946179 -0.0986041 -0.0464566
0.00148057 -0.0189167 -0.0454116
0.0490051 -0.0191295 0.00356445
0.0810047 0.0814823 -0.0209995
0 0 0
-0.0931803 -0.0595915 0.00141807
-0.0939771 0.100552 0.138837
0.00285765 -0.0486001 -0.122826
0.0231428 0.0727362 -0.0363634
0 0 0
-0.0983045 0.0705318 0.106884
0.0794296 -0.0807389 0.124522
0 0 0
0.0426315 -0.0929308 -0.0321227
-0.0478491 -0.248119 -0.118472
-0.133316 0.0893161 0.0931233
-0.0371164 0.00818351 0.0373853
0 0 0
-0.00878159 -0.00113198 -0.0309027
-0.0185893 -0.0239277 -0.00153592
0 0 0
0.103076 0.0516192 0.011044
0.0437391 0.0584825 0.108583
0.0374297 -0.0940922 -0.110268
0.105531 0.00214584 0.139385
0 0 0
0.0379967 0.0589508 -0.0420805
0.0648323 -0.00909835 0.109949
0 0 0
0.0019281 -0.0310572 -0.0756045
0 0 0
0 0 0
0.0338197 0.0388232 0.0293394
0 0 0
-0.0119322 -0.00262011 -0.022386
-0.0170897 0.0545826 -0.0073339
0 0 0
0.0832264 -0.0139147 -0.00380108
0.000958136 -0.215814 0.116706
0.0199571 0.140398 -0.156025
-0.192791 0.0489187 0.00800015
0 0 0
-0.0123269 0.143825 0.00816031
-0.0361451 -0.0138892 -0.0123652
0 0 0
0.00415911 -0.0535579 0.156271
-0.0723826 -0.0787362 0.000905548
-0.217667 -0.287012 0.170669
0.121886 0.216522 -0.404425
-0.0753691 0.043009 -0.213284
-0.227567 0.0469827 -0.0803564
-0.175834 0.0866857 -0.261914
0.0665676 -0.0508951 0.0162013
-0.058941 0.00923357 0.11151
0.0094211 0.235164 0.182226
0.0430844 0.200302 0.286867
-0.0632375 0.135387 0.356315
-0.0216296 -0.153433 -0.0670011
0 0 0
0.0151079 -0.135157 -0.132063
0.125937 -0.216348 0.142793
-0.0012924 -0.315406 -0.16676
0.0602631 0.183814 0.263926
-0.142538 -0.0289879 -0.0137028
0.0402197 -0.0650221 -0.53034
0 0 0
0.49524 0.341985 0.0382426
-0.0882481 0.593721 -0.00389878
0 0 0
0.267322 -0.153122 -0.061474
0.0324031 0.106882 -0.264158
0.0306818 0.212153 0.491026
0.0367114 0.0485893 -0.0815255
-0.106293 0.0300703 0.0947071
0 0 0
-0.16611 -0.135638 -0.00234236
0 0 0
-0.0524204 -0.264197 0.0934456
0.0546763 0.137464 -0.506117
-0.17638 0.0196513 -0.480176
-0.00865741 0.0797178 -0.277467
-0.102898 -0.0968203 -0.112293
0.00314437 0.0266709 -0.0799818
0 0 0
-0.181655 -0.560099 0.418004
0 0 0
0.0920207 0.010739 0.10927
0.0200769 0.245327 0.0855908
0 0 0
-0.0483691 0.0273442 0.0164133
-0.0908474 0.130984 -0.182293
-0.0108348 -0.0304721 0.0785094
-0.328645 -0.142874 -0.253031
0 0 0
0 0 0
0.376359 -0.258317 0.229906
0 0 0
-0.115059 0.242171 -0.00150411
-0.000316975 0.00376916 0.0509635
-0.0801104 0.36678 0.0550184
0 0 0
0.0262298 -0.0120243 -0.0502349
0.109892 -0.0864531 0.128964
0.00241531 0.0226035 0.0123187
0 0 0
0 0 0
-0.298249 -0.0529648 0.244335
0 0 0
0.177653 0.152543 -0.0699561
0.0589027 -0.0167968 -0.00135399
0 0 0
0 0 0
0.0366789 -0.075542 -0.118661
0.07251 -0.0615208 -0.0316617
0 0 0
-0.0518131 0.14078 0.524339
0 0 0
0.0196208 -0.128992 0.0217755
-0.146186 -0.0994903 -0.111426
-0.0585375 0.0192544 0.121646
0.0887024 -0.000337059 -0.0390536
0 0 0
0 0 0
-0.229227 0.189958 0.0431672
-0.0600676 0.116106 0.0376473
0 0 0
0.291955 -0.503018 -0.0993447
-0.00481745 -0.0633194 0.170602
0.138664 -0.0711591 -0.259403
0.146924 0.297076 -0.29395
0.137446 0.125672 0.0884051
-0.0541681 -0.00369399 0.104807
0.0746095 0.474138 0.0296209
-0.126742 -0.0100114 -0.141736
0 0 0
-0.00768675 0.236893 -0.172806
0.0341658 0.251295 0.0582249
0.0228799 0.0106479 0.0171026
0.324285 0.37381 0.196534
-0.0296479 -0.0260596 0.0345146
0.00339039 -0.038687 -0.0476745
0.189856 0.0968674 0.350839
0.252926 -0.0113876 0.15704
0 0 0
-0.0036488 -0.0374183 -9.52279e-05
0 0 0
0.0485068 0.120816 0.104327
0 0 0
-0.0495232 0.042247 0.000544255
0 0 0
-0.0784005 0.389074 -0.226789
-0.0581294 0.0087027 0.0438237
0.0417529 0.0251136 0.0371347
0.0150051 0.00283346 0.0329061
0.172504 0.284856 0.282412
-0.0960379 -0.152147 0.249169
-0.0159289 -0.160016 0.152748
0 0 0
-0.129007 -0.420601 0.10074
-0.0205308 -0.0970635 0.0264445
-0.0238391 0.0270471 -0.0273675
0.107166 -0.0899366 -0.0884129
0 0 0
-0.346624 0.00719789 0.127288
-0.0927014 0.00308808 -0.0607721
0.092281 0.0677972 0.154162
-0.0311308 0.154186 -0.0245444
-0.389853 0.234533 0.109684
-0.0494648 0.126046 0.032794
-0.0817376 0.00126611 -0.0399758
0.318611 -0.0937881 0.105541
0 0 0
0.0321263 -0.0119748 0.00160505
0 0 0
-0.0149619 0.192585 0.116173
0 0 0
0.0460776 0.232831 0.5216
0 0 0
-0.0880435 -0.00863318 0.282805
0 0 0
0 0 0