<?xml version="1.0"?>
<VTKFile type="RectilinearGrid">
<RectilinearGrid WholeExtent="0 32 0 32 0 32" Origin="0 0 0" Spacing="1 1 1">
<Piece Extent="0 32 0 32 0 32">
<PointData>
</PointData>
<Coordinates>
<DataArray type="Float32" format="ascii">
0 0.524874 1.04975 1.57462 2.0995 2.62437 3.14924 3.67412 4.19899 4.72386 5.24874 5.77361 6.29849 6.82336 7.34823 7.87311 8.39798 8.92285 9.44773 9.9726 10.4975 11.0224 11.5472 12.0721 12.597 13.1218 13.6467 14.1716 14.6965 15.2213 15.7462 16.2711 16.796 
</DataArray>
<DataArray type="Float32" format="ascii">
-5.03879 -3.62163 -2.20447 -0.787311 0.629849 2.04701 3.46417 4.88133 6.29849 7.71565 9.1328 10.55 11.9671 13.3843 14.8014 16.2186 17.6358 19.0529 20.4701 21.8872 23.3044 24.7216 26.1387 27.5559 28.973 30.3902 31.8074 33.2245 34.6417 36.0588 37.476 38.8931 40.3103 
</DataArray>
<DataArray type="Float32" format="ascii">
0 0.524874 1.04975 1.57462 2.0995 2.62437 3.14924 3.67412 4.19899 4.72386 5.24874 5.77361 6.29849 6.82336 7.34823 7.87311 8.39798 8.92285 9.44773 9.9726 10.4975 11.0224 11.5472 12.0721 12.597 13.1218 13.6467 14.1716 14.6965 15.2213 15.7462 16.2711 16.796 
</DataArray>
</Coordinates>
<CellData>
<DataArray type="Float32" Name="Vector" NumberOfComponents="3" format="ascii">
0 0 0
0 0 0
0 0 0
0 0 0
0 0 0
0 0 0
0 0 0
0 0 0
0 0 0
0 0 0
0 0 0
0 0 0
0 0 0
0 0 0
0 0 0
0 0 0
0 0 0
0 0 0
0 0 0
0 0 0
0 0 0
0 0 0
0 0 0
0 0 0
0 0 0
0 0 0
0 0 0
0 0 0
0 0 0
0 0 0
0 0 0
0 0 0
0 0 0
0 0 0
0 0 0
0 0 0
0 0 0
0 0 0
0 0 0
0 0 0
0 0 0
0 0 0
0 0 0
0 0 0
0 0 0
0 0 0
0 0 0
0 0 0
0 0 0
0 0 0
0 0 0
0 0 0
0 0 0
0 0 0
0 0 0
0 0 0
0 0 0
0 0 0
0 0 0
0 0 0
0 0 0
0 0 0
0 0 0
0 0 0
0.0403017 -0.0112202 -0.0338807
-0.0284655 0.01878 -0.0226789
-0.0130189 -0.0305304 0.00118022
-0.0822026 -0.140883 0.0254726
0.0083541 0.140724 0.0679976
0 0 0
0.107271 -0.0998062 0.0014388
0.0929227 -0.169199 0.140021
0.0769411 0.158933 -0.124269
0.0939202 -0.17215 0.0940015
-0.00382563 0.0116405 -0.0147779
-0.0804286 -0.0798156 0.0379612
-0.0810489 0.0205233 0.111509
0 0 0
0.0446108 -0.219872 -0.0941566
-0.0729116 -0.0032731 -0.000153967
-0.0536516 0.128022 0.0218148
-0.304937 -0.0944972 -0.00353372
0 0 0
0.0829987 -0.133107 0.0296885
0.00352582 -0.0666693 0.00456762
0 0 0
0.0586058 -0.0859758 -0.0809862
0.027791 0.135444 -0.027644
0.0689276 -0.245333 -0.0617073
0.0415772 -0.0867484 -0.00699275
0 0 0
0.00611867 -0.151082 0.0835101
-0.121961 0.09269 -0.0022641
0 0 0
-0.271069 -0.0608865 -0.0369853
0.0326002 -0.194732 0.0047333
-0.1596 0.130329 0.00102598
0 0 0
0 0 0
-0.0159972 -0.1173 -0.0125514
0.0431328 0.0530562 -0.0718364
0 0 0
0.132823 -0.175005 0.00185574
0.000175816 -0.00774975 0.0168932
-0.0605446 -0.00209471 -0.0429582
0.123609 0.0694729 0.000151677
0 0 0
0.000128801 -0.03515 0.023746
0.0389432 0.109078 0.00842683
0 0 0
0.0134791 0.0745204 0.0926963
0.130806 0.16776 0.133743
0.130956 0.0318971 -0.127524
-0.00852974 -0.00646707 0.00588611
-0.00817591 -0.00847386 -0.0068637
-0.573694 -0.330071 -0.00456237
0.0526743 -0.0276864 -0.0417624
-0.00411741 -0.00821763 -0.00497851
0.0185755 -0.0547308 3.08307e-05
0.00335289 0.00116562 0.00133493
0.0187186 -0.0289875 0.0389798
-0.176823 0.0495571 -0.000908922
0.00598578 0.00274123 0.00262769
-0.0184478 -0.0227208 -0.0489299
0.031317 -0.156034 -0.0397271
0 0 0
0.0566114 -0.0365942 -0.201452
-0.142833 -0.0682927 -0.00221494
-0.283108 0.293775 -0.157752
-0.0680933 -0.15343 0.00529511
0 0 0
-0.114493 0.0637663 -0.00156492
0.0987341 -0.0423012 0.31995
-0.288094 -0.0823311 -0.138762
-0.105075 0.162222 0.3274
0 0 0
-0.143849 0.191276 0.0050816
-0.0815207 0.0404841 0.204884
-0.106189 -0.0532731 -0.190929
0.0767027 0.0818894 -0.00315922
-0.145857 -0.0914501 -0.159639
-0.243833 0.0920415 0.116808
0.109671 0.223801 -0.0900723
-0.144305 0.000696824 -0.0429351
0 0 0
0.171916 0.271293 -0.516447
0.066376 -0.0549989 -0.000650183
0.175579 0.177467 -0.00195055
0.241282 -0.132804 -0.113373
0.0261496 -0.184379 0.006491
0.0403032 0.0193908 -0.127021
0 0 0
0.0212552 -0.0618119 -0.00111334
0 0 0
-0.12929 -0.106258 0.00124585
0 0 0
-0.0903897 -0.132211 0.114678
0 0 0
0.190072 -0.362297 0.036566
-0.48693 -0.160176 0.164665
0.0494168 0.0186857 -0.0666769
0 0 0
0.131591 0.322571 0.330705
0 0 0
0 0 0
0.236238 0.568618 0.108268
0.13107 0.0261423 0.00870794
0.0212603 0.0512547 0.293434
0 0 0
-0.148613 -0.075343 0.263508
-0.268293 -0.15216 0.0948508
-0.0490068 -0.318437 -0.0664798
0 0 0
-0.218861 -0.249706 0.0659893
0 0 0
-0.0383785 0.160337 -0.215335
-0.355489 0.0766261 0.139248
0.170368 -0.0940546 0.168055
0 0 0
0 0 0
0.193603 -0.24998 0.122115
0.0775879 0.0101367 0.0353755
0.0683418 -0.0587919 0.117575
0.274634 -0.0945267 0.293162
0.168408 -0.0431338 0.228573
0.0394618 -0.0211469 -0.061399
0.312892 -0.180145 -0.418923
-0.0143344 -0.00878368 -0.000456736
0.286825 -0.33881 -0.239725
-0.288286 0.108806 -0.370578
0.0253568 0.0646542 0.087164
-0.151214 -0.0430365 0.000411769
-0.0224066 0.110191 -0.189029
0 0 0
-0.295984 0.213084 0.165453
-0.00252897 0.00583639 -0.00354217
-0.105058 0.161631 -0.00115606
0 0 0
-0.181424 0.156418 -9.52868e-05
-0.0207117 -0.174645 0.088123
-0.108468 -0.171784 -0.131549
-0.35853 -0.14049 -0.00864792
0 0 0
0 0 0
0.00322277 0.0410732 -0.0760469
-0.300312 -0.111959 0.440607
-0.0262967 0.00129153 -0.033348
-0.0474437 -0.419167 0.277061
0.0267393 -0.129794 -0.0229529
0.326956 0.213944 0.59781
0.142601 -0.278228 0.126922
0.106407 0.045608 -0.0755348
-0.0148138 0.109955 -0.146539
0.0439551 0.13663 0.010894
-0.209493 0.171476 -0.0649793
-0.0516911 -0.123678 -0.0701234
0 0 0
0 0 0
-0.0426029 -0.0501316 0.0441841
0.184914 0.0792244 0.0380921
-0.0312791 0.0528176 -0.386426
0 0 0
-0.0428719 0.0786578 0.0221304
0.00157906 -0.116438 0.0788524
-0.00165863 -0.0525557 0.0742502
-0.518369 -0.325931 -0.00966508
-0.0319225 -0.173742 -0.0147066
0 0 0
-0.000386487 -0.0249554 -0.087596
0.11965 -0.191502 -0.258573
0 0 0
-0.0791454 0.213885 0.174809
-0.0500174 -0.0481058 -0.379726
-0.025006 0.234238 -0.083183
-0.214804 -0.0284591 0.116001
-0.269266 0.0258778 -0.0972914
-0.0158937 0.00144786 0.00896033
0 0 0
-0.0977634 -0.503307 -0.0716611
0.00901738 -0.17088 0.315987
0.000921826 0.443893 0.0217217
-0.0354003 -0.0109846 0.0566925
0 0 0
-0.233678 0.00773604 0.185392
0 0 0
0.00111889 0.0299799 0.00668237
-0.0574978 0.0880313 -0.0853967
0.00335137 -0.0492669 -0.0843553
0.0618775 -0.0130048 -0.214338
-0.129694 0.0559306 -0.153249
0.0205739 0.0305716 -0.0330058
-0.324665 0.0296801 -0.00920201
0.178076 -0.259197 0.116196
-0.0107763 -0.108391 -0.0281483
0.041004 0.0330502 0.12951
0 0 0
0.147366 0.254056 -0.000803019
0.518328 -0.304144 0.339326
0.29331 0.434173 0.0499845
0 0 0
-0.00290859 0.0335871 0.116156
0 0 0
0 0 0
-0.383089 0.398885 -0.145476
-0.255774 -0.0667018 -0.00174634
0.0553947 0.0309743 0.0416652
0.182832 -0.22489 0.00731396
0.131289 -0.0381843 -0.0710338
0.201199 0.143244 0.10892
0.0428154 -0.112264 0.0104517
-0.070787 -0.285429 0.0902023
0 0 0
0.0983185 0.019701 -0.0153732
0.0893679 -0.112227 0.0673652
-0.00298074 0.0716077 0.0282476
0.130831 0.0628838 0.118055
0 0 0
0.112712 0.27649 0.457538
-0.000846253 0.0585724 -0.073435
-0.026261 -0.00969201 -0.521004
-0.00838253 -3.8436e-05 0.0509061
-0.290188 0.18146 -0.231698
0.0769974 0.119626 0.0355629
0 0 0
0.0152306 -0.0850819 0.0663616
0 0 0
-0.337726 0.650898 0.084388
0.00325483 0.1421 0.194413
0 0 0
-0.252773 -0.151401 0.321442
0 0 0
0.210796 -0.0191589 -0.0484197
0.0327475 0.00530895 0.169798
-3.06387e-05 0.0699409 -0.0730059
0.0333672 -0.306917 -0.0599685
0 0 0
0 0 0
0.0142427 0.117119 -3.1859e-05
0.0138991 0.0300547 -0.073198
-0.137368 -0.240967 -0.0697608
0 0 0
-0.212737 0.0682375 -0.000442036
0.122689 0.0659838 0.130419
0.0359373 0.0767595 -0.0330281
-0.0374324 -0.0250831 0.0102607
-0.0454791 0.157665 0.313479
0 0 0
0 0 0
0 0 0
0 0 0
0 0 0
-0.411525 0.00891555 -0.0811894
0.0278722 0.511686 -0.327675
0 0 0
-0.136277 0.0178152 -0.148627
0.0434507 0.00134235 -0.0878298
-0.43782 -0.0754586 -0.00640466
-0.0568867 -0.0217547 -0.0305305
0.0785094 0.0447531 -0.0519154
-0.0526449 0.118119 0.0494078
0.0250507 -0.27703 -0.0229622
0.100764 0.124984 0.12432
0.0468708 -0.053223 0.0404588
0.237386 0.320777 -0.196803
0 0 0
0 0 0
-0.0840666 0.140834 0.1079
-0.0905621 -0.254455 -0.448342
-0.0057964 -0.0473358 0.00126054
0.072518 -0.239346 -0.375277
-0.17747 -0.13153 -0.00746371
-0.195996 0.0601218 0.0344935
-0.124362 0.0104331 0.000100547
0.000942841 -0.00588785 -0.142004
-0.104512 -0.0389845 -0.177864
-0.0456958 0.259013 -0.288559
0 0 0
-0.00600618 0.133847 0.00476968
0 0 0
-0.101269 -0.0325273 -0.123342
0.0136787 -0.0762127 -0.343451
-0.0519453 -0.0199108 -0.0313573
-0.206586 -0.0292437 0.00539401
-0.146649 -0.0561972 -0.0634739
-0.00227487 -0.0279438 0.04031
0.00118125 0.0507209 0.328577
-0.0570715 -0.0818215 0.00186007
-0.158139 0.0147371 0.218463
0 0 0
0.0238724 -0.170501 -0.191962
0.118668 0.0169535 -0.0329678
0.0872866 -0.00513622 -0.0793112
-0.398701 0.0293013 0.0777357
0.188929 4.09449e-05 -0.193464
0.0137748 0.0567267 0.0835473
-0.195065 0.18112 -0.164678
-0.146385 -0.0570253 -0.0159831
-0.0886558 -0.161904 -0.0215276
-0.226205 -0.208923 0.0615395
-0.0861959 -0.0775698 0.0315401
0 0 0
0.0819489 -0.0916028 0.101093
0.147276 0.191907 -0.11534
0.0736178 0.167229 0.0739363
0 0 0
0 0 0
0.247774 -0.210757 0.196621
-4.45644e-05 -0.0162253 -0.0571655
0.19947 -0.189888 0.400474
-0.0637456 -0.043508 -5.60736e-05
-0.137852 0.000585182 -0.231524
0 0 0
0.2233 -0.291342 0.0496718
-0.0413767 -0.0125997 -0.0272357
-0.0247577 -0.247954 0.223994
0.143129 -0.0670345 -0.0595176
0.0184713 0.17334 -0.109319
0 0 0
0 0 0
0 0 0
-0.387009 -0.169029 -0.27294
-0.0540219 -0.0476247 0.0255951
-0.21498 -0.215182 -0.114093
0.0315603 -0.0274284 -0.00149571
0 0 0
-0.212729 0.080369 -0.245075
0 0 0
-0.0404873 -0.0611932 -0.0756454
0 0 0
-0.139938 -0.0126071 0.175391
0 0 0
-0.542064 0.0599524 -0.376498
0.000157387 -0.0305486 -0.00784918
0 0 0
0.0846292 0.152815 0.221223
0 0 0
0 0 0
-0.125597 -0.13962 0.076199
-0.189288 -0.0277913 0.129213
-0.162919 -0.314294 -0.0974574
0 0 0
-0.0976595 0.56785 -0.110484
-0.213098 0.156971 0.0910317
0 0 0
-0.217076 -0.263561 -0.187706
-0.152929 -0.318793 -0.0265203
0.00476082 -0.153007 0.0125578
-0.00924945 -0.0294252 -0.0110651
0 0 0
-0.450541 0.428817 -0.373589
-0.221777 0.345461 -0.00666174
0 0 0
0 0 0
0.297973 0.0951335 -0.211895
0 0 0
-0.023742 0.0388666 -0.00889599
0.00243385 -0.113456 -0.215121
-0.119063 -0.248142 0.148406
-0.05807 -0.0590676 -0.051023
0 0 0
-0.120728 -0.0139834 0.122039
-0.522347 -0.11506 0.0598642
-0.0451665 -0.0707567 -0.0195164
-0.0662415 -0.0722223 -0.0485032
0.00472044 -0.00628207 0.09308
-0.0819815 -0.2807 0.394436
0 0 0
0.205681 -0.192235 0.000967125
-0.278096 -0.00974633 0.0966456
-0.0310718 -0.216356 0.186041
-0.076925 0.276439 0.0817589
-0.0318302 0.0172879 0.0949118
0.00686753 -0.218931 -0.00318106
0.298644 0.287774 0.0604078
0.0833802 -0.0465121 -0.0749318
0 0 0
-0.180581 0.127011 -0.0809785
0 0 0
-0.0251816 0.0310851 0.000569688
0 0 0
0.0829572 -0.199631 0.307767
0.190058 -0.106722 -0.113607
0 0 0
0 0 0
-0.123937 -0.0528202 0.258273
-0.101286 0.332302 -0.196745
0.11041 0.0675704 -0.0920633
-0.119146 0.246991 -0.390472
-0.180359 0.105933 0.1274
0.0210262 -0.015887 0.0350687
-0.130821 0.0311769 -0.0476627
0 0 0
-0.000674461 0.00360313 -0.000484894
0.127659 -0.189163 0.246828
0 0 0
-0.204492 0.31957 0.0037804
0 0 0
-0.0974789 0.135425 -0.269092
-0.0545552 -0.0878382 -0.175242
0.024636 0.00537804 -0.0194593
0 0 0
0 0 0
-0.0605464 0.0111495 -0.00372681
-0.0319733 -0.473277 0.114761
-0.0010222 -0.100704 0.0445851
-0.243777 -0.0859891 0.0435582
-0.179362 -0.0055545 -0.00470878
0 0 0
-0.0178745 0.0425424 -0.0796468
0 0 0
0.0726692 -0.0246935 0.00062557
0.0896383 0.0195234 0.152359
0.132213 -0.353449 0.132254
0 0 0
-0.0149149 0.0330433 0.00127245
0.0734523 0.0557912 0.152347
0.0452032 -0.00639884 0.0191194
0.125716 -0.0156803 -0.013765
-0.0877174 0.0115196 0.0500945
-0.156142 0.170273 -0.0782674
-0.00222303 -0.0154395 0.226556
0.0447838 -0.184022 -0.0730292
0.0119497 -0.0468545 -0.0279259
-0.0807245 -0.0173565 -0.0113391
0 0 0
0.0880717 -0.141205 -0.247822
0.187024 -0.127511 -0.0570954
0.00798859 -0.0358129 -0.126578
0.00011988 0.566505 0.0990308
-0.023579 0.0343691 -0.0941142
0.51881 0.0720106 -0.01683
0.249712 0.0721637 0.00854119
-0.173023 0.108959 -0.245552
-0.126221 0.200129 -0.151901
0.0322828 -0.0590011 0.0529752
-0.219202 -0.107432 0.156286
0.0629219 -0.0432468 0.0315926
0.455056 -0.496355 -0.0297492
0.293024 -0.293752 -0.229869
0.0146231 -0.0421129 0.00255387
0 0 0
0.175434 -0.0178521 0.130837
0 0 0
-0.169666 0.0730567 0.12261
0 0 0
-0.195384 0.0111348 0.072494
-0.0376636 0.0668774 -0.116266
-0.175797 -0.00652873 -0.170191
0.170327 -0.143971 0.199447
0 0 0
-0.137279 -0.0440644 0.262652
0 0 0
-0.178861 -0.254249 0.107689
0 0 0
-0.26757 0.18476 -0.257197
-0.253578 0.170446 -0.0365784
0.104066 -0.0791025 0.123165
0 0 0
0.0184062 -0.0397332 0.0804846
0.0325339 -0.042481 0.0340115
-0.0975373 -0.00655219 0.23686
0 0 0
0.0445646 -0.0651846 0.0112135
0 0 0
0.262945 0.37085 -0.353133
-0.00672872 0.108005 -0.171171
0.0489682 0.0531367 0.000877316
0 0 0
-0.0526252 0.1455 0.277557
-0.0501094 -0.0600508 0.0852154
0.0276241 -0.0453452 -0.234123
0.0176613 0.00572435 0.0670607
0.223735 -0.0666398 0.0213699
0 0 0
0.24493 0.488735 -0.159096
0.263168 -0.0524404 0.0431532
-0.0959546 -0.226211 -0.000980003
0.0360974 0.0314704 -0.00366313
0 0 0
-0.0317963 0.0594452 0.0238625
0 0 0
-0.0832077 0.00249816 0.038735
-0.283872 0.232137 0.300327
0 0 0
-0.286392 0.0571244 -0.0770295
-0.162257 -0.295086 0.0605385
0 0 0
0.0653599 0.014337 -0.00259067
0 0 0
0 0 0
0.19177 0.284436 0.262684
0.2892 0.245705 0.266714
-0.1619 0.0247183 0.0291992
0 0 0
-0.00978586 -0.203882 -0.190478
0 0 0
0 0 0
0 0 0
-0.0603823 -0.117219 0.103754
0 0 0
0.123092 0.352471 -0.0888087
0.182699 0.196469 0.109495
-0.00061489 0.0128334 0.00684054
-0.0154991 0.271579 -0.00181538
-0.0284838 -0.202531 0.000951716
0 0 0
-0.31335 0.108455 -0.00212467
0 0 0
-0.109013 0.161718 -0.00239096
0.239132 0.213621 -0.052095
0.195219 0.136755 -0.155816
0.124738 -0.0420299 0.0427099
0.12632 0.0323371 -0.0993443
-0.19237 0.0749067 -0.0802561
0 0 0
0 0 0
0.204389 0.0882596 -0.112382
-0.0475807 -0.140003 0.0164909
-0.10281 -0.231417 -0.213899
0 0 0
0 0 0
-0.205079 -0.0928237 0.0657694
0 0 0
-0.0960128 -0.0477905 -0.211902
0.0753055 0.10228 -0.138082
0.417936 -0.0699228 -0.0873949
-0.258637 0.43707 -0.107268
-0.151791 0.197399 0.108043
-0.269392 0.115978 -0.184159
-0.0610034 0.123778 -0.0132377
0.194567 0.104189 -0.169932
-0.0127598 -0.0371601 -0.047714
-0.183304 0.282637 0.27821
0 0 0
-0.0376064 0.0683373 -0.128465
-0.521228 0.0459647 -0.0351461
-0.508121 0.0636766 0.218415
-0.528681 0.0447345 0.104606
-0.347252 -0.346175 -0.0745639
-0.225571 0.12724 -0.000776519
-0.079598 -0.239964 -0.0325043
-0.139724 -0.105419 -0.0163505
0.00464133 0.051529 -0.0277618
-0.15482 0.000462616 0.206419
-0.0224075 0.0214497 0.0382679
0.123806 -0.152981 -0.056981
-0.0022735 -0.107352 0.0116258
0.195309 -0.201718 0.167314
0.342787 0.158783 -0.264507
0.144351 -0.00764335 -0.216283
-0.100499 0.00109535 -0.0417021
0 0 0
-0.0701489 0.206135 0.120338
-0.0645699 0.235498 -0.095968
-0.528504 0.114458 0.00931574
-0.0658729 0.0872875 -0.320279
-0.107628 -0.0492281 0.0413762
0 0 0
0.229747 0.152504 -0.0216958
0 0 0
-0.0417237 0.00280973 -0.00601207
0 0 0
0.00171811 0.0934724 -0.0102027
-0.0839469 -0.175706 0.0785
0.00197998 -0.0599565 0.0379503
0.0689714 0.120865 0.292857
0.0462137 -0.000533147 -0.0506697
-0.0499336 -0.0967182 -0.00317137
0.0305113 0.134877 0.239133
0 0 0
0.146671 0.165764 0.200731
0.0575643 0.12935 0.0028308
0.181361 -0.205216 0.522168
0 0 0
-0.0227814 0.239769 -0.00881202
0 0 0
-0.00637417 0.00983292 -0.0249402
0.0625287 0.0074924 -0.0547754
0.0734308 -0.235619 0.0540296
0.451021 0.0559473 0.122051
-0.310782 0.674679 0.638849
-0.000590502 0.0279401 -0.0114337
-0.0795423 0.201533 -0.0999569
0.17343 0.0744167 0.0123666
-0.0711856 0.402461 -0.244132
0 0 0
0.0807627 0.432856 -0.00908553
0.0231187 -0.000747192 0.0320478
-0.283281 0.137563 0.588735
0 0 0
-0.127971 -0.110189 0.000300866
-0.276137 0.344635 -0.151094
-0.123579 0.222335 0.0162691
0 0 0
0 0 0
-0.269995 0.119132 -0.222553
-0.0054333 0.0380914 -0.0399509
0.186523 0.141244 0.00158907
0.2105 -0.107311 0.04496
-0.0177002 0.00923769 -0.181606
0.00507553 -0.0508431 -0.123323
0.0595011 -0.108288 -0.00116537
0 0 0
-0.0735829 0.419511 -0.248727
0 0 0
0.00362315 -0.176494 0.0444
-0.219296 0.430151 0.258046
-0.000517515 -0.00507214 -0.00811099
-0.0628815 0.160712 0.0245609
0 0 0
0 0 0
-0.142251 0.187592 -0.0914163
0.00537579 0.0140047 -0.0097534
0.245442 -0.0956917 -0.311708
0.178596 0.0952079 0.0168644
-0.00459133 -0.00598969 0.00602861
0.00566799 0.14664 -0.113856
-0.162663 0.052274 -0.00337354
0 0 0
0.0211357 -0.469266 0.198213
0 0 0
0.0560179 -0.360396 -0.629858
0 0 0
0.0954134 0.279199 -0.0697325
-0.0705317 -0.0546892 -0.0562074
-0.229114 0.0839598 -0.125166
-0.0690649 -0.0310628 0.0162598
0.0673408 -0.151305 0.0561988
0 0 0
0 0 0
0 0 0
0.386742 0.108664 -0.0491721
0 0 0
0.0122042 -0.0201163 -0.0131855
0.31951 -0.387401 -0.103938
0.0759379 0.0176421 -0.0184639
0.221991 0.12877 -0.100194
0 0 0
-0.0218088 0.0174823 0.00186185
-0.060651 0.224999 0.123057
-0.0595783 0.277069 0.11055
-0.0728565 0.0719006 -0.111624
-0.00327915 0.0265464 -0.0656508
-0.323989 0.0096678 -0.203676
0.16295 0.0677344 -0.0429217
0.131769 -0.0745136 0.217799
0.0187036 0.0536253 -0.00109832
0.176219 -0.342903 -0.000827814
-0.036968 -0.0531059 -0.00795995
0.0378403 0.0167201 3.67429e-05
0 0 0
-0.272785 0.017034 0.258021
0 0 0
0 0 0
0 0 0
-0.122389 0.0744435 0.113414
-0.151846 0.105348 0.286405
0 0 0
0 0 0
0.0521389 -0.0584374 0.00109312
0 0 0
-0.0185726 0.0785919 -0.160455
0 0 0
0.163019 0.116243 -0.143535
0.0011432 0.067427 0.318872
0 0 0
-0.128024 -0.179692 0.0497276
0 0 0
-0.141145 0.286878 0.00854022
0 0 0
0.228455 0.114247 -0.333424
0 0 0
0 0 0
0.405247 -0.272339 -0.0813935
0.0977211 -0.196424 -0.177767
0.117215 0.248575 0.238582
-0.00150296 -0.00889979 -0.0792787
-0.163283 -0.259017 0.246073
-0.2116 -0.104213 0.251453
0.0501629 -0.0439529 -0.0862432
0.00981521 0.0387175 -0.121698
-0.0461416 -0.0965423 -0.105246
0 0 0
0 0 0
0 0 0
0 0 0
-0.130396 0.260994 0.193288
0.0018331 0.057631 -0.041731
0 0 0
0.227632 -0.343628 -0.0480971
0.0971351 -0.0481465 0.0701521
0.0826855 0.144591 -0.217437
0 0 0
0.446739 -0.0441803 -0.240465
0.0965916 0.180407 -0.115951
-0.0911877 0.365323 -0.214611
0 0 0
0.00165711 0.0769431 -0.0890997
0.0199581 0.262263 0.265664
-0.494614 0.0884229 -0.0546006
-0.0763617 0.019581 -0.168245
-0.516782 -0.484302 -0.0229435
0.000234191 -0.00258647 0.0193588
0.00473663 0.266754 0.308749
-0.00331512 0.00811285 0.0154264
-0.0777324 -0.123894 0.163167
-0.0199908 0.0165248 0.0686583
0.143507 0.0152731 0.000456707
0.00731906 -0.225724 0.295065
0.0152321 -0.000294815 0.0965136
0.129686 -0.00134998 -0.0960191
0.0775199 0.191607 0.0504533
0.257805 0.0524418 0.252193
0.168783 -0.0120866 -0.0958931
0 0 0
0.145238 0.210413 0.0626437
-0.0197259 -0.162001 -0.0811191
0.174385 0.000879095 -0.0460584
0 0 0
0 0 0
0.0767943 -0.00668972 -0.00013372
0.0223946 0.0139948 0.0450102
0.0242292 -0.0148727 0.0309934
0 0 0
0.0668435 -0.161841 0.00600598
0 0 0
0.0209108 -0.197119 0.274499
0.000563328 -0.000433407 0.000942209
-0.423212 0.188738 0.0407595
-0.315873 -0.0829505 0.28267
-0.195775 -0.0527157 -0.14139
0 0 0
0.00859456 0.14008 0.0277008
-0.0157203 0.208063 0.15984
0 0 0
-0.116796 -0.187709 -0.00361034
0.00156442 0.166218 0.0298508
-0.196533 -0.477552 -0.291863
-0.0758999 -0.0285539 0.0129119
-0.000802699 0.0567636 0.120308
-0.243589 0.291294 0.362546
-0.0494591 -0.126655 0.244729
0.225738 -0.155892 0.0827149
0.249584 -0.128299 0.00760028
-0.00801198 -0.0321156 -0.0369984
0.0505145 0.00985233 0.000156482
0.412198 -0.0333317 0.311498
0.0762532 -0.000520274 0.106822
0.0672468 -0.0277891 -0.0393253
0.282762 -0.0109446 0.0962332
0.0531045 0.158548 0.0382062
0.311615 0.0516782 -0.253199
0.115441 0.0242918 0.0100453
0 0 0
0 0 0
0.277295 -0.12733 -0.166626
0.1692 0.0730561 0.0372054
0.0587929 0.0533895 -0.0843045
0 0 0
-0.052616 0.0977508 -0.314812
0.145551 -0.0983727 -0.315254
0.117265 -0.147154 -0.00090798
-0.0372959 0.233688 0.0322527
0 0 0
-0.109105 0.0547922 -0.00605701
-0.26572 0.0537995 -0.25832
0.0129629 0.0929821 -0.259346
0 0 0
0.210225 -0.294594 0.178227
0.32981 -0.191426 0.0551879
-0.20278 0.0626198 -0.162462
0 0 0
-0.0185054 -0.383101 0.0594198
-0.0383724 -0.0376517 0.0311254
-0.119046 0.0972903 0.000409969
-0.00612127 -0.111839 0.0906143
-0.00135982 -0.0726755 0.0264075
-0.0855557 -0.297769 0.226348
0 0 0
-0.0651795 -0.147959 -0.132829
-0.16587 0.0338949 0.00644866
0.117546 0.335428 -0.365853
0.0986161 -0.111193 -0.083668
0 0 0
0.258027 -0.302203 -0.139746
0.233507 0.161518 0.200677
-0.0593897 0.42154 -0.342343
0 0 0
0 0 0
-0.0847724 -0.0590845 -0.131938
0 0 0
0 0 0
0 0 0
-0.0632729 0.0752852 0.225308
0.0168483 0.116089 0.133233
0 0 0
0.0815996 0.0155735 -0.0727774
-0.299999 0.323052 -0.189591
-0.146299 0.143084 0.17384
0.0264303 -0.00519822 -0.1254
-0.0191592 -0.225672 0.00683165
0 0 0
0.0938388 -0.0461088 0.0149496
-0.115752 0.120454 -0.0471692
0.127909 0.0788399 0.0115228
0.213638 0.258985 -0.015695
0.0145743 -0.146605 -0.0686229
0 0 0
0 0 0
-0.196952 0.178903 -0.137915
-0.267808 0.0533489 -0.177419
0 0 0
0.0112894 -0.0629661 0.0879674
0.110335 0.224517 -0.272232
0.000690268 0.0299109 0.074783
0.290495 0.203642 -0.0227845
0.127374 -0.0114625 -0.0377681
0.0413687 0.098063 0.129241
0 0 0
-0.0331408 0.132837 -0.0026248
-0.106641 -0.11492 -0.0444829
-0.0436776 -0.0341128 -0.0429287
-0.0440112 -0.0136656 -0.00446635
0.0924427 -0.182905 0.331939
0.148712 0.372248 0.0877705
0.298587 -0.164819 0.221182
0 0 0
-0.117429 -0.19008 -0.145372
0 0 0
0.259319 -0.107965 -0.0979063
0 0 0
-0.125506 -0.0410091 0.173802
0 0 0
0.0495097 -0.174761 -0.101217
0.0225719 0.109977 0.0659376
-0.159828 0.128933 -0.04231
0 0 0
0.0713322 -0.0526396 0.193722
-0.0458151 -0.289583 0.0358726
0 0 0
-0.150695 -0.14454 0.173887
-0.181616 0.0478132 -0.0128855
-0.253665 -0.188794 0.218451
0.0287375 -0.0145891 -0.0579324
0.0335697 -0.155096 -0.0878367
-0.00579335 0.0542501 0.13997
-0.00218479 0.181589 0.0764634
0.238229 -0.00578457 0.0904339
-0.0491427 0.00133215 0.0153077
-0.352444 0.176568 0.301721
0 0 0
0 0 0
-0.030247 -0.272826 -0.164023
0 0 0
0.00853684 -0.0233561 0.070028
0.27049 0.443165 -0.146113
-0.0197622 -0.0322168 -0.0553501
-0.081601 0.181568 -0.0260838
0 0 0
0.00708946 -0.0480552 -0.0715659
-0.142762 0.186834 -0.222792
0 0 0
-0.129687 -0.161878 0.13761
0.0718792 -0.115542 0.0408566
0 0 0
0.135283 -0.85949 0.17558
0 0 0
-0.237204 -0.102341 -0.000282947
-0.0539812 0.128931 -0.22739
-0.092285 0.101946 -0.070085
-0.127132 0.180251 -0.0649664
-0.0797515 -0.0223406 -0.177466
-0.0146301 -0.000941688 0.0167436
0.00664968 -0.496826 -0.202605
0 0 0
-0.0719385 -0.0552682 -0.052877
-0.00493138 0.0100586 0.000246579
-0.141705 -0.370227 0.133458
0.000583155 -0.150616 -0.0629698
-0.231386 -0.17197 -0.0918442
0.000293142 0.0267945 -0.0178205
-0.0814122 0.282419 0.277498
0.0608839 0.000626594 0.033494
0 0 0
0.225517 -0.281456 -0.19546
-0.103105 -0.329662 -0.759914
0 0 0
-0.32765 0.232466 0.242442
-0.524801 0.27582 0.158445
-0.0875423 -0.11245 -0.116194
-0.20842 -0.0295436 -0.0662124
0.022561 0.0179279 -0.0429697
-0.190175 0.00248377 0.231426
0.0551809 0.172315 0.0969015
-0.0895869 -0.0170379 -0.156703
0 0 0
0.052536 -0.0591791 0.212024
-0.118757 0.0271053 0.195491
-0.438534 -0.219337 -0.274641
0.000410759 -0.00214543 -0.00395353
-0.021775 -0.074367 -0.0851025
0.19656 -0.225001 0.0656449
0.524469 -0.359054 -0.100043
0.482927 -0.169892 0.0478129
0.0353172 -0.0172182 0.0905153
-0.0790156 -0.106906 0.331512
0.0280486 -0.0308108 0.00189168
-0.120909 -0.0480844 0.213832
-0.00328565 -0.0105955 -0.00409373
-0.0471806 -0.142804 -0.170825
0 0 0
-0.000603789 0.124584 -0.126575
-0.281351 0.406464 0.0904893
0.0542878 0.0369144 0.0264733
0.323144 -0.0300664 0.146109
-0.000378412 -0.0118126 -0.00279917
-0.0502105 -0.00336514 -0.0264166
-0.00347182 -0.015557 0.0795883
0.300858 -0.0214275 0.0911365
-0.0299928 -0.000330566 0.142336
-0.0868749 -0.325284 -0.00624337
-0.307094 0.240531 0.00128985
-0.0263874 -0.0626017 0.0495417
-0.124598 -0.159307 -0.025383
-0.0158517 -0.0168548 0.0161135
0.0789079 0.00154738 -0.0191514
0.0297214 0.0014446 0.012854
-0.0642447 -0.138915 -0.00147698
0.203088 0.114532 0.303302
0 0 0
0.0769437 0.0511245 0.162178
0 0 0
0.14898 0.166791 -0.0580564
-0.00160019 -0.144794 -0.0924089
0.0737883 0.00279273 -0.0781897
0.0869938 -0.103281 -0.347094
0.425768 0.0284884 0.316778
0.0332944 -0.0316433 0.177919
-0.047952 -0.0983148 0.0216336
0.0242014 -0.130738 -0.310216
0.119537 -0.0990828 0.107032
-0.080259 -0.0409247 0.441088
0 0 0
-0.0555299 0.103589 0.1759
-0.00457559 -0.159235 -0.0734277
0.137754 0.602029 -0.0933467
0.00386334 -0.110547 0.164904
0.000623866 -0.0127176 -0.0514697
0.0788225 -0.0253397 0.138528
0.362758 0.0820741 0.23187
0.180835 0.051626 0.124807
0.464692 -0.121208 0.444493
0.10586 0.0336153 -0.0188828
0.120771 -0.053297 -0.00769163
0.0459841 -0.0096882 0.049661
0.00543545 0.237641 -0.447009
-0.137192 -0.0330371 0.216764
-0.0142217 -0.711734 -0.00875636
-0.0319217 -0.0108783 0.000395457
0.0234473 -0.0936994 -0.000943935
0.157442 -0.00533956 0.0306019
0.0578784 0.0347706 0.308008
0 0 0
0 0 0
0 0 0
0 0 0
0 0 0
0 0 0
0 0 0
0 0 0
0 0 0
0 0 0
0 0 0
0 0 0
0 0 0
0 0 0
0 0 0
0 0 0
0 0 0
0 0 0
0 0 0
0 0 0
0 0 0
0 0 0
0 0 0
0 0 0
0 0 0
0 0 0
0 0 0
0 0 0
0 0 0
0 0 0
0 0 0
0 0 0
0 0 0
0 0 0
0 0 0
0 0 0
0 0 0
0 0 0
0 0 0
0 0 0
0 0 0
0 0 0
0 0 0
0 0 0
0 0 0
0 0 0
0 0 0
0 0 0
0 0 0
0 0 0
0 0 0
0 0 0
0 0 0
0 0 0
0 0 0
0 0 0
0 0 0
0 0 0
0 0 0
0 0 0
0 0 0
0 0 0
0 0 0
0 0 0
0 0 0
0 0 0
-0.0116167 -0.0492888 0.217887
-0.100759 0.204907 0.00278624
0 0 0
0.205389 -0.0897061 -0.0444676
-0.050058 0.0766678 0.0228747
0 0 0
-0.033771 -0.00578067 0.0677229
0.000136861 0.0189423 0.111731
0.0573757 0.0716575 -0.06826
0.0367526 -0.127849 -0.0249986
0 0 0
0.132542 0.0172318 0.0811394
0.0519647 -0.0445468 0.0191539
0 0 0
0.0683103 0.0204997 -0.0242
0.0578754 -0.0910729 0.196033
-0.104887 0.121757 -0.386203
-0.0725737 0.009818 -0.0748341
0.000474156 -0.187407 0.0716509
0.111391 0.125047 0.0687724
0.0197579 0.173766 -0.161725
0 0 0
0.110335 -0.112661 -0.10982
-0.0775214 -0.110652 0.40255
-0.0364697 -0.020884 -0.248424
-0.0509253 0.0319991 0.05054
-0.00406001 -0.00977155 7.96473e-05
-0.0498775 0.0453135 0.00835355
0.0367474 0.0480686 -0.0413728
0 0 0
0.0272068 0.0172479 -0.0277518
0.0275768 0.0435416 -0.00218782
-0.00250739 -0.0448515 -0.204515
0.0251473 -0.0453398 0.00355124
0 0 0
-0.120421 0.00303395 0.135905
0.0689132 -0.059025 -0.0770796
0 0 0
-0.0236752 -0.0128779 -0.115412
0.0126152 0.0605877 0.0291381
0.0617986 -0.0109622 -0.0793968
-0.0427302 0.00431022 0.0614005
0 0 0
-0.00381712 0.0327796 -0.0156148
-0.117558 0.0174441 -0.125874
-0.00586664 -0.0211961 -0.0137383
-0.0925546 0.145242 -0.105898
-0.0739337 -0.00119898 0.0759811
0 0 0
0.0459332 0.000861594 0.0991367
-0.00297788 0.0238873 0.00476617
-0.368947 -0.0295259 -0.214364
-0.0179074 -0.0257411 0.0569064
-0.00161454 0.0413654 -0.0239494
-0.0117068 0.000815264 0.0312823
-0.025071 -0.109701 0.255369
0.00112116 0.136614 -0.212491
0.023082 -0.0958297 -0.103794
0 0 0
-0.0298556 -0.057231 0.0245048
-0.136952 -0.000288183 -0.00848247
0 0 0
0.0880838 0.0259021 0.00633356
-0.0886462 0.136515 0.0165237
0.00367521 -0.140013 0.0408821
-0.154391 0.0787343 0.261773
-0.521563 0.308021 -0.127967
-0.382688 -0.122932 0.0456136
-0.237707 0.162598 0.0671123
0 0 0
-0.0213834 -0.0802773 0.110608
-0.12946 -0.0555353 0.0734847
-0.0221644 0.0103006 0.0642848
-0.105951 0.0389821 0.0783936
0.0725855 -0.527664 -0.489754
0 0 0
-0.00514313 0.0693057 -0.0120445
-0.0113669 -0.0736088 -0.0321696
0.106835 0.147476 -0.0481748
0.176103 0.264642 -0.220062
0.155491 -0.07141 -0.236224
-0.106619 -0.0271553 -0.211763
-0.191666 0.136892 0.06893
0.207656 -0.0728942 0.0189448
0.316638 -0.524253 -0.005257
0 0 0
-0.10691 -0.212983 0.106281
-0.00986112 -0.0372324 0.052877
-0.0711528 -0.234856 0.122323
0.219537 -0.22523 0.147863
0.000650528 0.126539 0.0468243
0 0 0
-0.0557805 0.262001 -0.111095
0 0 0
-0.170926 0.377917 -0.00123924
-0.0280686 0.340846 -0.0550824
0.00836988 0.0144782 -0.0910069
0.0309469 0.194418 -0.0321467
-0.15052 0.167854 0.0886095
0 0 0
-0.301887 0.200639 -0.12723
-0.199654 0.225958 0.125556
-0.134151 0.170948 0.136091
-0.0640958 -0.0689651 0.255253
-0.0881208 0.184503 -0.0152739
-0.345256 -0.0411385 0.112259
0 0 0
-0.30111 -0.598653 -0.108487
-0.0746141 -0.118896 -0.0694488
0 0 0
0 0 0
-0.0343183 -0.114106 0.134824
0 0 0
0 0 0
0.317898 -0.400155 -0.00701391
0.022388 -0.0119473 -0.0091546
0.0270212 -0.0333598 0.235351
0.035125 -0.0340109 0.00314264
0.268788 -0.174286 0.219998
-0.0907372 0.0617527 -0.144261
0.178989 0.0597718 0.169122
0.300234 0.0525737 -0.0507514
-0.0121292 0.00174282 -0.00989106
-0.141697 -0.131214 0.1693
0 0 0
-0.026541 -0.14188 -0.102663
-0.178297 0.0198193 0.0484162
0.14848 0.153898 -0.191764
-0.0690993 -0.168753 -0.213348
-0.0015941 0.0163762 -0.0345565
0.126941 -0.264774 0.131159
-0.0971629 0.0659113 -0.0936761
0.0426134 0.445619 0.234186
0.00257552 -0.184696 0.0847264
-0.315528 0.11397 0.405659
-0.0679557 -0.0374011 0.00389997
-0.180489 0.286109 0.330636
-0.0477441 -0.0406527 -0.0369825
0.182632 -0.0512824 0.0235677
-0.0633124 -0.388183 0.0764424
-0.0585095 -0.102548 -0.0506363
-0.0424018 -0.202615 0.187895
0 0 0
-0.0525662 -0.065677 0.18631
0 0 0
0 0 0
0 0 0
0 0 0
-0.0654888 -0.0954678 0.108701
-0.083695 0.0639375 -0.122051
0.0715109 0.0235733 -0.0309361
-0.027004 0.0424988 -0.380595
0.081565 -0.217452 -0.208522
-0.140669 0.153797 0.186297
-0.131668 -0.192982 0.140969
0.0445952 -0.136599 0.0199218
-0.204859 0.063961 0.168549
-0.24251 -0.0814277 0.0161032
-0.283965 -0.0194605 -0.0297148
0 0 0
0.0822893 0.00784105 0.0280612
0 0 0
-0.17258 -0.104305 0.015271
-0.271412 0.279993 -0.478409